<event>
12    1  0.1114484E-007  0.3016820E+04  0.7818608E-02  0.8238944E-01
          2   -1    0    0  501    0  0.00000000000E+00  0.00000000000E+00  0.15135063346E+04  0.15135063346E+04  0.00000000000E+00 0. -1.
         -2   -1    0    0    0  501 -0.00000000000E+00 -0.00000000000E+00 -0.15033310803E+04  0.15033310803E+04  0.00000000000E+00 0.  1.
         23    2    1    2    0    0 -0.11472936348E+04 -0.63109512024E+03  0.41782671339E+03  0.13776318651E+04  0.93416583278E+02 0.  0.
        254    2    1    2    0    0  0.11472936348E+04  0.63109512024E+03 -0.40765145914E+03  0.16392055498E+04  0.89791502230E+03 0.  0.
        -24    2    4    4    0    0  0.67975708293E+03  0.57352560103E+03 -0.64901742996E+03  0.11038907015E+04  0.79685316557E+02 0.  0.
         24    2    4    4    0    0  0.46753655185E+03  0.57569519205E+02  0.24136597083E+03  0.53531484832E+03  0.79998613079E+02 0.  0.
         11    1    3    3    0    0 -0.71623037531E+03 -0.42151683604E+03  0.30465010749E+03  0.88514071286E+03  0.00000000000E+00 0.  1.
        -11    1    3    3    0    0 -0.43106325948E+03 -0.20957828420E+03  0.11317660591E+03  0.49249115221E+03  0.00000000000E+00 0. -1.
          2    1    6    6  502    0  0.29781732020E+03  0.74860829356E+02  0.16118499640E+03  0.34681393145E+03  0.00000000000E+00 0. -1.
          3    1    5    5  503    0  0.64634076066E+03  0.52548933422E+03 -0.59000436457E+03  0.10207842914E+04  0.00000000000E+00 0. -1.
         -4    1    5    5    0  503  0.33416322272E+02  0.48036266810E+02 -0.59013065392E+02  0.83106410163E+02  0.00000000000E+00 0.  1.
         -1    1    6    6    0  502  0.16971923165E+03 -0.17291310151E+02  0.80180974425E+02  0.18850091686E+03  0.00000000000E+00 0.  1.
<mgrwt>
<rscale>  0 0.30168203E+04</rscale>
<asrwt>0</asrwt>
<pdfrwt beam="1">  1        2 0.23284713E+00 0.30168203E+04</pdfrwt>
<pdfrwt beam="2">  1       -2 0.23128170E+00 0.30168203E+04</pdfrwt>
<totfact> 0.89497055E-01</totfact>
</mgrwt>
</event>
<event>
12    1  0.1114484E-007  0.1726351E+04  0.7818608E-02  0.8746476E-01
          1   -1    0    0  501    0  0.00000000000E+00  0.00000000000E+00  0.14563461499E+04  0.14563461499E+04  0.00000000000E+00 0. -1.
         -1   -1    0    0    0  501 -0.00000000000E+00 -0.00000000000E+00 -0.51160362617E+03  0.51160362617E+03  0.00000000000E+00 0.  1.
         23    2    1    2    0    0 -0.39327461292E+03  0.41184637052E+03  0.62739706320E+03  0.85338079045E+03  0.10173172816E+03 0.  0.
        254    2    1    2    0    0  0.39327461292E+03 -0.41184637052E+03  0.31734546052E+03  0.11145689856E+04  0.90403181819E+03 0.  0.
        -24    2    4    4    0    0  0.23445309062E+03 -0.17171741504E+03 -0.30211628948E+03  0.42680587264E+03  0.80211459439E+02 0.  0.
         24    2    4    4    0    0  0.15882152230E+03 -0.24012895548E+03  0.61946175000E+03  0.68776311298E+03  0.79994053868E+02 0.  0.
         11    1    3    3    0    0 -0.31694519473E+03  0.33567332064E+03  0.44335678468E+03  0.64007505277E+03  0.00000000000E+00 0.  1.
        -11    1    3    3    0    0 -0.76329418193E+02  0.76173049874E+02  0.18404027852E+03  0.21330573768E+03  0.00000000000E+00 0. -1.
          2    1    6    6  502    0  0.61706340743E+02 -0.15815293587E+03  0.39253336396E+03  0.42767097801E+03  0.00000000000E+00 0. -1.
          3    1    5    5  503    0  0.17226146647E+02 -0.49043813430E+02 -0.54178088593E+02  0.75081962199E+02  0.00000000000E+00 0. -1.
         -4    1    5    5    0  503  0.21722694397E+03 -0.12267360161E+03 -0.24793820088E+03  0.35172391044E+03  0.00000000000E+00 0.  1.
         -1    1    6    6    0  502  0.97115181560E+02 -0.81976019609E+02  0.22692838604E+03  0.26009213497E+03  0.00000000000E+00 0.  1.
<mgrwt>
<rscale>  0 0.17263510E+04</rscale>
<asrwt>0</asrwt>
<pdfrwt beam="1">  1        1 0.22405325E+00 0.17263510E+04</pdfrwt>
<pdfrwt beam="2">  1       -1 0.78708251E-01 0.17263510E+04</pdfrwt>
<totfact> 0.10756964E+01</totfact>
</mgrwt>
</event>
<event>
12    1  0.1114484E-007  0.1030535E+04  0.7818608E-02  0.9275674E-01
         -3   -1    0    0    0  501 -0.00000000000E+00  0.00000000000E+00  0.18470117538E+03  0.18470117538E+03  0.00000000000E+00 0.  1.
          3   -1    0    0  501    0  0.00000000000E+00 -0.00000000000E+00 -0.14374613438E+04  0.14374613438E+04  0.00000000000E+00 0. -1.
         23    2    1    2    0    0  0.37614948528E+02 -0.68915718866E+02 -0.11403059311E+03  0.16603954519E+03  0.91661844535E+02 0.  0.
        254    2    1    2    0    0 -0.37614948528E+02  0.68915718866E+02 -0.11387295753E+04  0.14561229740E+04  0.90411548435E+03 0.  0.
        -24    2    4    4    0    0  0.26337249168E+03 -0.28189183869E+03 -0.75034108426E+03  0.84718823401E+03  0.76733845422E+02 0.  0.
         24    2    4    4    0    0 -0.30098744021E+03  0.35080755756E+03 -0.38838849105E+03  0.60893473998E+03  0.79350588964E+02 0.  0.
         13    1    3    3    0    0  0.30088843657E+02 -0.46466847617E+02 -0.12735840588E+03  0.13886925502E+03  0.00000000000E+00 0. -1.
        -13    1    3    3    0    0  0.75261048714E+01 -0.22448871249E+02  0.13327812775E+02  0.27170290176E+02  0.00000000000E+00 0.  1.
          2    1    6    6  502    0 -0.22463173277E+03  0.20890458586E+03 -0.27411160391E+03  0.41138511489E+03  0.00000000000E+00 0. -1.
          1    1    5    5  503    0  0.41517762728E+02 -0.14603900776E+02 -0.60364940523E+02  0.74705586030E+02  0.00000000000E+00 0. -1.
         -2    1    5    5    0  503  0.22185472895E+03 -0.26728793791E+03 -0.68997614373E+03  0.77248264798E+03  0.00000000000E+00 0.  1.
         -1    1    6    6    0  502 -0.76355707434E+02  0.14190297170E+03 -0.11427688714E+03  0.19754962508E+03  0.00000000000E+00 0.  1.
<mgrwt>
<rscale>  0 0.10305354E+04</rscale>
<asrwt>0</asrwt>
<pdfrwt beam="1">  1        3 0.22114790E+00 0.10305354E+04</pdfrwt>
<pdfrwt beam="2">  1       -3 0.28415565E-01 0.10305354E+04</pdfrwt>
<totfact> 0.34445762E+00</totfact>
</mgrwt>
</event>
<event>
12    1  0.1114484E-007  0.2411795E+04  0.7818608E-02  0.8435101E-01
          1   -1    0    0  501    0  0.00000000000E+00  0.00000000000E+00  0.23927636506E+04  0.23927636506E+04  0.00000000000E+00 0. -1.
         -1   -1    0    0    0  501 -0.00000000000E+00 -0.00000000000E+00 -0.60774464856E+03  0.60774464856E+03  0.00000000000E+00 0.  1.
         23    2    1    2    0    0 -0.41838121181E+03 -0.75959522598E+03  0.71037120828E+02  0.87481720858E+03  0.90725576131E+02 0.  0.
        254    2    1    2    0    0  0.41838121181E+03  0.75959522598E+03  0.17139818813E+04  0.21256910906E+04  0.91038507114E+03 0.  0.
        -24    2    4    4    0    0 -0.21373068740E+03  0.53004254279E+03  0.71424559799E+03  0.91819959900E+03  0.79484749742E+02 0.  0.
         24    2    4    4    0    0  0.63211189922E+03  0.22955268319E+03  0.99973628326E+03  0.12074914916E+04  0.79392561311E+02 0.  0.
         11    1    3    3    0    0 -0.30665937641E+03 -0.47211355105E+03  0.31235992331E+02  0.56383230259E+03  0.00000000000E+00 0.  1.
        -11    1    3    3    0    0 -0.11172183541E+03 -0.28748167493E+03  0.39801128497E+02  0.31098490599E+03  0.00000000000E+00 0. -1.
          2    1    6    6  502    0  0.24990020702E+03  0.50461508947E+02  0.36464030282E+03  0.44492586775E+03  0.00000000000E+00 0. -1.
          1    1    5    5  503    0 -0.33348622541E+02  0.17955400185E+03  0.23763160067E+03  0.29970076384E+03  0.00000000000E+00 0. -1.
         -2    1    5    5    0  503 -0.18038206486E+03  0.35048854093E+03  0.47661399733E+03  0.61849883516E+03  0.00000000000E+00 0.  1.
         -1    1    6    6    0  502  0.38221169220E+03  0.17909117425E+03  0.63509598045E+03  0.76256562388E+03  0.00000000000E+00 0.  1.
<mgrwt>
<rscale>  0 0.24117954E+04</rscale>
<asrwt>0</asrwt>
<pdfrwt beam="1">  1        1 0.36811748E+00 0.24117954E+04</pdfrwt>
<pdfrwt beam="2">  1       -1 0.93499178E-01 0.24117954E+04</pdfrwt>
<totfact> 0.15960556E+00</totfact>
</mgrwt>
</event>
<event>
12    1  0.1114484E-007  0.3601470E+04  0.7818608E-02  0.8090155E-01
         -2   -1    0    0    0  501 -0.00000000000E+00  0.00000000000E+00  0.15084774076E+04  0.15084774076E+04  0.00000000000E+00 0.  1.
          2   -1    0    0  501    0  0.00000000000E+00 -0.00000000000E+00 -0.21496158732E+04  0.21496158732E+04  0.00000000000E+00 0. -1.
         23    2    1    2    0    0  0.66050896509E+03  0.53025725676E+03  0.11804557276E+04  0.14557830062E+04  0.91561918756E+02 0.  0.
        254    2    1    2    0    0 -0.66050896509E+03 -0.53025725676E+03 -0.18215941932E+04  0.22023102746E+04  0.90250777812E+03 0.  0.
        -24    2    4    4    0    0 -0.82040201638E+03 -0.33614161819E+03 -0.16880298546E+04  0.19083112109E+04  0.78461656209E+02 0.  0.
         24    2    4    4    0    0  0.15989305129E+03 -0.19411563856E+03 -0.13356433852E+03  0.29399906367E+03  0.73139236588E+02 0.  0.
         11    1    3    3    0    0  0.19932372921E+03  0.21438229003E+03  0.38945677525E+03  0.48720251959E+03  0.00000000000E+00 0. -1.
        -11    1    3    3    0    0  0.46118523588E+03  0.31587496673E+03  0.79099895235E+03  0.96858048660E+03  0.00000000000E+00 0.  1.
          4    1    6    6  502    0  0.70885917766E+02 -0.35053959854E+02 -0.31716935727E+02  0.85203036630E+02  0.00000000000E+00 0. -1.
          1    1    5    5  503    0 -0.50913443032E+03 -0.24611072533E+03 -0.10410088190E+04  0.11846888699E+04  0.00000000000E+00 0. -1.
         -2    1    5    5    0  503 -0.31126758605E+03 -0.90030892857E+02 -0.64702103565E+03  0.72362234099E+03  0.00000000000E+00 0.  1.
         -3    1    6    6    0  502  0.89007133521E+02 -0.15906167871E+03 -0.10184740279E+03  0.20879602704E+03  0.00000000000E+00 0.  1.
<mgrwt>
<rscale>  0 0.36014702E+04</rscale>
<asrwt>0</asrwt>
<pdfrwt beam="1">  1        2 0.33071013E+00 0.36014702E+04</pdfrwt>
<pdfrwt beam="2">  1       -2 0.23207345E+00 0.36014702E+04</pdfrwt>
<totfact> 0.37275163E-01</totfact>
</mgrwt>
</event>
<event>
12    1  0.1114484E-007  0.2038570E+04  0.7818608E-02  0.8588797E-01
         -2   -1    0    0    0  501 -0.00000000000E+00  0.00000000000E+00  0.23068753910E+04  0.23068753910E+04  0.00000000000E+00 0.  1.
          2   -1    0    0  501    0  0.00000000000E+00 -0.00000000000E+00 -0.45036763313E+03  0.45036763313E+03  0.00000000000E+00 0. -1.
         23    2    1    2    0    0  0.80370173920E+03 -0.12201410007E+03  0.73909703518E+03  0.11037794991E+04  0.10602277624E+03 0.  0.
        254    2    1    2    0    0 -0.80370173920E+03  0.12201410007E+03  0.11174107227E+04  0.16534635250E+04  0.90802586917E+03 0.  0.
        -24    2    4    4    0    0 -0.48682180956E+03  0.47058665922E+03  0.89868564451E+03  0.11279927947E+04  0.79275338285E+02 0.  0.
         24    2    4    4    0    0 -0.31687992965E+03 -0.34857255915E+03  0.21872507815E+03  0.52547073022E+03  0.79769102433E+02 0.  0.
         13    1    3    3    0    0  0.15401513822E+03  0.64584864137E+01  0.18071796017E+03  0.23753179993E+03  0.00000000000E+00 0. -1.
        -13    1    3    3    0    0  0.64968660098E+03 -0.12847258649E+03  0.55837907501E+03  0.86624769921E+03  0.00000000000E+00 0.  1.
          2    1    6    6  502    0 -0.33843730469E+02 -0.13510122235E+02  0.26734460652E+01  0.36538593415E+02  0.00000000000E+00 0. -1.
          3    1    5    5  503    0  0.10502222069E+01 -0.21319821478E+01  0.35281555581E+01  0.42539624122E+01  0.00000000000E+00 0. -1.
         -4    1    5    5    0  503 -0.48787203176E+03  0.47271864137E+03  0.89515748895E+03  0.11237388323E+04  0.00000000000E+00 0.  1.
         -1    1    6    6    0  502 -0.28303619918E+03 -0.33506243692E+03  0.21605163209E+03  0.48893213681E+03  0.00000000000E+00 0.  1.
<mgrwt>
<rscale>  0 0.20385701E+04</rscale>
<asrwt>0</asrwt>
<pdfrwt beam="1">  1        2 0.69287329E-01 0.20385701E+04</pdfrwt>
<pdfrwt beam="2">  1       -2 0.35490390E+00 0.20385701E+04</pdfrwt>
<totfact> 0.93438840E-01</totfact>
</mgrwt>
</event>
<event>
12    1  0.1114484E-007  0.1461381E+04  0.7818608E-02  0.8910548E-01
          2   -1    0    0  501    0  0.00000000000E+00  0.00000000000E+00  0.18735201789E+04  0.18735201789E+04  0.00000000000E+00 0. -1.
         -2   -1    0    0    0  501 -0.00000000000E+00 -0.00000000000E+00 -0.28497617876E+03  0.28497617876E+03  0.00000000000E+00 0.  1.
         23    2    1    2    0    0 -0.33317775454E+03  0.19378204039E+03  0.84520355486E+03  0.93462856549E+03  0.10296898066E+03 0.  0.
        254    2    1    2    0    0  0.33317775454E+03 -0.19378204039E+03  0.74334044533E+03  0.12238677922E+04  0.89260207252E+03 0.  0.
        -24    2    4    4    0    0  0.41892220055E+03  0.24966526716E+03  0.50621726724E+03  0.70749623770E+03  0.80414233613E+02 0.  0.
         24    2    4    4    0    0 -0.85744446011E+02 -0.44344730755E+03  0.23712317809E+03  0.51637155451E+03  0.80090924172E+02 0.  0.
         13    1    3    3    0    0 -0.30518774575E+03  0.15693832525E+03  0.66188448006E+03  0.74556036847E+03  0.00000000000E+00 0. -1.
        -13    1    3    3    0    0 -0.27990008786E+02  0.36843715138E+02  0.18331907481E+03  0.18906819702E+03  0.00000000000E+00 0.  1.
          4    1    6    6  502    0 -0.95172060934E+02 -0.31423045682E+03  0.18375125023E+03  0.37624861879E+03  0.00000000000E+00 0. -1.
          1    1    5    5  503    0  0.23183646882E+03  0.14461425212E+03  0.22617245534E+03  0.35470467962E+03  0.00000000000E+00 0. -1.
         -2    1    5    5    0  503  0.18708573172E+03  0.10505101504E+03  0.28004481191E+03  0.35279155808E+03  0.00000000000E+00 0.  1.
         -3    1    6    6    0  502  0.94276149235E+01 -0.12921685072E+03  0.53371927855E+02  0.14012293573E+03  0.00000000000E+00 0.  1.
<mgrwt>
<rscale>  0 0.14613810E+04</rscale>
<asrwt>0</asrwt>
<pdfrwt beam="1">  1        2 0.28823387E+00 0.14613810E+04</pdfrwt>
<pdfrwt beam="2">  1       -2 0.43842490E-01 0.14613810E+04</pdfrwt>
<totfact> 0.37554373E+01</totfact>
</mgrwt>
</event>
<event>
12    1  0.1114484E-007  0.1705242E+04  0.7818608E-02  0.8758380E-01
         -1   -1    0    0    0  501 -0.00000000000E+00  0.00000000000E+00  0.92739792260E+03  0.92739792260E+03  0.00000000000E+00 0.  1.
          1   -1    0    0  501    0  0.00000000000E+00 -0.00000000000E+00 -0.78387368682E+03  0.78387368682E+03  0.00000000000E+00 0. -1.
         23    2    1    2    0    0  0.38792097505E+03 -0.57543236924E+02 -0.41333395040E+03  0.57725530933E+03  0.92654360951E+02 0.  0.
        254    2    1    2    0    0 -0.38792097505E+03  0.57543236924E+02  0.55685818618E+03  0.11340163001E+04  0.90670172732E+03 0.  0.
        -24    2    4    4    0    0 -0.40218301757E+03 -0.14038075256E+03  0.73657109788E+03  0.85417459191E+03  0.74962096638E+02 0.  0.
         24    2    4    4    0    0  0.14262042524E+02  0.19792398948E+03 -0.17971291170E+03  0.27984170816E+03  0.81469868829E+02 0.  0.
         13    1    3    3    0    0  0.15481412522E+03 -0.46737113394E+02 -0.22657445789E+03  0.27836622659E+03  0.00000000000E+00 0. -1.
        -13    1    3    3    0    0  0.23310684983E+03 -0.10806123530E+02 -0.18675949251E+03  0.29888908275E+03  0.00000000000E+00 0.  1.
          4    1    6    6  502    0  0.23855421100E+02  0.95197112240E+02 -0.39573171229E+02  0.10581874681E+03  0.00000000000E+00 0. -1.
          1    1    5    5  503    0 -0.31418111068E+03 -0.10064592833E+03  0.50421423820E+03  0.60255404007E+03  0.00000000000E+00 0. -1.
         -2    1    5    5    0  503 -0.88001906892E+02 -0.39734824233E+02  0.23235685968E+03  0.25162055185E+03  0.00000000000E+00 0.  1.
         -3    1    6    6    0  502 -0.95933785760E+01  0.10272687724E+03 -0.14013974047E+03  0.17402296136E+03  0.00000000000E+00 0.  1.
<mgrwt>
<rscale>  0 0.17052423E+04</rscale>
<asrwt>0</asrwt>
<pdfrwt beam="1">  1        1 0.12059595E+00 0.17052423E+04</pdfrwt>
<pdfrwt beam="2">  1       -1 0.14267660E+00 0.17052423E+04</pdfrwt>
<totfact> 0.86659329E+00</totfact>
</mgrwt>
</event>
<event>
12    1  0.1114484E-007  0.1686216E+04  0.7818608E-02  0.8769265E-01
          1   -1    0    0  501    0  0.00000000000E+00  0.00000000000E+00  0.98455966786E+03  0.98455966786E+03  0.00000000000E+00 0. -1.
         -1   -1    0    0    0  501 -0.00000000000E+00 -0.00000000000E+00 -0.72197884272E+03  0.72197884272E+03  0.00000000000E+00 0.  1.
         23    2    1    2    0    0 -0.51808129031E+03 -0.79813209094E+02  0.38831958901E+03  0.65901008052E+03  0.93401345291E+02 0.  0.
        254    2    1    2    0    0  0.51808129031E+03  0.79813209094E+02 -0.12573876387E+03  0.10475284301E+04  0.89817993928E+03 0.  0.
        -24    2    4    4    0    0 -0.23916760799E+03 -0.41804421624E+02  0.37107136213E+02  0.25924035029E+03  0.82944953338E+02 0.  0.
         24    2    4    4    0    0  0.75724889830E+03  0.12161763072E+03 -0.16284590008E+03  0.78828807976E+03  0.81624551709E+02 0.  0.
         11    1    3    3    0    0 -0.24004225089E+03 -0.20698238352E+01  0.21512857560E+03  0.32234278404E+03  0.00000000000E+00 0.  1.
        -11    1    3    3    0    0 -0.27803903942E+03 -0.77743385258E+02  0.17319101341E+03  0.33666729648E+03  0.00000000000E+00 0. -1.
          2    1    6    6  502    0  0.98690684386E+02  0.31141485742E+02  0.16220284503E+01  0.10350011737E+03  0.00000000000E+00 0. -1.
          1    1    5    5  503    0 -0.41392493265E+02 -0.56722781931E+01 -0.25159802068E+02  0.48770163817E+02  0.00000000000E+00 0. -1.
         -2    1    5    5    0  503 -0.19777511472E+03 -0.36132143430E+02  0.62266938282E+02  0.21047018648E+03  0.00000000000E+00 0.  1.
         -1    1    6    6    0  502  0.65855821391E+03  0.90476144975E+02 -0.16446792853E+03  0.68478796239E+03  0.00000000000E+00 0.  1.
<mgrwt>
<rscale>  0 0.16862162E+04</rscale>
<asrwt>0</asrwt>
<pdfrwt beam="1">  1        1 0.15147072E+00 0.16862162E+04</pdfrwt>
<pdfrwt beam="2">  1       -1 0.11107367E+00 0.16862162E+04</pdfrwt>
<totfact> 0.11057888E+01</totfact>
</mgrwt>
</event>
<event>
12    1  0.1114484E-007  0.1540297E+04  0.7818608E-02  0.8858090E-01
         -1   -1    0    0    0  501 -0.00000000000E+00  0.00000000000E+00  0.62916534462E+03  0.62916534462E+03  0.00000000000E+00 0.  1.
          1   -1    0    0  501    0  0.00000000000E+00 -0.00000000000E+00 -0.94272286902E+03  0.94272286902E+03  0.00000000000E+00 0. -1.
         23    2    1    2    0    0 -0.61114171443E+02 -0.45142987393E+03  0.11392837582E+03  0.48122809235E+03  0.10524699058E+03 0.  0.
        254    2    1    2    0    0  0.61114171443E+02  0.45142987393E+03 -0.42748590022E+03  0.10906601213E+04  0.89401981648E+03 0.  0.
        -24    2    4    4    0    0  0.86798698954E+02  0.29901221291E+03  0.23966304465E+03  0.40101767193E+03  0.80215214405E+02 0.  0.
         24    2    4    4    0    0 -0.25684527511E+02  0.15241766102E+03 -0.66714894487E+03  0.68964244936E+03  0.81413481575E+02 0.  0.
         11    1    3    3    0    0 -0.78031762374E+02 -0.43731272412E+03  0.11594498516E+03  0.45910196493E+03  0.00000000000E+00 0. -1.
        -11    1    3    3    0    0  0.16917590931E+02 -0.14117149809E+02 -0.20166093407E+01  0.22126127426E+02  0.00000000000E+00 0.  1.
          4    1    6    6  502    0 -0.23956929806E+02  0.42970315041E+02 -0.93601837425E+02  0.10574349356E+03  0.00000000000E+00 0. -1.
          1    1    5    5  503    0  0.96111957483E+01 -0.25591291748E+01  0.10555357185E+02  0.14503095916E+02  0.00000000000E+00 0. -1.
         -2    1    5    5    0  503  0.77187503206E+02  0.30157134208E+03  0.22910768746E+03  0.38651457601E+03  0.00000000000E+00 0.  1.
         -3    1    6    6    0  502 -0.17275977051E+01  0.10944734598E+03 -0.57354710744E+03  0.58389895580E+03  0.00000000000E+00 0.  1.
<mgrwt>
<rscale>  0 0.15402968E+04</rscale>
<asrwt>0</asrwt>
<pdfrwt beam="1">  1        1 0.14503429E+00 0.15402968E+04</pdfrwt>
<pdfrwt beam="2">  1       -1 0.96794669E-01 0.15402968E+04</pdfrwt>
<totfact> 0.16631419E+01</totfact>
</mgrwt>
</event>
<event>
12    1  0.1114484E-007  0.1619372E+04  0.7818608E-02  0.8808734E-01
         -2   -1    0    0    0  501 -0.00000000000E+00  0.00000000000E+00  0.45079165448E+03  0.45079165448E+03  0.00000000000E+00 0.  1.
          2   -1    0    0  501    0  0.00000000000E+00 -0.00000000000E+00 -0.14543121365E+04  0.14543121365E+04  0.00000000000E+00 0. -1.
         23    2    1    2    0    0  0.23825590573E+03 -0.40902744127E+03 -0.66334542781E+03  0.82010775136E+03  0.92088234366E+02 0.  0.
        254    2    1    2    0    0 -0.23825590573E+03  0.40902744127E+03 -0.34017505416E+03  0.10849960396E+04  0.91511092995E+03 0.  0.
        -24    2    4    4    0    0 -0.44506250881E+03  0.28964689023E+03  0.12896368759E+03  0.55223463140E+03  0.79721375020E+02 0.  0.
         24    2    4    4    0    0  0.20680660308E+03  0.11938055105E+03 -0.46913874176E+03  0.53276140818E+03  0.81993121597E+02 0.  0.
         13    1    3    3    0    0  0.84551573558E+02 -0.13005972295E+03 -0.29383079154E+03  0.33226651077E+03  0.00000000000E+00 0.  1.
        -13    1    3    3    0    0  0.15370433217E+03 -0.27896771833E+03 -0.36951463627E+03  0.48784124059E+03  0.00000000000E+00 0. -1.
          2    1    6    6  502    0  0.10424609714E+03  0.69876948872E+02 -0.32938159377E+03  0.35248017117E+03  0.00000000000E+00 0. -1.
          3    1    5    5  503    0 -0.18121626313E+03  0.10866095671E+03  0.90913825447E+02  0.23002578376E+03  0.00000000000E+00 0. -1.
         -4    1    5    5    0  503 -0.26384624568E+03  0.18098593352E+03  0.38049862146E+02  0.32220884765E+03  0.00000000000E+00 0.  1.
         -1    1    6    6    0  502  0.10256050594E+03  0.49503602173E+02 -0.13975714798E+03  0.18028123701E+03  0.00000000000E+00 0.  1.
<mgrwt>
<rscale>  0 0.16193724E+04</rscale>
<asrwt>0</asrwt>
<pdfrwt beam="1">  1        2 0.22374033E+00 0.16193724E+04</pdfrwt>
<pdfrwt beam="2">  1       -2 0.69352562E-01 0.16193724E+04</pdfrwt>
<totfact> 0.24472971E+01</totfact>
</mgrwt>
</event>
<event>
12    1  0.1114484E-007  0.1178977E+04  0.7818608E-02  0.9131459E-01
          1   -1    0    0  501    0  0.00000000000E+00  0.00000000000E+00  0.56526937003E+03  0.56526937003E+03  0.00000000000E+00 0. -1.
         -1   -1    0    0    0  501 -0.00000000000E+00 -0.00000000000E+00 -0.61474567716E+03  0.61474567716E+03  0.00000000000E+00 0.  1.
         23    2    1    2    0    0 -0.30826371521E+02  0.48259802837E+02  0.21736957073E+03  0.24094563099E+03  0.86752481612E+02 0.  0.
        254    2    1    2    0    0  0.30826371521E+02 -0.48259802837E+02 -0.26684587786E+03  0.93906941620E+03  0.89853512573E+03 0.  0.
        -24    2    4    4    0    0  0.34871642258E+03  0.16937874174E+03  0.91480610242E+02  0.40625151455E+03  0.79870454438E+02 0.  0.
         24    2    4    4    0    0 -0.31789005106E+03 -0.21763854457E+03 -0.35832648810E+03  0.53281790165E+03  0.84121481228E+02 0.  0.
         13    1    3    3    0    0 -0.36228099320E+02  0.64932048466E+02  0.20838128975E+03  0.22124965089E+03  0.00000000000E+00 0. -1.
        -13    1    3    3    0    0  0.54017277988E+01 -0.16672245629E+02  0.89882809752E+01  0.19695980108E+02  0.00000000000E+00 0.  1.
          2    1    6    6  502    0 -0.22027584807E+03 -0.16672860408E+03 -0.30148693270E+03  0.40891838703E+03  0.00000000000E+00 0. -1.
          1    1    5    5  503    0  0.25772536544E+03  0.13331984829E+03  0.10254367718E+03  0.30775274437E+03  0.00000000000E+00 0. -1.
         -2    1    5    5    0  503  0.90991057143E+02  0.36058893446E+02 -0.11063066934E+02  0.98498770178E+02  0.00000000000E+00 0.  1.
         -1    1    6    6    0  502 -0.97614202993E+02 -0.50909940495E+02 -0.56839555398E+02  0.12389951463E+03  0.00000000000E+00 0.  1.
<mgrwt>
<rscale>  0 0.11789774E+04</rscale>
<asrwt>0</asrwt>
<pdfrwt beam="1">  1        1 0.86964518E-01 0.11789774E+04</pdfrwt>
<pdfrwt beam="2">  1       -1 0.94576258E-01 0.11789774E+04</pdfrwt>
<totfact> 0.40022160E+01</totfact>
</mgrwt>
</event>
<event>
12    1  0.1114484E-007  0.9548276E+03  0.7818608E-02  0.9359526E-01
         -1   -1    0    0    0  501 -0.00000000000E+00  0.00000000000E+00  0.14401481015E+03  0.14401481015E+03  0.00000000000E+00 0.  1.
          1   -1    0    0  501    0  0.00000000000E+00 -0.00000000000E+00 -0.15826423761E+04  0.15826423761E+04  0.00000000000E+00 0. -1.
         23    2    1    2    0    0 -0.28612247042E+02 -0.51982985256E+02 -0.88107797879E+02  0.13873934681E+03  0.89245340890E+02 0.  0.
        254    2    1    2    0    0  0.28612247042E+02  0.51982985256E+02 -0.13505197680E+04  0.15879178394E+04  0.83310175212E+03 0.  0.
        -24    2    4    4    0    0  0.36214723247E+03 -0.11538330615E+03 -0.98726153326E+03  0.10609743284E+04  0.80729580929E+02 0.  0.
         24    2    4    4    0    0 -0.33353498543E+03  0.16736629141E+03 -0.36325823477E+03  0.52694351095E+03  0.80348345333E+02 0.  0.
         11    1    3    3    0    0 -0.43181683965E+02  0.86581974777E+01 -0.44715893666E+02  0.62762515564E+02  0.00000000000E+00 0. -1.
        -11    1    3    3    0    0  0.14569436923E+02 -0.60641182734E+02 -0.43391904213E+02  0.75976831250E+02  0.00000000000E+00 0.  1.
          4    1    6    6  502    0  0.41249524673E+01  0.32077106887E+01 -0.10710188418E+02  0.11916911373E+02  0.00000000000E+00 0. -1.
          1    1    5    5  503    0  0.30494787866E+02 -0.73364585126E+01 -0.35829692101E+02  0.47618510545E+02  0.00000000000E+00 0. -1.
         -2    1    5    5    0  503  0.33165244460E+03 -0.10804684764E+03 -0.95143184116E+03  0.10133558179E+04  0.00000000000E+00 0.  1.
         -3    1    6    6    0  502 -0.33765993789E+03  0.16415858072E+03 -0.35254804635E+03  0.51502659957E+03  0.00000000000E+00 0.  1.
<mgrwt>
<rscale>  0 0.95482761E+03</rscale>
<asrwt>0</asrwt>
<pdfrwt beam="1">  1        1 0.24348345E+00 0.95482761E+03</pdfrwt>
<pdfrwt beam="2">  1       -1 0.22156124E-01 0.95482761E+03</pdfrwt>
<totfact> 0.99326577E+01</totfact>
</mgrwt>
</event>
<event>
12    1  0.1114484E-007  0.1829123E+04  0.7818608E-02  0.8690964E-01
          1   -1    0    0  501    0  0.00000000000E+00  0.00000000000E+00  0.18173060446E+04  0.18173060446E+04  0.00000000000E+00 0. -1.
         -1   -1    0    0    0  501 -0.00000000000E+00 -0.00000000000E+00 -0.46025402643E+03  0.46025402643E+03  0.00000000000E+00 0.  1.
         23    2    1    2    0    0  0.57664066258E+03  0.18991544575E+02  0.54791812916E+02  0.58625002355E+03  0.88384471765E+02 0.  0.
        254    2    1    2    0    0 -0.57664066258E+03 -0.18991544575E+02  0.13022602053E+04  0.16913100475E+04  0.91201584528E+03 0.  0.
        -24    2    4    4    0    0 -0.70457427955E+03 -0.10280025153E+03  0.13350837434E+04  0.15151733836E+04  0.79429045029E+02 0.  0.
         24    2    4    4    0    0  0.12793361697E+03  0.83808706958E+02 -0.32823538109E+02  0.17613666397E+03  0.80968080292E+02 0.  0.
         13    1    3    3    0    0  0.56865866856E+03  0.14948941868E+02  0.65137157153E+02  0.57257226743E+03  0.00000000000E+00 0.  1.
        -13    1    3    3    0    0  0.79819940235E+01  0.40426027073E+01 -0.10345344237E+02  0.13677756125E+02  0.00000000000E+00 0. -1.
          4    1    6    6  502    0  0.17841681593E+02  0.25929661870E+02  0.23814356270E+02  0.39468931216E+02  0.00000000000E+00 0. -1.
          3    1    5    5  503    0 -0.47139743804E+03 -0.93699209477E+02  0.83805652482E+03  0.96609203766E+03  0.00000000000E+00 0. -1.
         -4    1    5    5    0  503 -0.23317684151E+03 -0.91010420553E+01  0.49702721860E+03  0.54908134589E+03  0.00000000000E+00 0.  1.
         -3    1    6    6    0  502  0.11009193538E+03  0.57879045087E+02 -0.56637894379E+02  0.13666773275E+03  0.00000000000E+00 0.  1.
<mgrwt>
<rscale>  0 0.18291227E+04</rscale>
<asrwt>0</asrwt>
<pdfrwt beam="1">  1        1 0.27958554E+00 0.18291227E+04</pdfrwt>
<pdfrwt beam="2">  1       -1 0.70808313E-01 0.18291227E+04</pdfrwt>
<totfact> 0.75200664E+00</totfact>
</mgrwt>
</event>
<event>
12    1  0.1114484E-007  0.1466070E+04  0.7818608E-02  0.8907335E-01
          2   -1    0    0  501    0  0.00000000000E+00  0.00000000000E+00  0.18740557136E+04  0.18740557136E+04  0.00000000000E+00 0. -1.
         -2   -1    0    0    0  501 -0.00000000000E+00 -0.00000000000E+00 -0.28672605134E+03  0.28672605134E+03  0.00000000000E+00 0.  1.
         23    2    1    2    0    0  0.44249295427E+02  0.43921229891E+03  0.65020152230E+03  0.79140130491E+03  0.93212457033E+02 0.  0.
        254    2    1    2    0    0 -0.44249295427E+02 -0.43921229891E+03  0.93712813996E+03  0.13693804600E+04  0.89561612868E+03 0.  0.
        -24    2    4    4    0    0  0.27738877801E+02 -0.49803031432E+03  0.91521864749E+02  0.51488283103E+03  0.89019316059E+02 0.  0.
         24    2    4    4    0    0 -0.71988173228E+02  0.58818015415E+02  0.84560627521E+03  0.85449762900E+03  0.80463465483E+02 0.  0.
         11    1    3    3    0    0 -0.15646212906E+01 -0.33022526553E+01  0.10527841062E+00  0.36556799540E+01  0.00000000000E+00 0.  1.
        -11    1    3    3    0    0  0.45813916718E+02  0.44251455157E+03  0.65009624389E+03  0.78774562495E+03  0.00000000000E+00 0. -1.
          4    1    6    6  502    0  0.16570191138E+02  0.42745224747E+01  0.18035012532E+03  0.18116017907E+03  0.00000000000E+00 0. -1.
          3    1    5    5  503    0  0.42730770561E+02 -0.11063367081E+03  0.30119253659E+02  0.12236379085E+03  0.00000000000E+00 0. -1.
         -4    1    5    5    0  503 -0.14991892760E+02 -0.38739664351E+03  0.61402611090E+02  0.39251904018E+03  0.00000000000E+00 0.  1.
         -3    1    6    6    0  502 -0.88558364366E+02  0.54543492940E+02  0.66525614989E+03  0.67333744994E+03  0.00000000000E+00 0.  1.
<mgrwt>
<rscale>  0 0.14660704E+04</rscale>
<asrwt>0</asrwt>
<pdfrwt beam="1">  1        2 0.28831626E+00 0.14660704E+04</pdfrwt>
<pdfrwt beam="2">  1       -2 0.44111701E-01 0.14660704E+04</pdfrwt>
<totfact> 0.37060286E+01</totfact>
</mgrwt>
</event>
<event>
12    1  0.1114484E-007  0.1912886E+04  0.7818608E-02  0.8648469E-01
         -1   -1    0    0    0  501 -0.00000000000E+00  0.00000000000E+00  0.98073525223E+03  0.98073525223E+03  0.00000000000E+00 0.  1.
          1   -1    0    0  501    0  0.00000000000E+00 -0.00000000000E+00 -0.93275256591E+03  0.93275256591E+03  0.00000000000E+00 0. -1.
         23    2    1    2    0    0  0.20633208996E+03  0.69164406734E+03 -0.15365721351E+03  0.74367626214E+03  0.92192170899E+02 0.  0.
        254    2    1    2    0    0 -0.20633208996E+03 -0.69164406734E+03  0.20163989983E+03  0.11698115560E+04  0.89825162405E+03 0.  0.
        -24    2    4    4    0    0  0.57402847673E+02 -0.58126968305E+02  0.42862550924E+03  0.44275324390E+03  0.75078468635E+02 0.  0.
         24    2    4    4    0    0 -0.26373493763E+03 -0.63351709904E+03 -0.22698560941E+03  0.72705831210E+03  0.78684752099E+02 0.  0.
         13    1    3    3    0    0  0.13227832280E+03  0.40803568237E+03 -0.45944924967E+02  0.43139495697E+03  0.00000000000E+00 0.  1.
        -13    1    3    3    0    0  0.74053767164E+02  0.28360838497E+03 -0.10771228854E+03  0.31228130517E+03  0.00000000000E+00 0. -1.
          2    1    6    6  502    0 -0.11175074331E+03 -0.32821639643E+03 -0.80806759681E+02  0.35601118511E+03  0.00000000000E+00 0. -1.
          3    1    5    5  503    0  0.24391366165E+02  0.10862790848E+02  0.52153908534E+02  0.58591544985E+02  0.00000000000E+00 0. -1.
         -4    1    5    5    0  503  0.33011481509E+02 -0.68989759153E+02  0.37647160070E+03  0.38416169892E+03  0.00000000000E+00 0.  1.
         -3    1    6    6    0  502 -0.15198419432E+03 -0.30530070261E+03 -0.14617884973E+03  0.37104712698E+03  0.00000000000E+00 0.  1.
<mgrwt>
<rscale>  0 0.19128861E+04</rscale>
<asrwt>0</asrwt>
<pdfrwt beam="1">  1        1 0.14350039E+00 0.19128861E+04</pdfrwt>
<pdfrwt beam="2">  1       -1 0.15088235E+00 0.19128861E+04</pdfrwt>
<totfact> 0.54927236E+00</totfact>
</mgrwt>
</event>
<event>
12    1  0.1114484E-007  0.1970337E+04  0.7818608E-02  0.8620616E-01
         -1   -1    0    0    0  501 -0.00000000000E+00  0.00000000000E+00  0.45264461008E+03  0.45264461008E+03  0.00000000000E+00 0.  1.
          1   -1    0    0  501    0  0.00000000000E+00 -0.00000000000E+00 -0.21441926233E+04  0.21441926233E+04  0.00000000000E+00 0. -1.
         23    2    1    2    0    0 -0.27038988136E+03  0.65161109781E+03 -0.36948958273E+03  0.80155317652E+03  0.90869314478E+02 0.  0.
        254    2    1    2    0    0  0.27038988136E+03 -0.65161109781E+03 -0.13220584305E+04  0.17952840569E+04  0.98868530909E+03 0.  0.
        -24    2    4    4    0    0  0.38325362370E+03  0.12300881761E+03 -0.60053675949E+03  0.72767133573E+03  0.82744571123E+02 0.  0.
         24    2    4    4    0    0 -0.11286374233E+03 -0.77461991542E+03 -0.72152167102E+03  0.10676127211E+04  0.80182060957E+02 0.  0.
         13    1    3    3    0    0 -0.11593803581E+03  0.29182447507E+03 -0.21538242845E+03  0.38077912611E+03  0.00000000000E+00 0. -1.
        -13    1    3    3    0    0 -0.15445184555E+03  0.35978662275E+03 -0.15410715427E+03  0.42077405041E+03  0.00000000000E+00 0.  1.
          4    1    6    6  502    0 -0.11343296729E+03 -0.63000150583E+03 -0.55673008676E+03  0.84836155318E+03  0.00000000000E+00 0. -1.
          1    1    5    5  503    0  0.32793425438E+03  0.12266516953E+03 -0.47154915579E+03  0.58732122841E+03  0.00000000000E+00 0. -1.
         -2    1    5    5    0  503  0.55319369315E+02  0.34364807897E+00 -0.12898760370E+03  0.14035010732E+03  0.00000000000E+00 0.  1.
         -3    1    6    6    0  502  0.56922495517E+00 -0.14461840959E+03 -0.16479158426E+03  0.21925116796E+03  0.00000000000E+00 0.  1.
<mgrwt>
<rscale>  0 0.19703373E+04</rscale>
<asrwt>0</asrwt>
<pdfrwt beam="1">  1        1 0.32987579E+00 0.19703373E+04</pdfrwt>
<pdfrwt beam="2">  1       -1 0.69637633E-01 0.19703373E+04</pdfrwt>
<totfact> 0.46120886E+00</totfact>
</mgrwt>
</event>
<event>
12    1  0.1114484E-007  0.1696424E+04  0.7818608E-02  0.8763406E-01
         -1   -1    0    0    0  501 -0.00000000000E+00  0.00000000000E+00  0.34534753968E+03  0.34534753968E+03  0.00000000000E+00 0.  1.
          1   -1    0    0  501    0  0.00000000000E+00 -0.00000000000E+00 -0.20833039574E+04  0.20833039574E+04  0.00000000000E+00 0. -1.
         23    2    1    2    0    0  0.16317678716E+03 -0.44290439287E+03 -0.11824762467E+04  0.12762500789E+04  0.88165894041E+02 0.  0.
        254    2    1    2    0    0 -0.16317678716E+03  0.44290439287E+03 -0.55548017104E+03  0.11524014182E+04  0.89256923713E+03 0.  0.
        -24    2    4    4    0    0 -0.15905082729E+03  0.29855333005E+03 -0.79101763197E+03  0.86391667885E+03  0.78815463982E+02 0.  0.
         24    2    4    4    0    0 -0.41259598675E+01  0.14435106281E+03  0.23553746093E+03  0.28848473930E+03  0.83013832757E+02 0.  0.
         11    1    3    3    0    0  0.11824734161E+03 -0.34858435395E+03 -0.81616545255E+03  0.89533207892E+03  0.00000000000E+00 0. -1.
        -11    1    3    3    0    0  0.44929445546E+02 -0.94320038919E+02 -0.36631079410E+03  0.38091799996E+03  0.00000000000E+00 0.  1.
          4    1    6    6  502    0  0.35441061773E+01  0.28243005814E+02  0.32081172740E+01  0.28644721720E+02  0.00000000000E+00 0. -1.
          1    1    5    5  503    0  0.18080624051E+01  0.36376254468E+02 -0.12694460398E+03  0.13206601931E+03  0.00000000000E+00 0. -1.
         -2    1    5    5    0  503 -0.16085888970E+03  0.26217707559E+03 -0.66407302799E+03  0.73185065954E+03  0.00000000000E+00 0.  1.
         -3    1    6    6    0  502 -0.76700660448E+01  0.11610805700E+03  0.23232934366E+03  0.25984001758E+03  0.00000000000E+00 0.  1.
<mgrwt>
<rscale>  0 0.16964244E+04</rscale>
<asrwt>0</asrwt>
<pdfrwt beam="1">  1        1 0.32050829E+00 0.16964244E+04</pdfrwt>
<pdfrwt beam="2">  1       -1 0.53130392E-01 0.16964244E+04</pdfrwt>
<totfact> 0.88996558E+00</totfact>
</mgrwt>
</event>
<event>
12    1  0.1114484E-007  0.2298990E+04  0.7818608E-02  0.8478320E-01
          1   -1    0    0  501    0  0.00000000000E+00  0.00000000000E+00  0.95604004078E+03  0.95604004078E+03  0.00000000000E+00 0. -1.
         -1   -1    0    0    0  501 -0.00000000000E+00 -0.00000000000E+00 -0.13820950804E+04  0.13820950804E+04  0.00000000000E+00 0.  1.
         23    2    1    2    0    0 -0.53610938242E+02 -0.82644379983E+03  0.33946636965E+03  0.89931161723E+03  0.87409849437E+02 0.  0.
        254    2    1    2    0    0  0.53610938242E+02  0.82644379983E+03 -0.76552140929E+03  0.14388235040E+04  0.89348002804E+03 0.  0.
        -24    2    4    4    0    0 -0.20277186409E+03  0.64051340937E+03 -0.86407597443E+03  0.10974239424E+04  0.79612583037E+02 0.  0.
         24    2    4    4    0    0  0.25638280233E+03  0.18593039047E+03  0.98554565142E+02  0.34139956154E+03  0.80860416024E+02 0.  0.
         13    1    3    3    0    0 -0.34682110898E+02 -0.79639451224E+03  0.32799611686E+03  0.86199102119E+03  0.00000000000E+00 0. -1.
        -13    1    3    3    0    0 -0.18928827344E+02 -0.30049287597E+02  0.11470252789E+02  0.37320596039E+02  0.00000000000E+00 0.  1.
          2    1    6    6  502    0  0.69870530292E+02  0.96660624100E+02  0.24471828644E+02  0.12175400466E+03  0.00000000000E+00 0. -1.
          3    1    5    5  503    0 -0.10593607179E+03  0.27537978526E+03 -0.32237243678E+03  0.43701311814E+03  0.00000000000E+00 0. -1.
         -4    1    5    5    0  503 -0.96835792297E+02  0.36513362411E+03 -0.54170353766E+03  0.66041082429E+03  0.00000000000E+00 0.  1.
         -1    1    6    6    0  502  0.18651227204E+03  0.89269766366E+02  0.74082736498E+02  0.21964555687E+03  0.00000000000E+00 0.  1.
<mgrwt>
<rscale>  0 0.22989895E+04</rscale>
<asrwt>0</asrwt>
<pdfrwt beam="1">  1        1 0.14708308E+00 0.22989895E+04</pdfrwt>
<pdfrwt beam="2">  1       -1 0.21263001E+00 0.22989895E+04</pdfrwt>
<totfact> 0.18281190E+00</totfact>
</mgrwt>
</event>
<event>
12    1  0.1114484E-007  0.2759424E+04  0.7818608E-02  0.8315977E-01
          2   -1    0    0  501    0  0.00000000000E+00  0.00000000000E+00  0.23834360672E+04  0.23834360672E+04  0.00000000000E+00 0. -1.
         -2   -1    0    0    0  501 -0.00000000000E+00 -0.00000000000E+00 -0.79868116172E+03  0.79868116172E+03  0.00000000000E+00 0.  1.
         23    2    1    2    0    0  0.39456350814E+03  0.35479266064E+02 -0.63591834653E+03  0.75480162320E+03  0.91619903181E+02 0.  0.
        254    2    1    2    0    0 -0.39456350814E+03 -0.35479266064E+02  0.22206732520E+04  0.24273156057E+04  0.89639958572E+03 0.  0.
        -24    2    4    4    0    0  0.23207169226E+02  0.27766153193E+03  0.23664780005E+03  0.37423006754E+03  0.80071612750E+02 0.  0.
         24    2    4    4    0    0 -0.41777067736E+03 -0.31314079799E+03  0.19840254519E+04  0.20530855381E+04  0.78827246592E+02 0.  0.
         11    1    3    3    0    0  0.51319366571E+02 -0.12452188220E+02 -0.14131045212E+03  0.15085548799E+03  0.00000000000E+00 0. -1.
        -11    1    3    3    0    0  0.34324414156E+03  0.47931454284E+02 -0.49460789441E+03  0.60394613521E+03  0.00000000000E+00 0.  1.
          4    1    6    6  502    0 -0.22028845842E+03 -0.20870170366E+03  0.12095214676E+04  0.12470066506E+04  0.00000000000E+00 0. -1.
          1    1    5    5  503    0  0.69569898823E+01 -0.31118320482E+01  0.18096382775E+01  0.78331345970E+01  0.00000000000E+00 0. -1.
         -2    1    5    5    0  503  0.16250179344E+02  0.28077336398E+03  0.23483816177E+03  0.36639693295E+03  0.00000000000E+00 0.  1.
         -3    1    6    6    0  502 -0.19748221895E+03 -0.10443909433E+03  0.77450398429E+03  0.80607888752E+03  0.00000000000E+00 0.  1.
<mgrwt>
<rscale>  0 0.27594242E+04</rscale>
<asrwt>0</asrwt>
<pdfrwt beam="1">  1        2 0.36668247E+00 0.27594242E+04</pdfrwt>
<pdfrwt beam="2">  1       -2 0.12287403E+00 0.27594242E+04</pdfrwt>
<totfact> 0.17753987E+00</totfact>
</mgrwt>
</event>
<event>
12    1  0.1114484E-007  0.1536162E+04  0.7818608E-02  0.8860755E-01
          2   -1    0    0  501    0  0.00000000000E+00  0.00000000000E+00  0.19301148820E+04  0.19301148820E+04  0.00000000000E+00 0. -1.
         -2   -1    0    0    0  501 -0.00000000000E+00 -0.00000000000E+00 -0.30565475739E+03  0.30565475739E+03  0.00000000000E+00 0.  1.
         23    2    1    2    0    0 -0.32125963609E+03 -0.23210562717E+03  0.91831322167E+02  0.41769595819E+03  0.94636915691E+02 0.  0.
        254    2    1    2    0    0  0.32125963609E+03  0.23210562717E+03  0.15326288025E+04  0.18180736812E+04  0.89406939791E+03 0.  0.
        -24    2    4    4    0    0 -0.24903736960E+02  0.23020687861E+03 -0.52893859142E+00  0.24451373666E+03  0.78557523940E+02 0.  0.
         24    2    4    4    0    0  0.34616337305E+03  0.18987485648E+01  0.15331577411E+04  0.15735599446E+04  0.75402613324E+02 0.  0.
         11    1    3    3    0    0 -0.14808035050E+03 -0.51161183097E+02  0.43699470991E+02  0.16264962535E+03  0.00000000000E+00 0. -1.
        -11    1    3    3    0    0 -0.17317928558E+03 -0.18094444407E+03  0.48131851176E+02  0.25504633284E+03  0.00000000000E+00 0.  1.
          2    1    6    6  502    0  0.29044870318E+03  0.17024289094E+02  0.13681636493E+04  0.13987573224E+04  0.00000000000E+00 0. -1.
          1    1    5    5  503    0  0.10349044477E+02  0.81656988944E+02 -0.32556699578E+02  0.88515000155E+02  0.00000000000E+00 0. -1.
         -2    1    5    5    0  503 -0.35252781437E+02  0.14854988966E+03  0.32027760986E+02  0.15599873650E+03  0.00000000000E+00 0.  1.
         -1    1    6    6    0  502  0.55714669869E+02 -0.15125540530E+02  0.16499409178E+03  0.17480262222E+03  0.00000000000E+00 0.  1.
<mgrwt>
<rscale>  0 0.15361625E+04</rscale>
<asrwt>0</asrwt>
<pdfrwt beam="1">  1        2 0.29694074E+00 0.15361625E+04</pdfrwt>
<pdfrwt beam="2">  1       -2 0.47023810E-01 0.15361625E+04</pdfrwt>
<totfact> 0.30184524E+01</totfact>
</mgrwt>
</event>
<event>
12    1  0.1114484E-007  0.2298207E+04  0.7818608E-02  0.8478628E-01
          2   -1    0    0  501    0  0.00000000000E+00  0.00000000000E+00  0.79999082246E+03  0.79999082246E+03  0.00000000000E+00 0.  1.
         -2   -1    0    0    0  501 -0.00000000000E+00 -0.00000000000E+00 -0.16505681786E+04  0.16505681786E+04  0.00000000000E+00 0. -1.
         23    2    1    2    0    0  0.30970064231E+03  0.15297033311E+03  0.60637290740E+03  0.70373284250E+03  0.90760124118E+02 0.  0.
        254    2    1    2    0    0 -0.30970064231E+03 -0.15297033311E+03 -0.14569502636E+04  0.17468261586E+04  0.89965723874E+03 0.  0.
        -24    2    4    4    0    0  0.45111843619E+02  0.31606829437E+03 -0.78359680128E+03  0.84945601651E+03  0.74948861735E+02 0.  0.
         24    2    4    4    0    0 -0.35481248593E+03 -0.46903862748E+03 -0.67335346230E+03  0.89737014210E+03  0.77324979752E+02 0.  0.
         11    1    3    3    0    0  0.93634403742E+02  0.75432825673E+02  0.14469756146E+03  0.18813531578E+03  0.00000000000E+00 0. -1.
        -11    1    3    3    0    0  0.21606623857E+03  0.77537507436E+02  0.46167534594E+03  0.51559752672E+03  0.00000000000E+00 0.  1.
          4    1    6    6  502    0 -0.91673737518E+02 -0.74223571260E+02 -0.11642305293E+03  0.16573333984E+03  0.00000000000E+00 0. -1.
          1    1    5    5  503    0  0.52569123136E+02  0.11452237942E+03 -0.31776691505E+03  0.34184016791E+03  0.00000000000E+00 0. -1.
         -2    1    5    5    0  503 -0.74572795173E+01  0.20154591495E+03 -0.46582988623E+03  0.50761584860E+03  0.00000000000E+00 0.  1.
         -3    1    6    6    0  502 -0.26313874841E+03 -0.39481505622E+03 -0.55693040937E+03  0.73163680225E+03  0.00000000000E+00 0.  1.
<mgrwt>
<rscale>  0 0.22982075E+04</rscale>
<asrwt>0</asrwt>
<pdfrwt beam="1">  1        2 0.12307551E+00 0.22982075E+04</pdfrwt>
<pdfrwt beam="2">  1       -2 0.25393356E+00 0.22982075E+04</pdfrwt>
<totfact> 0.18981736E+00</totfact>
</mgrwt>
</event>
<event>
12    1  0.1114484E-007  0.1736936E+04  0.7818608E-02  0.8740574E-01
          1   -1    0    0  501    0  0.00000000000E+00  0.00000000000E+00  0.14596642904E+04  0.14596642904E+04  0.00000000000E+00 0. -1.
         -1   -1    0    0    0  501 -0.00000000000E+00 -0.00000000000E+00 -0.51671910571E+03  0.51671910571E+03  0.00000000000E+00 0.  1.
         23    2    1    2    0    0 -0.20303599265E+03 -0.17587304184E+02 -0.33346653896E+03  0.40070669911E+03  0.88504228870E+02 0.  0.
        254    2    1    2    0    0  0.20303599265E+03  0.17587304184E+02  0.12764117236E+04  0.15756766970E+04  0.90110889332E+03 0.  0.
        -24    2    4    4    0    0  0.12855481149E+03  0.44288403185E+03  0.80895459663E+03  0.93439197296E+03  0.77512673236E+02 0.  0.
         24    2    4    4    0    0  0.74481181167E+02 -0.42529672766E+03  0.46745712701E+03  0.64128472403E+03  0.79405155824E+02 0.  0.
         11    1    3    3    0    0 -0.12047232912E+03  0.15621623119E+02 -0.12632972981E+03  0.17526214031E+03  0.00000000000E+00 0. -1.
        -11    1    3    3    0    0 -0.82563663532E+02 -0.33208927303E+02 -0.20713680915E+03  0.22544455880E+03  0.00000000000E+00 0.  1.
          4    1    6    6  502    0  0.75719728637E+02 -0.20458864119E+03  0.22406029516E+03  0.31271873189E+03  0.00000000000E+00 0. -1.
          1    1    5    5  503    0  0.97648677274E+02  0.41069063060E+03  0.74717229142E+03  0.85817742413E+03  0.00000000000E+00 0. -1.
         -2    1    5    5    0  503  0.30906134213E+02  0.32193401252E+02  0.61782305210E+02  0.76214548829E+02  0.00000000000E+00 0.  1.
         -3    1    6    6    0  502 -0.12385474700E+01 -0.22070808647E+03  0.24339683185E+03  0.32856599213E+03  0.00000000000E+00 0.  1.
<mgrwt>
<rscale>  0 0.17369357E+04</rscale>
<asrwt>0</asrwt>
<pdfrwt beam="1">  1        1 0.22456374E+00 0.17369357E+04</pdfrwt>
<pdfrwt beam="2">  1       -1 0.79495248E-01 0.17369357E+04</pdfrwt>
<totfact> 0.10466483E+01</totfact>
</mgrwt>
</event>
<event>
12    1  0.1114484E-007  0.1247940E+04  0.7818608E-02  0.9071899E-01
          1   -1    0    0  501    0  0.00000000000E+00  0.00000000000E+00  0.38198314941E+03  0.38198314941E+03  0.00000000000E+00 0. -1.
         -1   -1    0    0    0  501 -0.00000000000E+00 -0.00000000000E+00 -0.10192560299E+04  0.10192560299E+04  0.00000000000E+00 0.  1.
         23    2    1    2    0    0 -0.35984842265E+02  0.24437775453E+03 -0.37937736194E+03  0.46198491519E+03  0.92127538391E+02 0.  0.
        254    2    1    2    0    0  0.35984842265E+02 -0.24437775453E+03 -0.25789551860E+03  0.93925426416E+03  0.86871921727E+03 0.  0.
        -24    2    4    4    0    0 -0.15230161541E+03 -0.45214591547E+03 -0.38816943721E+03  0.62021009159E+03  0.79707808877E+02 0.  0.
         24    2    4    4    0    0  0.18828645768E+03  0.20776816094E+03  0.13027391861E+03  0.31904417257E+03  0.78730498141E+02 0.  0.
         13    1    3    3    0    0 -0.63097874069E+02  0.18382138950E+03 -0.31081362479E+03  0.36657435031E+03  0.00000000000E+00 0.  1.
        -13    1    3    3    0    0  0.27113031804E+02  0.60556365024E+02 -0.68563737151E+02  0.95410564880E+02  0.00000000000E+00 0. -1.
          2    1    6    6  502    0  0.62329220700E+02  0.12735119702E+03  0.64734692439E+02  0.15586481174E+03  0.00000000000E+00 0. -1.
          1    1    5    5  503    0 -0.12380479050E+03 -0.40345979265E+03 -0.30926410144E+03  0.52321287721E+03  0.00000000000E+00 0. -1.
         -2    1    5    5    0  503 -0.28496824919E+02 -0.48686122814E+02 -0.78905335766E+02  0.96997214380E+02  0.00000000000E+00 0.  1.
         -1    1    6    6    0  502  0.12595723698E+03  0.80416963926E+02  0.65539226167E+02  0.16317936083E+03  0.00000000000E+00 0.  1.
<mgrwt>
<rscale>  0 0.12479401E+04</rscale>
<asrwt>0</asrwt>
<pdfrwt beam="1">  1        1 0.58766640E-01 0.12479401E+04</pdfrwt>
<pdfrwt beam="2">  1       -1 0.15680862E+00 0.12479401E+04</pdfrwt>
<totfact> 0.19447437E+01</totfact>
</mgrwt>
</event>
<event>
12    1  0.1114484E-007  0.1398124E+04  0.7818608E-02  0.8955178E-01
          1   -1    0    0  501    0  0.00000000000E+00  0.00000000000E+00  0.96065472229E+03  0.96065472229E+03  0.00000000000E+00 0. -1.
         -1   -1    0    0    0  501 -0.00000000000E+00 -0.00000000000E+00 -0.50870271036E+03  0.50870271036E+03  0.00000000000E+00 0.  1.
         23    2    1    2    0    0 -0.11508560713E+03 -0.49302413928E+02 -0.28237766771E+03  0.32208363689E+03  0.91243065185E+02 0.  0.
        254    2    1    2    0    0  0.11508560713E+03  0.49302413928E+02  0.73432967964E+03  0.11472737958E+04  0.87253748289E+03 0.  0.
        -24    2    4    4    0    0  0.37724743713E+03 -0.20788857323E+03  0.17139323136E+03  0.47047942299E+03  0.80261821516E+02 0.  0.
         24    2    4    4    0    0 -0.26216183000E+03  0.25719098716E+03  0.56293644828E+03  0.67679437277E+03  0.79228462253E+02 0.  0.
         13    1    3    3    0    0  0.80838360298E+01  0.10693488511E+02 -0.55088274166E+02  0.56695829230E+02  0.00000000000E+00 0. -1.
        -13    1    3    3    0    0 -0.12316944316E+03 -0.59995902439E+02 -0.22728939355E+03  0.26538780766E+03  0.00000000000E+00 0.  1.
          2    1    6    6  502    0 -0.22489001585E+03  0.19452811596E+03  0.49320912695E+03  0.57590967177E+03  0.00000000000E+00 0. -1.
          1    1    5    5  503    0  0.35321380462E+03 -0.19715077885E+03  0.18004710710E+03  0.44277012337E+03  0.00000000000E+00 0. -1.
         -2    1    5    5    0  503  0.24033632516E+02 -0.10737794381E+02 -0.86538757353E+01  0.27709299618E+02  0.00000000000E+00 0.  1.
         -1    1    6    6    0  502 -0.37271814157E+02  0.62662871204E+02  0.69727321326E+02  0.10088470101E+03  0.00000000000E+00 0.  1.
<mgrwt>
<rscale>  0 0.13981240E+04</rscale>
<asrwt>0</asrwt>
<pdfrwt beam="1">  1        1 0.14779303E+00 0.13981240E+04</pdfrwt>
<pdfrwt beam="2">  1       -1 0.78261956E-01 0.13981240E+04</pdfrwt>
<totfact> 0.25913436E+01</totfact>
</mgrwt>
</event>
<event>
12    1  0.1114484E-007  0.1294768E+04  0.7818608E-02  0.9033724E-01
         -3   -1    0    0    0  501 -0.00000000000E+00  0.00000000000E+00  0.26674415146E+03  0.26674415146E+03  0.00000000000E+00 0.  1.
          3   -1    0    0  501    0  0.00000000000E+00 -0.00000000000E+00 -0.15711919819E+04  0.15711919819E+04  0.00000000000E+00 0. -1.
         23    2    1    2    0    0  0.35011472033E+03  0.44925830786E+01 -0.44416257106E+03  0.57273185905E+03  0.90226892553E+02 0.  0.
        254    2    1    2    0    0 -0.35011472033E+03 -0.44925830786E+01 -0.86028525937E+03  0.12652042743E+04  0.85909872979E+03 0.  0.
        -24    2    4    4    0    0 -0.11840937680E+03 -0.39621743037E+03 -0.21732304350E+03  0.47361802426E+03  0.77946744774E+02 0.  0.
         24    2    4    4    0    0 -0.23170534353E+03  0.39172484729E+03 -0.64296221587E+03  0.79158625004E+03  0.77927261053E+02 0.  0.
         13    1    3    3    0    0  0.98927595197E+02  0.16668950318E+02 -0.19183748964E+03  0.21648590122E+03  0.00000000000E+00 0. -1.
        -13    1    3    3    0    0  0.25118712514E+03 -0.12176367239E+02 -0.25232508142E+03  0.35624595783E+03  0.00000000000E+00 0.  1.
          2    1    6    6  502    0 -0.19998294944E+03  0.37667389319E+03 -0.59944744402E+03  0.73567223681E+03  0.00000000000E+00 0. -1.
          3    1    5    5  503    0 -0.79226767770E+02 -0.30201339674E+03 -0.19816097196E+03  0.36980635926E+03  0.00000000000E+00 0. -1.
         -4    1    5    5    0  503 -0.39182609032E+02 -0.94204033638E+02 -0.19162071531E+02  0.10381166500E+03  0.00000000000E+00 0.  1.
         -3    1    6    6    0  502 -0.31722394095E+02  0.15050954108E+02 -0.43514771846E+02  0.55914013230E+02  0.00000000000E+00 0.  1.
<mgrwt>
<rscale>  0 0.12947684E+04</rscale>
<asrwt>0</asrwt>
<pdfrwt beam="1">  1        3 0.24172184E+00 0.12947684E+04</pdfrwt>
<pdfrwt beam="2">  1       -3 0.41037563E-01 0.12947684E+04</pdfrwt>
<totfact> 0.12566752E+00</totfact>
</mgrwt>
</event>
<event>
12    1  0.1114484E-007  0.1747753E+04  0.7818608E-02  0.8734588E-01
         -2   -1    0    0    0  501 -0.00000000000E+00  0.00000000000E+00  0.57608411526E+03  0.57608411526E+03  0.00000000000E+00 0.  1.
          2   -1    0    0  501    0  0.00000000000E+00 -0.00000000000E+00 -0.13256053662E+04  0.13256053662E+04  0.00000000000E+00 0. -1.
         23    2    1    2    0    0  0.14211064940E+03  0.22458329494E+03 -0.91808234221E+03  0.96018179650E+03  0.91873838544E+02 0.  0.
        254    2    1    2    0    0 -0.14211064940E+03 -0.22458329494E+03  0.16856109132E+03  0.94150768491E+03  0.88735043033E+03 0.  0.
        -24    2    4    4    0    0 -0.13022232949E+03 -0.30406458674E+02 -0.34975081579E+03  0.38199495041E+03  0.75578443792E+02 0.  0.
         24    2    4    4    0    0 -0.11888319908E+02 -0.19417683626E+03  0.51831190711E+03  0.55951273450E+03  0.81001797069E+02 0.  0.
         11    1    3    3    0    0  0.12308867420E+03  0.20006532095E+03 -0.88125382822E+03  0.91202262259E+03  0.00000000000E+00 0. -1.
        -11    1    3    3    0    0  0.19021975198E+02  0.24517973986E+02 -0.36828513997E+02  0.48159173914E+02  0.00000000000E+00 0.  1.
          2    1    6    6  502    0 -0.46183577396E+02 -0.97975641982E+02  0.25224200360E+03  0.27451443974E+03  0.00000000000E+00 0. -1.
          3    1    5    5  503    0 -0.11392694724E+03 -0.33166320216E+02 -0.20946015947E+03  0.24073411164E+03  0.00000000000E+00 0. -1.
         -4    1    5    5    0  503 -0.16295382254E+02  0.27598615418E+01 -0.14029065632E+03  0.14126083877E+03  0.00000000000E+00 0.  1.
         -1    1    6    6    0  502  0.34295257488E+02 -0.96201194280E+02  0.26606990351E+03  0.28499829477E+03  0.00000000000E+00 0.  1.
<mgrwt>
<rscale>  0 0.17477531E+04</rscale>
<asrwt>0</asrwt>
<pdfrwt beam="1">  1        2 0.20393929E+00 0.17477531E+04</pdfrwt>
<pdfrwt beam="2">  1       -2 0.88628325E-01 0.17477531E+04</pdfrwt>
<totfact> 0.16581452E+01</totfact>
</mgrwt>
</event>
<event>
12    1  0.1114484E-007  0.1734198E+04  0.7818608E-02  0.8742097E-01
         -1   -1    0    0    0  501 -0.00000000000E+00  0.00000000000E+00  0.63661594519E+03  0.63661594519E+03  0.00000000000E+00 0.  1.
          1   -1    0    0  501    0  0.00000000000E+00 -0.00000000000E+00 -0.11810264791E+04  0.11810264791E+04  0.00000000000E+00 0. -1.
         23    2    1    2    0    0 -0.53236723534E+03 -0.22140711274E+03  0.66056079983E+02  0.58783529787E+03  0.93546506541E+02 0.  0.
        254    2    1    2    0    0  0.53236723534E+03  0.22140711274E+03 -0.61046661394E+03  0.12298071265E+04  0.89850993247E+03 0.  0.
        -24    2    4    4    0    0  0.79412232021E+02  0.75654634699E+02  0.22528690299E+03  0.26410774240E+03  0.83479246458E+02 0.  0.
         24    2    4    4    0    0  0.45295500331E+03  0.14575247804E+03 -0.83575351693E+03  0.96569938406E+03  0.87631840354E+02 0.  0.
         11    1    3    3    0    0 -0.45120796824E+03 -0.15038005599E+03  0.42995992836E+02  0.47754732461E+03  0.00000000000E+00 0.  1.
        -11    1    3    3    0    0 -0.81159267091E+02 -0.71027056746E+02  0.23060087147E+02  0.11028797325E+03  0.00000000000E+00 0. -1.
          4    1    6    6  502    0  0.30399895228E+03  0.12622247433E+03 -0.51038154917E+03  0.60731935729E+03  0.00000000000E+00 0. -1.
          3    1    5    5  503    0  0.89228292750E+02  0.40288882808E+02  0.18695310341E+03  0.21103635985E+03  0.00000000000E+00 0. -1.
         -4    1    5    5    0  503 -0.98160607287E+01  0.35365751891E+02  0.38333799584E+02  0.53071382549E+02  0.00000000000E+00 0.  1.
         -3    1    6    6    0  502  0.14895605104E+03  0.19530003711E+02 -0.32537196776E+03  0.35838002677E+03  0.00000000000E+00 0.  1.
<mgrwt>
<rscale>  0 0.17341976E+04</rscale>
<asrwt>0</asrwt>
<pdfrwt beam="1">  1        1 0.18169638E+00 0.17341976E+04</pdfrwt>
<pdfrwt beam="2">  1       -1 0.97940916E-01 0.17341976E+04</pdfrwt>
<totfact> 0.10465350E+01</totfact>
</mgrwt>
</event>
<event>
12    1  0.1114484E-007  0.1722641E+04  0.7818608E-02  0.8748556E-01
         -1   -1    0    0    0  501 -0.00000000000E+00  0.00000000000E+00  0.85965359029E+03  0.85965359029E+03  0.00000000000E+00 0.  1.
          1   -1    0    0  501    0  0.00000000000E+00 -0.00000000000E+00 -0.86299073097E+03  0.86299073097E+03  0.00000000000E+00 0. -1.
         23    2    1    2    0    0  0.18351583815E+02  0.16069777548E+03 -0.55162572764E+03  0.58371290956E+03  0.10133736585E+03 0.  0.
        254    2    1    2    0    0 -0.18351583815E+02 -0.16069777548E+03  0.54828858696E+03  0.11389314117E+04  0.98508062121E+03 0.  0.
        -24    2    4    4    0    0  0.11115305663E+02  0.31569890243E+03  0.56831332523E+03  0.65481411698E+03  0.77538023925E+02 0.  0.
         24    2    4    4    0    0 -0.29466889478E+02 -0.47639667791E+03 -0.20024738263E+02  0.48411729471E+03  0.78399442587E+02 0.  0.
         13    1    3    3    0    0  0.83706633852E+01  0.16398603211E+03 -0.54879051820E+03  0.57282852548E+03  0.00000000000E+00 0. -1.
        -13    1    3    3    0    0  0.99809204298E+01 -0.32882566269E+01 -0.28352094383E+01  0.10884384081E+02  0.00000000000E+00 0.  1.
          2    1    6    6  502    0 -0.34423270945E+02 -0.41578780009E+03  0.77065121212E+01  0.41728149566E+03  0.00000000000E+00 0. -1.
          1    1    5    5  503    0  0.17842424832E+02  0.31647500855E+03  0.56340071316E+03  0.64644810058E+03  0.00000000000E+00 0. -1.
         -2    1    5    5    0  503 -0.67271191687E+01 -0.77610612490E+00  0.49126120699E+01  0.83660163983E+01  0.00000000000E+00 0.  1.
         -1    1    6    6    0  502  0.49563814674E+01 -0.60608877818E+02 -0.27731250384E+02  0.66835799056E+02  0.00000000000E+00 0.  1.
<mgrwt>
<rscale>  0 0.17226411E+04</rscale>
<asrwt>0</asrwt>
<pdfrwt beam="1">  1        1 0.13276781E+00 0.17226411E+04</pdfrwt>
<pdfrwt beam="2">  1       -1 0.13225440E+00 0.17226411E+04</pdfrwt>
<totfact> 0.90071765E+00</totfact>
</mgrwt>
</event>
<event>
12    1  0.1114484E-007  0.1322161E+04  0.7818608E-02  0.9012173E-01
          2   -1    0    0  501    0  0.00000000000E+00  0.00000000000E+00  0.53656155288E+03  0.53656155288E+03  0.00000000000E+00 0. -1.
         -2   -1    0    0    0  501 -0.00000000000E+00 -0.00000000000E+00 -0.81449678205E+03  0.81449678205E+03  0.00000000000E+00 0.  1.
         23    2    1    2    0    0 -0.60863069499E+02  0.89416448597E+02  0.26201528038E+03  0.29710087830E+03  0.88979268511E+02 0.  0.
        254    2    1    2    0    0  0.60863069499E+02 -0.89416448597E+02 -0.53995050955E+03  0.10539574566E+04  0.89865463506E+03 0.  0.
        -24    2    4    4    0    0 -0.31641963502E+03 -0.76565837883E+01  0.64628302060E+02  0.33290331875E+03  0.80422593256E+02 0.  0.
         24    2    4    4    0    0  0.37728270452E+03 -0.81759864809E+02 -0.60457881161E+03  0.72105413788E+03  0.73325409578E+02 0.  0.
         11    1    3    3    0    0 -0.12292427872E+02  0.88090997629E+02  0.19497455630E+03  0.21430400195E+03  0.00000000000E+00 0. -1.
        -11    1    3    3    0    0 -0.48570641627E+02  0.13254509685E+01  0.67040724075E+02  0.82796876347E+02  0.00000000000E+00 0.  1.
          2    1    6    6  502    0  0.20556422156E+03 -0.61652926490E+02 -0.27449495405E+03  0.34843250756E+03  0.00000000000E+00 0. -1.
          3    1    5    5  503    0 -0.89900211613E+02  0.33805954865E+02  0.13217502147E+02  0.96951498160E+02  0.00000000000E+00 0. -1.
         -4    1    5    5    0  503 -0.22651942341E+03 -0.41462538653E+02  0.51410799913E+02  0.23595182059E+03  0.00000000000E+00 0.  1.
         -1    1    6    6    0  502  0.17171848296E+03 -0.20106938319E+02 -0.33008385757E+03  0.37262163032E+03  0.00000000000E+00 0.  1.
<mgrwt>
<rscale>  0 0.13221613E+04</rscale>
<asrwt>0</asrwt>
<pdfrwt beam="1">  1        2 0.82547932E-01 0.13221613E+04</pdfrwt>
<pdfrwt beam="2">  1       -2 0.12530720E+00 0.13221613E+04</pdfrwt>
<totfact> 0.26427607E+01</totfact>
</mgrwt>
</event>
<event>
12    1  0.1114484E-007  0.2934730E+04  0.7818608E-02  0.8262619E-01
          2   -1    0    0  501    0  0.00000000000E+00  0.00000000000E+00  0.14122574260E+04  0.14122574260E+04  0.00000000000E+00 0. -1.
         -2   -1    0    0    0  501 -0.00000000000E+00 -0.00000000000E+00 -0.15246229584E+04  0.15246229584E+04  0.00000000000E+00 0.  1.
         23    2    1    2    0    0 -0.82676939767E+03  0.84119357905E+03  0.56110772724E+03  0.13094148142E+04  0.92579693960E+02 0.  0.
        254    2    1    2    0    0  0.82676939767E+03 -0.84119357905E+03 -0.67347325963E+03  0.16274655702E+04  0.89661790990E+03 0.  0.
        -24    2    4    4    0    0  0.50678971566E+03 -0.96658977513E+03 -0.35036006290E+03  0.11490977158E+04  0.80881255846E+02 0.  0.
         24    2    4    4    0    0  0.31997968201E+03  0.12539619608E+03 -0.32311319673E+03  0.47836785436E+03  0.79513918882E+02 0.  0.
         11    1    3    3    0    0 -0.18879424090E+03  0.18748081787E+03  0.84777100818E+02  0.27924806050E+03  0.00000000000E+00 0. -1.
        -11    1    3    3    0    0 -0.63797515677E+03  0.65371276117E+03  0.47633062642E+03  0.10301667537E+04  0.00000000000E+00 0.  1.
          4    1    6    6  502    0  0.25094046347E+03  0.12978494408E+03 -0.27370563783E+03  0.39335737453E+03  0.00000000000E+00 0. -1.
          3    1    5    5  503    0  0.48196368174E+03 -0.89616959308E+03 -0.30747753711E+03  0.10629917055E+04  0.00000000000E+00 0. -1.
         -4    1    5    5    0  503  0.24826033921E+02 -0.70420182047E+02 -0.42882525787E+02  0.86106010346E+02  0.00000000000E+00 0.  1.
         -3    1    6    6    0  502  0.69039218537E+02 -0.43887479927E+01 -0.49407558902E+02  0.85010479835E+02  0.00000000000E+00 0.  1.
<mgrwt>
<rscale>  0 0.29347300E+04</rscale>
<asrwt>0</asrwt>
<pdfrwt beam="1">  1        2 0.21727037E+00 0.29347300E+04</pdfrwt>
<pdfrwt beam="2">  1       -2 0.23455738E+00 0.29347300E+04</pdfrwt>
<totfact> 0.98125709E-01</totfact>
</mgrwt>
</event>
<event>
12    1  0.1114484E-007  0.1549071E+04  0.7818608E-02  0.8852461E-01
          2   -1    0    0  501    0  0.00000000000E+00  0.00000000000E+00  0.12597372323E+04  0.12597372323E+04  0.00000000000E+00 0. -1.
         -2   -1    0    0    0  501 -0.00000000000E+00 -0.00000000000E+00 -0.47621451186E+03  0.47621451186E+03  0.00000000000E+00 0.  1.
         23    2    1    2    0    0 -0.61249295304E+02 -0.17991534692E+03 -0.26663494393E+03  0.33999533878E+03  0.91551236119E+02 0.  0.
        254    2    1    2    0    0  0.61249295304E+02  0.17991534692E+03  0.10501576644E+04  0.13959564054E+04  0.89985674276E+03 0.  0.
        -24    2    4    4    0    0  0.31587258902E+03  0.16730464261E+03  0.10670534357E+04  0.11280584690E+04  0.78399865466E+02 0.  0.
         24    2    4    4    0    0 -0.25462329372E+03  0.12610704305E+02 -0.16895771336E+02  0.26789793638E+03  0.80571618221E+02 0.  0.
         13    1    3    3    0    0 -0.55675333829E+02 -0.39657177964E+02 -0.11147292196E+03  0.13076179447E+03  0.00000000000E+00 0. -1.
        -13    1    3    3    0    0 -0.55739614752E+01 -0.14025816895E+03 -0.15516202197E+03  0.20923354431E+03  0.00000000000E+00 0.  1.
          4    1    6    6  502    0 -0.88973052422E+02  0.43178212250E+02 -0.46317673998E+01  0.99005127846E+02  0.00000000000E+00 0. -1.
          1    1    5    5  503    0  0.49560311925E+00  0.84277036472E+01  0.78101749666E+01  0.11500897540E+02  0.00000000000E+00 0. -1.
         -2    1    5    5    0  503  0.31537698590E+03  0.15887693896E+03  0.10592432608E+04  0.11165575715E+04  0.00000000000E+00 0.  1.
         -3    1    6    6    0  502 -0.16565024130E+03 -0.30567507946E+02 -0.12264003937E+02  0.16889280854E+03  0.00000000000E+00 0.  1.
<mgrwt>
<rscale>  0 0.15490709E+04</rscale>
<asrwt>0</asrwt>
<pdfrwt beam="1">  1        2 0.19380573E+00 0.15490709E+04</pdfrwt>
<pdfrwt beam="2">  1       -2 0.73263772E-01 0.15490709E+04</pdfrwt>
<totfact> 0.28261297E+01</totfact>
</mgrwt>
</event>
<event>
12    1  0.1114484E-007  0.1876837E+04  0.7818608E-02  0.8666473E-01
          1   -1    0    0  501    0  0.00000000000E+00  0.00000000000E+00  0.13502448357E+04  0.13502448357E+04  0.00000000000E+00 0. -1.
         -1   -1    0    0    0  501 -0.00000000000E+00 -0.00000000000E+00 -0.65219972156E+03  0.65219972156E+03  0.00000000000E+00 0.  1.
         23    2    1    2    0    0 -0.38624357216E+03 -0.17734280573E+02  0.91672251167E+03  0.99910417626E+03  0.91270969472E+02 0.  0.
        254    2    1    2    0    0  0.38624357216E+03  0.17734280573E+02 -0.21867739754E+03  0.10033403810E+04  0.89965188500E+03 0.  0.
        -24    2    4    4    0    0  0.65148765953E+03  0.11705864683E+02 -0.14190321885E+02  0.65652566365E+03  0.79065694241E+02 0.  0.
         24    2    4    4    0    0 -0.26524408737E+03  0.60284158900E+01 -0.20448707566E+03  0.34681471734E+03  0.89859425625E+02 0.  0.
         13    1    3    3    0    0 -0.37078070354E+03 -0.23691252683E+02  0.81053384811E+03  0.89163037437E+03  0.00000000000E+00 0. -1.
        -13    1    3    3    0    0 -0.15462868620E+02  0.59569721099E+01  0.10618866357E+03  0.10747380189E+03  0.00000000000E+00 0.  1.
          2    1    6    6  502    0 -0.31887102697E+02  0.31173476516E+02 -0.23341439495E+02  0.50332849653E+02  0.00000000000E+00 0. -1.
          3    1    5    5  503    0  0.20459903947E+03 -0.28486573267E+02 -0.22197380370E+02  0.20776182398E+03  0.00000000000E+00 0. -1.
         -4    1    5    5    0  503  0.44688862007E+03  0.40192437950E+02  0.80070584851E+01  0.44876383967E+03  0.00000000000E+00 0.  1.
         -1    1    6    6    0  502 -0.23335698467E+03 -0.25145060626E+02 -0.18114563616E+03  0.29648186769E+03  0.00000000000E+00 0.  1.
<mgrwt>
<rscale>  0 0.18768370E+04</rscale>
<asrwt>0</asrwt>
<pdfrwt beam="1">  1        1 0.20772997E+00 0.18768370E+04</pdfrwt>
<pdfrwt beam="2">  1       -1 0.10033842E+00 0.18768370E+04</pdfrwt>
<totfact> 0.73858123E+00</totfact>
</mgrwt>
</event>
<event>
12    1  0.1114484E-007  0.1399011E+04  0.7818608E-02  0.8954535E-01
          2   -1    0    0  501    0  0.00000000000E+00  0.00000000000E+00  0.59389335844E+03  0.59389335844E+03  0.00000000000E+00 0. -1.
         -2   -1    0    0    0  501 -0.00000000000E+00 -0.00000000000E+00 -0.82389824518E+03  0.82389824518E+03  0.00000000000E+00 0.  1.
         23    2    1    2    0    0 -0.15969900973E+03  0.94353795744E+02  0.29696944853E+03  0.36213317906E+03  0.92429289362E+02 0.  0.
        254    2    1    2    0    0  0.15969900973E+03 -0.94353795744E+02 -0.52697433528E+03  0.10556584246E+04  0.89571555017E+03 0.  0.
        -24    2    4    4    0    0  0.80302369213E+02  0.72693308057E+01 -0.76517383030E+03  0.77304982225E+03  0.74924785167E+02 0.  0.
         24    2    4    4    0    0  0.79396640519E+02 -0.10162312655E+03  0.23819949502E+03  0.28260860231E+03  0.80607296814E+02 0.  0.
         11    1    3    3    0    0  0.73186416851E+01  0.11354653091E+02  0.54966597778E+02  0.56602274992E+02  0.00000000000E+00 0.  1.
        -11    1    3    3    0    0 -0.16701765142E+03  0.82999142652E+02  0.24200285075E+03  0.30553090407E+03  0.00000000000E+00 0. -1.
          2    1    6    6  502    0  0.29445828158E+02 -0.94248125071E+02  0.13036627194E+03  0.16353938589E+03  0.00000000000E+00 0. -1.
          3    1    5    5  503    0  0.60940625037E+02  0.14000588542E+02 -0.25825856645E+03  0.26572027285E+03  0.00000000000E+00 0. -1.
         -4    1    5    5    0  503  0.19361744176E+02 -0.67312577358E+01 -0.50691526385E+03  0.50732954940E+03  0.00000000000E+00 0.  1.
         -1    1    6    6    0  502  0.49950812361E+02 -0.73750014783E+01  0.10783322307E+03  0.11906921643E+03  0.00000000000E+00 0.  1.
<mgrwt>
<rscale>  0 0.13990106E+04</rscale>
<asrwt>0</asrwt>
<pdfrwt beam="1">  1        2 0.91368210E-01 0.13990106E+04</pdfrwt>
<pdfrwt beam="2">  1       -2 0.12675358E+00 0.13990106E+04</pdfrwt>
<totfact> 0.22620632E+01</totfact>
</mgrwt>
</event>
<event>
12    1  0.1114484E-007  0.1415978E+04  0.7818608E-02  0.8942333E-01
          1   -1    0    0  501    0  0.00000000000E+00  0.00000000000E+00  0.10768138289E+04  0.10768138289E+04  0.00000000000E+00 0. -1.
         -1   -1    0    0    0  501 -0.00000000000E+00 -0.00000000000E+00 -0.46549226413E+03  0.46549226413E+03  0.00000000000E+00 0.  1.
         23    2    1    2    0    0  0.49492528573E+02 -0.31212538192E+03 -0.11227805737E+03  0.34737177494E+03  0.90493223136E+02 0.  0.
        254    2    1    2    0    0 -0.49492528573E+02  0.31212538192E+03  0.72359962211E+03  0.11949343181E+04  0.89688340768E+03 0.  0.
        -24    2    4    4    0    0 -0.18995744156E+03 -0.51799801876E+02 -0.13261944622E+03  0.25061341218E+03  0.80325063154E+02 0.  0.
         24    2    4    4    0    0  0.14046491299E+03  0.36392518379E+03  0.85621906833E+03  0.94432090589E+03  0.80367587641E+02 0.  0.
         11    1    3    3    0    0  0.42225952846E+02 -0.46208707251E+02 -0.17819667797E+02  0.65083148971E+02  0.00000000000E+00 0. -1.
        -11    1    3    3    0    0  0.72665757271E+01 -0.26591667467E+03 -0.94458389574E+02  0.28228862597E+03  0.00000000000E+00 0.  1.
          2    1    6    6  502    0  0.11206134870E+03  0.33284759042E+03  0.80313427539E+03  0.87656712727E+03  0.00000000000E+00 0. -1.
          3    1    5    5  503    0 -0.18943815088E+03 -0.54047053901E+02 -0.14078209802E+03  0.24213115489E+03  0.00000000000E+00 0. -1.
         -4    1    5    5    0  503 -0.51929067947E+00  0.22472520257E+01  0.81626517959E+01  0.84822572950E+01  0.00000000000E+00 0.  1.
         -3    1    6    6    0  502  0.28403564290E+02  0.31077593375E+02  0.53084792950E+02  0.67753778617E+02  0.00000000000E+00 0.  1.
<mgrwt>
<rscale>  0 0.14159781E+04</rscale>
<asrwt>0</asrwt>
<pdfrwt beam="1">  1        1 0.16566367E+00 0.14159781E+04</pdfrwt>
<pdfrwt beam="2">  1       -1 0.71614195E-01 0.14159781E+04</pdfrwt>
<totfact> 0.25310152E+01</totfact>
</mgrwt>
</event>
<event>
12    1  0.1114484E-007  0.1395526E+04  0.7818608E-02  0.8957063E-01
          2   -1    0    0  501    0  0.00000000000E+00  0.00000000000E+00  0.16377329642E+04  0.16377329642E+04  0.00000000000E+00 0. -1.
         -2   -1    0    0    0  501 -0.00000000000E+00 -0.00000000000E+00 -0.29728490027E+03  0.29728490027E+03  0.00000000000E+00 0.  1.
         23    2    1    2    0    0 -0.32361926419E+03  0.20130531786E+03  0.53438733654E+03  0.66274876025E+03  0.91721505653E+02 0.  0.
        254    2    1    2    0    0  0.32361926419E+03 -0.20130531786E+03  0.80606072741E+03  0.12722691042E+04  0.90756901565E+03 0.  0.
        -24    2    4    4    0    0 -0.23557103576E+02 -0.14127262789E+03 -0.16734616259E+03  0.23393393016E+03  0.78787391288E+02 0.  0.
         24    2    4    4    0    0  0.34717636776E+03 -0.60032689977E+02  0.97340689000E+03  0.10383351741E+04  0.80520842298E+02 0.  0.
         13    1    3    3    0    0 -0.28949960044E+03  0.18366146062E+03  0.42045969514E+03  0.54251995909E+03  0.00000000000E+00 0.  1.
        -13    1    3    3    0    0 -0.34119663744E+02  0.17643857246E+02  0.11392764140E+03  0.12022880116E+03  0.00000000000E+00 0. -1.
          2    1    6    6  502    0  0.25592831452E+03 -0.48014797583E+02  0.80957816735E+03  0.85042432468E+03  0.00000000000E+00 0. -1.
          3    1    5    5  503    0 -0.31287801290E+02 -0.10689579138E+03 -0.16439755880E+03  0.19857541153E+03  0.00000000000E+00 0. -1.
         -4    1    5    5    0  503  0.77306977138E+01 -0.34376836501E+02 -0.29486037886E+01  0.35358518624E+02  0.00000000000E+00 0.  1.
         -1    1    6    6    0  502  0.91248053245E+02 -0.12017892393E+02  0.16382872264E+03  0.18791084940E+03  0.00000000000E+00 0.  1.
<mgrwt>
<rscale>  0 0.13955261E+04</rscale>
<asrwt>0</asrwt>
<pdfrwt beam="1">  1        2 0.25195891E+00 0.13955261E+04</pdfrwt>
<pdfrwt beam="2">  1       -2 0.45736139E-01 0.13955261E+04</pdfrwt>
<totfact> 0.46877142E+01</totfact>
</mgrwt>
</event>
<event>
12    1  0.1114484E-007  0.1373690E+04  0.7818608E-02  0.8973086E-01
         -2   -1    0    0    0  501 -0.00000000000E+00  0.00000000000E+00  0.19342310233E+04  0.19342310233E+04  0.00000000000E+00 0.  1.
          2   -1    0    0  501    0  0.00000000000E+00 -0.00000000000E+00 -0.24389845024E+03  0.24389845024E+03  0.00000000000E+00 0. -1.
         23    2    1    2    0    0 -0.10620262129E+03 -0.35038689923E+03  0.30708727872E+03  0.48573162846E+03  0.87078368244E+02 0.  0.
        254    2    1    2    0    0  0.10620262129E+03  0.35038689923E+03  0.13832452943E+04  0.16923978450E+04  0.90376597954E+03 0.  0.
        -24    2    4    4    0    0  0.42687171644E+02 -0.24358348742E+03  0.84611824963E+03  0.88510137245E+03  0.79581638600E+02 0.  0.
         24    2    4    4    0    0  0.63515449643E+02  0.59397038664E+03  0.53712704468E+03  0.80729647259E+03  0.79919334183E+02 0.  0.
         11    1    3    3    0    0 -0.19140294675E+02 -0.11588338048E+03  0.14937181036E+03  0.19001906874E+03  0.00000000000E+00 0.  1.
        -11    1    3    3    0    0 -0.87062326612E+02 -0.23450351874E+03  0.15771546835E+03  0.29571255972E+03  0.00000000000E+00 0. -1.
          2    1    6    6  502    0  0.72260109822E+02  0.44138238339E+03  0.43176996268E+03  0.62166327904E+03  0.00000000000E+00 0. -1.
          3    1    5    5  503    0  0.59449507642E+02 -0.21235560754E+03  0.66694226310E+03  0.70245364994E+03  0.00000000000E+00 0. -1.
         -4    1    5    5    0  503 -0.16762335998E+02 -0.31227879881E+02  0.17917598653E+03  0.18264772251E+03  0.00000000000E+00 0.  1.
         -1    1    6    6    0  502 -0.87446601792E+01  0.15258800325E+03  0.10535708200E+03  0.18563319355E+03  0.00000000000E+00 0.  1.
<mgrwt>
<rscale>  0 0.13736898E+04</rscale>
<asrwt>0</asrwt>
<pdfrwt beam="1">  1        2 0.37522840E-01 0.13736898E+04</pdfrwt>
<pdfrwt beam="2">  1       -2 0.29757399E+00 0.13736898E+04</pdfrwt>
<totfact> 0.44600292E+00</totfact>
</mgrwt>
</event>
<event>
12    1  0.1114484E-007  0.1907513E+04  0.7818608E-02  0.8651126E-01
         -1   -1    0    0    0  501 -0.00000000000E+00  0.00000000000E+00  0.42175209305E+03  0.42175209305E+03  0.00000000000E+00 0.  1.
          1   -1    0    0  501    0  0.00000000000E+00 -0.00000000000E+00 -0.21568395730E+04  0.21568395730E+04  0.00000000000E+00 0. -1.
         23    2    1    2    0    0 -0.15248594940E+03  0.38933098975E+03  0.14811227244E+03  0.45264327249E+03  0.90100513519E+02 0.  0.
        254    2    1    2    0    0  0.15248594940E+03 -0.38933098975E+03 -0.18831997524E+04  0.21259483935E+04  0.89352374357E+03 0.  0.
        -24    2    4    4    0    0  0.31043285608E+03  0.24370999033E+02 -0.15027046145E+04  0.15367125538E+04  0.80011315716E+02 0.  0.
         24    2    4    4    0    0 -0.15794690668E+03 -0.41370198879E+03 -0.38049513784E+03  0.58923583977E+03  0.79534672283E+02 0.  0.
         13    1    3    3    0    0 -0.56736161524E+02  0.25750675334E+03  0.75593411294E+02  0.27430472813E+03  0.00000000000E+00 0.  1.
        -13    1    3    3    0    0 -0.95749787879E+02  0.13182423641E+03  0.72518861147E+02  0.17833854437E+03  0.00000000000E+00 0. -1.
          2    1    6    6  502    0 -0.30782598038E+01 -0.10081473083E+02 -0.32797774473E+02  0.34450047799E+02  0.00000000000E+00 0. -1.
          3    1    5    5  503    0  0.86037646573E+02  0.38181457685E+02 -0.36004042249E+03  0.37214164799E+03  0.00000000000E+00 0. -1.
         -4    1    5    5    0  503  0.22439520951E+03 -0.13810458652E+02 -0.11426641921E+04  0.11645709058E+04  0.00000000000E+00 0.  1.
         -1    1    6    6    0  502 -0.15486864688E+03 -0.40362051570E+03 -0.34769736336E+03  0.55478579197E+03  0.00000000000E+00 0.  1.
<mgrwt>
<rscale>  0 0.19075131E+04</rscale>
<asrwt>0</asrwt>
<pdfrwt beam="1">  1        1 0.33182148E+00 0.19075131E+04</pdfrwt>
<pdfrwt beam="2">  1       -1 0.64884936E-01 0.19075131E+04</pdfrwt>
<totfact> 0.52502601E+00</totfact>
</mgrwt>
</event>
<event>
12    1  0.1260452E-007  0.2955761E+04  0.7818608E-02  0.8256478E-01
          1   -1    0    0  501    0  0.00000000000E+00  0.00000000000E+00  0.10631787928E+04  0.10631787928E+04  0.00000000000E+00 0. -1.
         -1   -1    0    0    0  501 -0.00000000000E+00 -0.00000000000E+00 -0.20543396259E+04  0.20543396259E+04  0.00000000000E+00 0.  1.
         23    2    1    2    0    0  0.53842720136E+02 -0.10412265799E+04 -0.13368131069E+04  0.16978000379E+04  0.91672552141E+02 0.  0.
        254    2    1    2    0    0 -0.53842720136E+02  0.10412265799E+04  0.34565227380E+03  0.14197183808E+04  0.89948482877E+03 0.  0.
        -24    2    4    4    0    0  0.33182181763E+03  0.89339887156E+03  0.22643079426E+03  0.98282074471E+03  0.79990307527E+02 0.  0.
         24    2    4    4    0    0 -0.38566453776E+03  0.14782770831E+03  0.11922147954E+03  0.43689763606E+03  0.77946239023E+02 0.  0.
         11    1    3    3    0    0  0.52476849811E+02 -0.99576593997E+03 -0.12429263828E+04  0.15934772104E+04  0.00000000000E+00 0.  1.
        -11    1    3    3    0    0  0.13658703249E+01 -0.45460639904E+02 -0.93886724034E+02  0.10432282747E+03  0.00000000000E+00 0. -1.
          2    1    6    6  502    0  0.98032895257E+00 -0.39738183264E+01  0.42556648857E+01  0.59044864777E+01  0.00000000000E+00 0. -1.
          1    1    5    5  503    0  0.19781003512E+02  0.18085750241E+02  0.10551572548E+02  0.28804828501E+02  0.00000000000E+00 0. -1.
         -2    1    5    5    0  503  0.31204081411E+03  0.87531312132E+03  0.21587922171E+03  0.95401591621E+03  0.00000000000E+00 0.  1.
         -1    1    6    6    0  502 -0.38664486672E+03  0.15180152664E+03  0.11496581466E+03  0.43099314958E+03  0.00000000000E+00 0.  1.
<mgrwt>
<rscale>  0 0.29557607E+04</rscale>
<asrwt>0</asrwt>
<pdfrwt beam="1">  1        1 0.16356597E+00 0.29557607E+04</pdfrwt>
<pdfrwt beam="2">  1       -1 0.31605225E+00 0.29557607E+04</pdfrwt>
<totfact> 0.29993822E-01</totfact>
</mgrwt>
</event>
<event>
12    1  0.1114484E-007  0.1772162E+04  0.7818608E-02  0.8721245E-01
          1   -1    0    0  501    0  0.00000000000E+00  0.00000000000E+00  0.12970214541E+04  0.12970214541E+04  0.00000000000E+00 0. -1.
         -1   -1    0    0    0  501 -0.00000000000E+00 -0.00000000000E+00 -0.60534014430E+03  0.60534014430E+03  0.00000000000E+00 0.  1.
         23    2    1    2    0    0  0.31191414116E+03 -0.32486587273E+03 -0.24475147895E+03  0.52164911316E+03  0.96882630497E+02 0.  0.
        254    2    1    2    0    0 -0.31191414116E+03  0.32486587273E+03  0.93643278877E+03  0.13807124853E+04  0.90919323157E+03 0.  0.
        -24    2    4    4    0    0 -0.50581995659E+03  0.49873481675E+03  0.81059172964E+03  0.10809915604E+04  0.83027438978E+02 0.  0.
         24    2    4    4    0    0  0.19390581543E+03 -0.17386894402E+03  0.12584105913E+03  0.29972092483E+03  0.78528884276E+02 0.  0.
         13    1    3    3    0    0  0.21461070650E+03 -0.16947384578E+03 -0.17918543762E+03  0.32693510182E+03  0.00000000000E+00 0. -1.
        -13    1    3    3    0    0  0.97303434659E+02 -0.15539202694E+03 -0.65566041328E+02  0.19471401133E+03  0.00000000000E+00 0.  1.
          2    1    6    6  502    0  0.16836389574E+03 -0.17068457440E+03  0.91078379046E+02  0.25646617020E+03  0.00000000000E+00 0. -1.
          1    1    5    5  503    0 -0.27942429777E+03  0.28471913102E+03  0.51597535443E+03  0.65220662994E+03  0.00000000000E+00 0. -1.
         -2    1    5    5    0  503 -0.22639565882E+03  0.21401568573E+03  0.29461637520E+03  0.42878493048E+03  0.00000000000E+00 0.  1.
         -1    1    6    6    0  502  0.25541919698E+02 -0.31843696170E+01  0.34762680087E+02  0.43254754635E+02  0.00000000000E+00 0.  1.
<mgrwt>
<rscale>  0 0.17721616E+04</rscale>
<asrwt>0</asrwt>
<pdfrwt beam="1">  1        1 0.19954176E+00 0.17721616E+04</pdfrwt>
<pdfrwt beam="2">  1       -1 0.93129253E-01 0.17721616E+04</pdfrwt>
<totfact> 0.96265473E+00</totfact>
</mgrwt>
</event>
<event>
12    1  0.1114484E-007  0.2079054E+04  0.7818608E-02  0.8570527E-01
         -2   -1    0    0    0  501 -0.00000000000E+00  0.00000000000E+00  0.58450504170E+03  0.58450504170E+03  0.00000000000E+00 0.  1.
          2   -1    0    0  501    0  0.00000000000E+00 -0.00000000000E+00 -0.18487719261E+04  0.18487719261E+04  0.00000000000E+00 0. -1.
         23    2    1    2    0    0 -0.29603235150E+03 -0.67938642140E+03 -0.43857352345E+02  0.74874296439E+03  0.97424312448E+02 0.  0.
        254    2    1    2    0    0  0.29603235150E+03  0.67938642140E+03 -0.12204095320E+04  0.16845340034E+04  0.89389838348E+03 0.  0.
        -24    2    4    4    0    0  0.21591521838E+03  0.65613385205E+03 -0.30027259596E+03  0.75739211446E+03  0.79675402876E+02 0.  0.
         24    2    4    4    0    0  0.80117133117E+02  0.23252569345E+02 -0.92013693608E+03  0.92714188894E+03  0.77334753342E+02 0.  0.
         11    1    3    3    0    0 -0.25802792971E+02 -0.14682753489E+02 -0.54334035666E+01  0.30180941825E+02  0.00000000000E+00 0. -1.
        -11    1    3    3    0    0 -0.27022955853E+03 -0.66470366791E+03 -0.38423948779E+02  0.71856202257E+03  0.00000000000E+00 0.  1.
          2    1    6    6  502    0  0.78175631409E+02  0.62974236860E+01 -0.88051393414E+03  0.88399992935E+03  0.00000000000E+00 0. -1.
          3    1    5    5  503    0  0.21060703854E+03  0.64992683678E+03 -0.30474100703E+03  0.74808241472E+03  0.00000000000E+00 0. -1.
         -4    1    5    5    0  503  0.53081798395E+01  0.62070152739E+01  0.44684110656E+01  0.93096997411E+01  0.00000000000E+00 0.  1.
         -3    1    6    6    0  502  0.19415017076E+01  0.16955145659E+02 -0.39623001949E+02  0.43141959583E+02  0.00000000000E+00 0.  1.
<mgrwt>
<rscale>  0 0.20790541E+04</rscale>
<asrwt>0</asrwt>
<pdfrwt beam="1">  1        2 0.28442645E+00 0.20790541E+04</pdfrwt>
<pdfrwt beam="2">  1       -2 0.89923854E-01 0.20790541E+04</pdfrwt>
<totfact> 0.79242875E+00</totfact>
</mgrwt>
</event>
<event>
12    1  0.1114484E-007  0.1710435E+04  0.7818608E-02  0.8755435E-01
         -2   -1    0    0    0  501 -0.00000000000E+00  0.00000000000E+00  0.76719934444E+03  0.76719934444E+03  0.00000000000E+00 0. -1.
          2   -1    0    0  501    0  0.00000000000E+00 -0.00000000000E+00 -0.95333335396E+03  0.95333335396E+03  0.00000000000E+00 0.  1.
         23    2    1    2    0    0 -0.20746039940E+02  0.24385489752E+03 -0.61570527999E+03  0.66888011430E+03  0.91716990136E+02 0.  0.
        254    2    1    2    0    0  0.20746039940E+02 -0.24385489752E+03  0.42957127047E+03  0.10516525841E+04  0.92819506140E+03 0.  0.
        -24    2    4    4    0    0  0.30229148422E+03 -0.25307245396E+03 -0.12889044639E+03  0.42109234135E+03  0.72665014927E+02 0.  0.
         24    2    4    4    0    0 -0.28154544428E+03  0.92175564405E+01  0.55846171686E+03  0.63056024274E+03  0.79836896143E+02 0.  0.
         11    1    3    3    0    0 -0.46435341641E+02  0.84313865591E+02 -0.28478229288E+03  0.30060941972E+03  0.00000000000E+00 0. -1.
        -11    1    3    3    0    0  0.25689301702E+02  0.15954103192E+03 -0.33092298711E+03  0.36827069458E+03  0.00000000000E+00 0.  1.
          2    1    6    6  502    0 -0.33437018715E+02  0.71173495654E+01  0.25419745599E+02  0.42601107400E+02  0.00000000000E+00 0. -1.
          1    1    5    5  503    0  0.12009600904E+02 -0.69793756272E+01  0.87389443038E+01  0.16410708259E+02  0.00000000000E+00 0. -1.
         -2    1    5    5    0  503  0.29028188331E+03 -0.24609307833E+03 -0.13762939069E+03  0.40468163309E+03  0.00000000000E+00 0.  1.
         -1    1    6    6    0  502 -0.24810842556E+03  0.21002068751E+01  0.53304197126E+03  0.58795913534E+03  0.00000000000E+00 0.  1.
<mgrwt>
<rscale>  0 0.17104347E+04</rscale>
<asrwt>0</asrwt>
<pdfrwt beam="1">  1        2 0.14666667E+00 0.17104347E+04</pdfrwt>
<pdfrwt beam="2">  1       -2 0.11803067E+00 0.17104347E+04</pdfrwt>
<totfact> 0.14209680E+01</totfact>
</mgrwt>
</event>
<event>
12    1  0.1394637E-007  0.1997096E+04  0.7818608E-02  0.8607980E-01
         -2   -1    0    0    0  501 -0.00000000000E+00  0.00000000000E+00  0.50171431680E+03  0.50171431680E+03  0.00000000000E+00 0.  1.
          2   -1    0    0  501    0  0.00000000000E+00 -0.00000000000E+00 -0.19873824847E+04  0.19873824847E+04  0.00000000000E+00 0. -1.
         23    2    1    2    0    0 -0.40983095253E+03  0.16232672308E+03 -0.14180281538E+04  0.14878245874E+04  0.92232224015E+02 0.  0.
        254    2    1    2    0    0  0.40983095253E+03 -0.16232672308E+03 -0.67640014125E+02  0.10012722142E+04  0.89647057991E+03 0.  0.
        -24    2    4    4    0    0  0.14848266732E+03  0.23417806363E+03 -0.34229358568E+03  0.44707830567E+03  0.76339011147E+02 0.  0.
         24    2    4    4    0    0  0.26134828521E+03 -0.39650478671E+03  0.27465357156E+03  0.55419390848E+03  0.78596003480E+02 0.  0.
         13    1    3    3    0    0 -0.39182260908E+03  0.16079918345E+03 -0.12714564835E+04  0.13401428745E+04  0.00000000000E+00 0. -1.
        -13    1    3    3    0    0 -0.18008343449E+02  0.15275396284E+01 -0.14657167027E+03  0.14768171294E+03  0.00000000000E+00 0.  1.
          2    1    6    6  502    0  0.15576158837E+03 -0.26495645763E+03  0.21578357848E+03  0.37553448523E+03  0.00000000000E+00 0. -1.
          1    1    5    5  503    0  0.15296261118E+03  0.20323618858E+03 -0.28652306021E+03  0.38314223573E+03  0.00000000000E+00 0. -1.
         -2    1    5    5    0  503 -0.44799438515E+01  0.30941875046E+02 -0.55770525477E+02  0.63936069947E+02  0.00000000000E+00 0.  1.
         -1    1    6    6    0  502  0.10558669684E+03 -0.13154832908E+03  0.58869993076E+02  0.17865942325E+03  0.00000000000E+00 0.  1.
<mgrwt>
<rscale>  0 0.19970961E+04</rscale>
<asrwt>0</asrwt>
<pdfrwt beam="1">  1        2 0.30575115E+00 0.19970961E+04</pdfrwt>
<pdfrwt beam="2">  1       -2 0.77186817E-01 0.19970961E+04</pdfrwt>
<totfact> 0.94503657E+00</totfact>
</mgrwt>
</event>
<event>
12    1  0.1114484E-007  0.1848193E+04  0.7818608E-02  0.8681082E-01
          2   -1    0    0  501    0  0.00000000000E+00  0.00000000000E+00  0.14440781725E+04  0.14440781725E+04  0.00000000000E+00 0. -1.
         -2   -1    0    0    0  501 -0.00000000000E+00 -0.00000000000E+00 -0.59134942579E+03  0.59134942579E+03  0.00000000000E+00 0.  1.
         23    2    1    2    0    0  0.64334126181E+01  0.69892864425E+03  0.25955428986E+03  0.74971580553E+03  0.78503000792E+02 0.  0.
        254    2    1    2    0    0 -0.64334126181E+01 -0.69892864425E+03  0.59317445683E+03  0.12857117927E+04  0.90147448063E+03 0.  0.
        -24    2    4    4    0    0  0.13131968132E+03 -0.87900983421E+03  0.53341418376E+03  0.10395470583E+04  0.78893900790E+02 0.  0.
         24    2    4    4    0    0 -0.13775309394E+03  0.18008118996E+03  0.59760273073E+02  0.24616473448E+03  0.74970903643E+02 0.  0.
         11    1    3    3    0    0 -0.27346290576E+02  0.12540327276E+03  0.36768869631E+02  0.13351310872E+03  0.00000000000E+00 0. -1.
        -11    1    3    3    0    0  0.33779703194E+02  0.57352537149E+03  0.22278542023E+03  0.61620269681E+03  0.00000000000E+00 0.  1.
          2    1    6    6  502    0 -0.14523051500E+03  0.18004980525E+03  0.58030662902E+02  0.23848981675E+03  0.00000000000E+00 0. -1.
          1    1    5    5  503    0  0.14173311550E+03 -0.80439832006E+03  0.48326220562E+03  0.94904546399E+03  0.00000000000E+00 0. -1.
         -2    1    5    5    0  503 -0.10413434184E+02 -0.74611514151E+02  0.50151978139E+02  0.90501594277E+02  0.00000000000E+00 0.  1.
         -1    1    6    6    0  502  0.74774210596E+01  0.31384711658E-01  0.17296101704E+01  0.76749177223E+01  0.00000000000E+00 0.  1.
<mgrwt>
<rscale>  0 0.18481935E+04</rscale>
<asrwt>0</asrwt>
<pdfrwt beam="1">  1        2 0.22216587E+00 0.18481935E+04</pdfrwt>
<pdfrwt beam="2">  1       -2 0.90976835E-01 0.18481935E+04</pdfrwt>
<totfact> 0.13238299E+01</totfact>
</mgrwt>
</event>
<event>
12    1  0.1114484E-007  0.1064344E+04  0.7818608E-02  0.9240659E-01
          1   -1    0    0  501    0  0.00000000000E+00  0.00000000000E+00  0.41265347374E+03  0.41265347374E+03  0.00000000000E+00 0. -1.
         -1   -1    0    0    0  501 -0.00000000000E+00 -0.00000000000E+00 -0.68630683372E+03  0.68630683372E+03  0.00000000000E+00 0.  1.
         23    2    1    2    0    0  0.10667537489E+03 -0.38008250631E+02  0.22220416143E+02  0.14699229248E+03  0.91042432038E+02 0.  0.
        254    2    1    2    0    0 -0.10667537489E+03  0.38008250631E+02 -0.29587377613E+03  0.95196801498E+03  0.89770682710E+03 0.  0.
        -24    2    4    4    0    0  0.41061587247E+02  0.11601607713E+03 -0.58717556607E+03  0.60659017466E+03  0.89614231581E+02 0.  0.
         24    2    4    4    0    0 -0.14773696214E+03 -0.78007826494E+02  0.29130178994E+03  0.34537784032E+03  0.80732204119E+02 0.  0.
         13    1    3    3    0    0  0.10888148210E+02  0.25726842922E+02 -0.58992943693E+01  0.28552125880E+02  0.00000000000E+00 0.  1.
        -13    1    3    3    0    0  0.95787226681E+02 -0.63735093554E+02  0.28119710513E+02  0.11844016660E+03  0.00000000000E+00 0. -1.
          2    1    6    6  502    0 -0.51991340309E+02  0.67011165997E+01  0.50730687171E+02  0.72949345793E+02  0.00000000000E+00 0. -1.
          3    1    5    5  503    0  0.22016536445E+01 -0.14326503477E+02 -0.34432883374E+02  0.37359328663E+02  0.00000000000E+00 0. -1.
         -4    1    5    5    0  503  0.38859933602E+02  0.13034258060E+03 -0.55274268270E+03  0.56923084600E+03  0.00000000000E+00 0.  1.
         -1    1    6    6    0  502 -0.95745621828E+02 -0.84708943094E+02  0.24057110277E+03  0.27242849452E+03  0.00000000000E+00 0.  1.
<mgrwt>
<rscale>  0 0.10643437E+04</rscale>
<asrwt>0</asrwt>
<pdfrwt beam="1">  1        1 0.63485150E-01 0.10643437E+04</pdfrwt>
<pdfrwt beam="2">  1       -1 0.10558567E+00 0.10643437E+04</pdfrwt>
<totfact> 0.48328254E+01</totfact>
</mgrwt>
</event>
<event>
12    1  0.1114484E-007  0.1535953E+04  0.7818608E-02  0.8860890E-01
          2   -1    0    0  501    0  0.00000000000E+00  0.00000000000E+00  0.34600408502E+03  0.34600408502E+03  0.00000000000E+00 0.  1.
         -2   -1    0    0    0  501 -0.00000000000E+00 -0.00000000000E+00 -0.17045702262E+04  0.17045702262E+04  0.00000000000E+00 0. -1.
         23    2    1    2    0    0  0.45146344285E+03  0.60100053479E+02 -0.20146100378E+03  0.50648798627E+03  0.92262059006E+02 0.  0.
        254    2    1    2    0    0 -0.45146344285E+03 -0.60100053479E+02 -0.11571051374E+04  0.15440863250E+04  0.91535731998E+03 0.  0.
        -24    2    4    4    0    0 -0.48696353795E+03 -0.34627629999E+03 -0.10771642326E+04  0.12344412997E+04  0.80757507970E+02 0.  0.
         24    2    4    4    0    0  0.35500095101E+02  0.28617624651E+03 -0.79940904774E+02  0.30964502526E+03  0.79576331857E+02 0.  0.
         11    1    3    3    0    0  0.40135733498E+03  0.73528514562E+02 -0.15385394352E+03  0.43607933765E+03  0.00000000000E+00 0.  1.
        -11    1    3    3    0    0  0.50106107879E+02 -0.13428461083E+02 -0.47607060255E+02  0.70408648616E+02  0.00000000000E+00 0. -1.
          2    1    6    6  502    0  0.11470366132E+02  0.25792099602E+03 -0.52382921760E+02  0.26343648186E+03  0.00000000000E+00 0. -1.
          1    1    5    5  503    0 -0.32204970592E+03 -0.27217538800E+03 -0.77673522872E+03  0.88380601404E+03  0.00000000000E+00 0. -1.
         -2    1    5    5    0  503 -0.16491383204E+03 -0.74100911988E+02 -0.30042900392E+03  0.35063528566E+03  0.00000000000E+00 0.  1.
         -1    1    6    6    0  502  0.24029728968E+02  0.28255250497E+02 -0.27557983014E+02  0.46208543396E+02  0.00000000000E+00 0.  1.
<mgrwt>
<rscale>  0 0.15359535E+04</rscale>
<asrwt>0</asrwt>
<pdfrwt beam="1">  1        2 0.53231397E-01 0.15359535E+04</pdfrwt>
<pdfrwt beam="2">  1       -2 0.26224157E+00 0.15359535E+04</pdfrwt>
<totfact> 0.48813419E+00</totfact>
</mgrwt>
</event>
<event>
12    1  0.1114484E-007  0.1276740E+04  0.7818608E-02  0.9048217E-01
         -2   -1    0    0    0  501 -0.00000000000E+00  0.00000000000E+00  0.37828634255E+03  0.37828634255E+03  0.00000000000E+00 0.  1.
          2   -1    0    0  501    0  0.00000000000E+00 -0.00000000000E+00 -0.10772691988E+04  0.10772691988E+04  0.00000000000E+00 0. -1.
         23    2    1    2    0    0 -0.18609637775E+03  0.26151260840E+03 -0.20429624484E+03  0.39109515931E+03  0.90541492224E+02 0.  0.
        254    2    1    2    0    0  0.18609637775E+03 -0.26151260840E+03 -0.49468661144E+03  0.10644603821E+04  0.88619431012E+03 0.  0.
        -24    2    4    4    0    0  0.29550054588E+03 -0.44210970243E+03 -0.18350105761E+02  0.53738512747E+03  0.75262787895E+02 0.  0.
         24    2    4    4    0    0 -0.10940416813E+03  0.18059709402E+03 -0.47633650568E+03  0.52707525460E+03  0.79544170131E+02 0.  0.
         11    1    3    3    0    0 -0.11778055923E+03  0.21728683904E+03 -0.12302229421E+03  0.27608026990E+03  0.00000000000E+00 0. -1.
        -11    1    3    3    0    0 -0.68315818522E+02  0.44225769360E+02 -0.81273950628E+02  0.11501488941E+03  0.00000000000E+00 0.  1.
          4    1    6    6  502    0 -0.26534964633E+02 -0.66382686873E-01 -0.47320912039E+02  0.54252902881E+02  0.00000000000E+00 0. -1.
          1    1    5    5  503    0  0.17971164296E+03 -0.21920545272E+03  0.15770223926E+02  0.28389435549E+03  0.00000000000E+00 0. -1.
         -2    1    5    5    0  503  0.11578890293E+03 -0.22290424971E+03 -0.34120329687E+02  0.25349077198E+03  0.00000000000E+00 0.  1.
         -3    1    6    6    0  502 -0.82869203496E+02  0.18066347671E+03 -0.42901559364E+03  0.47282235172E+03  0.00000000000E+00 0.  1.
<mgrwt>
<rscale>  0 0.12767400E+04</rscale>
<asrwt>0</asrwt>
<pdfrwt beam="1">  1        2 0.16573372E+00 0.12767400E+04</pdfrwt>
<pdfrwt beam="2">  1       -2 0.58197901E-01 0.12767400E+04</pdfrwt>
<totfact> 0.61028558E+01</totfact>
</mgrwt>
</event>
<event>
12    1  0.1114484E-007  0.1590551E+04  0.7818608E-02  0.8826374E-01
          1   -1    0    0  501    0  0.00000000000E+00  0.00000000000E+00  0.43700418807E+04  0.43700418807E+04  0.00000000000E+00 0. -1.
         -1   -1    0    0    0  501 -0.00000000000E+00 -0.00000000000E+00 -0.14472709953E+03  0.14472709953E+03  0.00000000000E+00 0.  1.
         23    2    1    2    0    0 -0.51813453369E+03  0.33306740032E+02  0.18319832753E+04  0.19061457971E+04  0.87500541238E+02 0.  0.
        254    2    1    2    0    0  0.51813453369E+03 -0.33306740032E+02  0.23933315058E+04  0.26086231831E+04  0.89850235438E+03 0.  0.
        -24    2    4    4    0    0  0.74468787335E+03 -0.86947220828E+02  0.14583966065E+04  0.16417352984E+04  0.79084009369E+02 0.  0.
         24    2    4    4    0    0 -0.22655333966E+03  0.53640480796E+02  0.93493489938E+03  0.96688788468E+03  0.81025912990E+02 0.  0.
         13    1    3    3    0    0 -0.46126310239E+03  0.10311159896E+02  0.15325589942E+04  0.16005021213E+04  0.00000000000E+00 0. -1.
        -13    1    3    3    0    0 -0.56871431293E+02  0.22995580136E+02  0.29942428113E+03  0.30564367576E+03  0.00000000000E+00 0.  1.
          2    1    6    6  502    0 -0.70504076923E+02 -0.20885745259E+02  0.28781329249E+03  0.29705812655E+03  0.00000000000E+00 0. -1.
          1    1    5    5  503    0  0.25854741986E+03 -0.41461370509E+02  0.43288121082E+03  0.50591694599E+03  0.00000000000E+00 0. -1.
         -2    1    5    5    0  503  0.48614045348E+03 -0.45485850319E+02  0.10255153956E+04  0.11358183525E+04  0.00000000000E+00 0.  1.
         -1    1    6    6    0  502 -0.15604926274E+03  0.74526226055E+02  0.64712160689E+03  0.66982975813E+03  0.00000000000E+00 0.  1.
<mgrwt>
<rscale>  0 0.15905515E+04</rscale>
<asrwt>0</asrwt>
<pdfrwt beam="1">  1        1 0.67231403E+00 0.15905515E+04</pdfrwt>
<pdfrwt beam="2">  1       -1 0.22265711E-01 0.15905515E+04</pdfrwt>
<totfact> 0.72991050E-01</totfact>
</mgrwt>
</event>
<event>
12    1  0.1114484E-007  0.1435557E+04  0.7818608E-02  0.8928475E-01
         -2   -1    0    0    0  501 -0.00000000000E+00  0.00000000000E+00  0.17208314050E+04  0.17208314050E+04  0.00000000000E+00 0.  1.
          2   -1    0    0  501    0  0.00000000000E+00 -0.00000000000E+00 -0.29939374120E+03  0.29939374120E+03  0.00000000000E+00 0. -1.
         23    2    1    2    0    0  0.28984087269E+03 -0.19503702342E+03  0.85598352000E+02  0.37136726984E+03  0.92408870014E+02 0.  0.
        254    2    1    2    0    0 -0.28984087269E+03  0.19503702342E+03  0.13358393118E+04  0.16488578764E+04  0.90123163365E+03 0.  0.
        -24    2    4    4    0    0 -0.54796909512E+03 -0.56616505457E+01  0.11189532306E+04  0.12485016622E+04  0.79986778495E+02 0.  0.
         24    2    4    4    0    0  0.25812822244E+03  0.20069867396E+03  0.21688608116E+03  0.40035621413E+03  0.79595157149E+02 0.  0.
         11    1    3    3    0    0  0.28480592708E+03 -0.16293392272E+03  0.70846519282E+02  0.33568006877E+03  0.00000000000E+00 0. -1.
        -11    1    3    3    0    0  0.50349456064E+01 -0.32103100697E+02  0.14751832718E+02  0.35687201069E+02  0.00000000000E+00 0.  1.
          2    1    6    6  502    0  0.71545637574E+02  0.94403771491E+02  0.50799520726E+02  0.12888538177E+03  0.00000000000E+00 0. -1.
          1    1    5    5  503    0 -0.10540599231E+03  0.13514886651E+02  0.15866303717E+03  0.19096343823E+03  0.00000000000E+00 0. -1.
         -2    1    5    5    0  503 -0.44256310282E+03 -0.19176537196E+02  0.96029019347E+03  0.10575382240E+04  0.00000000000E+00 0.  1.
         -1    1    6    6    0  502  0.18658258486E+03  0.10629490247E+03  0.16608656044E+03  0.27147083236E+03  0.00000000000E+00 0.  1.
<mgrwt>
<rscale>  0 0.14355572E+04</rscale>
<asrwt>0</asrwt>
<pdfrwt beam="1">  1        2 0.46060576E-01 0.14355572E+04</pdfrwt>
<pdfrwt beam="2">  1       -2 0.26474329E+00 0.14355572E+04</pdfrwt>
<totfact> 0.55853226E+00</totfact>
</mgrwt>
</event>
<event>
12    1  0.1114484E-007  0.2137664E+04  0.7818608E-02  0.8544831E-01
          1   -1    0    0  501    0  0.00000000000E+00  0.00000000000E+00  0.51485622030E+03  0.51485622030E+03  0.00000000000E+00 0. -1.
         -1   -1    0    0    0  501 -0.00000000000E+00 -0.00000000000E+00 -0.22188745330E+04  0.22188745330E+04  0.00000000000E+00 0.  1.
         23    2    1    2    0    0 -0.29407996289E+03 -0.21221756555E+03  0.31839781930E+03  0.49087189875E+03  0.89770429150E+02 0.  0.
        254    2    1    2    0    0  0.29407996289E+03  0.21221756555E+03 -0.20224161320E+04  0.22428588546E+04  0.89929389567E+03 0.  0.
        -24    2    4    4    0    0 -0.14395504703E+03  0.41307513526E+03 -0.12717427188E+04  0.13472112323E+04  0.79337498318E+02 0.  0.
         24    2    4    4    0    0  0.43803500992E+03 -0.20085756971E+03 -0.75067341318E+03  0.89564762226E+03  0.80347101823E+02 0.  0.
         11    1    3    3    0    0 -0.13355825713E+03 -0.12326652556E+03  0.21000979641E+03  0.27773469167E+03  0.00000000000E+00 0.  1.
        -11    1    3    3    0    0 -0.16052170576E+03 -0.88951039987E+02  0.10838802289E+03  0.21313720708E+03  0.00000000000E+00 0. -1.
          2    1    6    6  502    0  0.21017390712E+03 -0.74165296532E+02 -0.28314277742E+03  0.36033788984E+03  0.00000000000E+00 0. -1.
          1    1    5    5  503    0 -0.27307430050E+02  0.49691424124E+02 -0.10092889722E+03  0.11576517465E+03  0.00000000000E+00 0. -1.
         -2    1    5    5    0  503 -0.11664761698E+03  0.36338371113E+03 -0.11708138216E+04  0.12314460577E+04  0.00000000000E+00 0.  1.
         -1    1    6    6    0  502  0.22786110280E+03 -0.12669227318E+03 -0.46753063576E+03  0.53530973242E+03  0.00000000000E+00 0.  1.
<mgrwt>
<rscale>  0 0.21376635E+04</rscale>
<asrwt>0</asrwt>
<pdfrwt beam="1">  1        1 0.79208649E-01 0.21376635E+04</pdfrwt>
<pdfrwt beam="2">  1       -1 0.34136531E+00 0.21376635E+04</pdfrwt>
<totfact> 0.69206565E-01</totfact>
</mgrwt>
</event>
<event>
12    1  0.1114484E-007  0.2083668E+04  0.7818608E-02  0.8568472E-01
          1   -1    0    0  501    0  0.00000000000E+00  0.00000000000E+00  0.68114470698E+03  0.68114470698E+03  0.00000000000E+00 0. -1.
         -1   -1    0    0    0  501 -0.00000000000E+00 -0.00000000000E+00 -0.15935202715E+04  0.15935202715E+04  0.00000000000E+00 0.  1.
         23    2    1    2    0    0 -0.57845059621E+03  0.61230300216E+03 -0.44020003051E+03  0.95595320524E+03  0.10271516459E+03 0.  0.
        254    2    1    2    0    0  0.57845059621E+03 -0.61230300216E+03 -0.47217553404E+03  0.13187117733E+04  0.89807068056E+03 0.  0.
        -24    2    4    4    0    0  0.39773012942E+03  0.10452016008E+03 -0.38547070036E+03  0.56939971092E+03  0.80713383313E+02 0.  0.
         24    2    4    4    0    0  0.18072046679E+03 -0.71682316225E+03 -0.86704833681E+02  0.74931206234E+03  0.86345269352E+02 0.  0.
         11    1    3    3    0    0 -0.39715667398E+03  0.43060733055E+03 -0.35759138025E+03  0.68631457222E+03  0.00000000000E+00 0. -1.
        -11    1    3    3    0    0 -0.18129392224E+03  0.18169567162E+03 -0.82608650257E+02  0.26963863303E+03  0.00000000000E+00 0.  1.
          2    1    6    6  502    0  0.63874486007E+02 -0.42730924797E+03 -0.47766149753E+02  0.43468925502E+03  0.00000000000E+00 0. -1.
          3    1    5    5  503    0  0.29265291108E+03  0.45658778660E+02 -0.24520484944E+03  0.38452030976E+03  0.00000000000E+00 0. -1.
         -4    1    5    5    0  503  0.10507721834E+03  0.58861381424E+02 -0.14026585092E+03  0.18487940116E+03  0.00000000000E+00 0.  1.
         -1    1    6    6    0  502  0.11684598078E+03 -0.28951391427E+03 -0.38938683928E+02  0.31462280732E+03  0.00000000000E+00 0.  1.
<mgrwt>
<rscale>  0 0.20836678E+04</rscale>
<asrwt>0</asrwt>
<pdfrwt beam="1">  1        1 0.10479149E+00 0.20836678E+04</pdfrwt>
<pdfrwt beam="2">  1       -1 0.24515696E+00 0.20836678E+04</pdfrwt>
<totfact> 0.19611983E+00</totfact>
</mgrwt>
</event>
<event>
12    1  0.1114484E-007  0.2219922E+04  0.7818608E-02  0.8510182E-01
          2   -1    0    0  501    0  0.00000000000E+00  0.00000000000E+00  0.23163409672E+04  0.23163409672E+04  0.00000000000E+00 0. -1.
         -2   -1    0    0    0  501 -0.00000000000E+00 -0.00000000000E+00 -0.53187898560E+03  0.53187898560E+03  0.00000000000E+00 0.  1.
         23    2    1    2    0    0  0.59560182013E+03  0.43272306927E+03  0.14670207163E+04  0.16439285792E+04  0.91436363721E+02 0.  0.
        254    2    1    2    0    0 -0.59560182013E+03 -0.43272306927E+03  0.31744126533E+03  0.12042913736E+04  0.89864229417E+03 0.  0.
        -24    2    4    4    0    0 -0.19047986391E+03  0.20659126496E+03  0.33433500004E+03  0.44297852377E+03  0.74078005870E+02 0.  0.
         24    2    4    4    0    0 -0.40512195622E+03 -0.63931433423E+03 -0.16893734711E+02  0.76131284988E+03  0.80406714573E+02 0.  0.
         13    1    3    3    0    0  0.15441090536E+02  0.34869586312E+02  0.66468964866E+02  0.76631838142E+02  0.00000000000E+00 0.  1.
        -13    1    3    3    0    0  0.58016072959E+03  0.39785348296E+03  0.14005517514E+04  0.15672967410E+04  0.00000000000E+00 0. -1.
          4    1    6    6  502    0 -0.96581158728E+02 -0.22042224083E+03  0.30641724323E+01  0.24067254440E+03  0.00000000000E+00 0. -1.
          3    1    5    5  503    0 -0.10312737625E+03  0.58905560121E+02  0.12772928182E+03  0.17441298742E+03  0.00000000000E+00 0. -1.
         -4    1    5    5    0  503 -0.87352487663E+02  0.14768570484E+03  0.20660571822E+03  0.26856553635E+03  0.00000000000E+00 0.  1.
         -3    1    6    6    0  502 -0.30854079749E+03 -0.41889209340E+03 -0.19957907143E+02  0.52064030547E+03  0.00000000000E+00 0.  1.
<mgrwt>
<rscale>  0 0.22199217E+04</rscale>
<asrwt>0</asrwt>
<pdfrwt beam="1">  1        2 0.35636014E+00 0.22199217E+04</pdfrwt>
<pdfrwt beam="2">  1       -2 0.81827537E-01 0.22199217E+04</pdfrwt>
<totfact> 0.53191115E+00</totfact>
</mgrwt>
</event>
<event>
12    1  0.1114484E-007  0.1426360E+04  0.7818608E-02  0.8934956E-01
          2   -1    0    0  501    0  0.00000000000E+00  0.00000000000E+00  0.11662425979E+04  0.11662425979E+04  0.00000000000E+00 0. -1.
         -2   -1    0    0    0  501 -0.00000000000E+00 -0.00000000000E+00 -0.43612328934E+03  0.43612328934E+03  0.00000000000E+00 0.  1.
         23    2    1    2    0    0 -0.22472550807E+03 -0.90412357859E+02 -0.16392233163E+03  0.30891388904E+03  0.99404786632E+02 0.  0.
        254    2    1    2    0    0  0.22472550807E+03  0.90412357859E+02  0.89404164018E+03  0.12934519982E+04  0.90279104382E+03 0.  0.
        -24    2    4    4    0    0 -0.24046878844E+03  0.26400772166E+03  0.62120651122E+03  0.72079969250E+03  0.78290177076E+02 0.  0.
         24    2    4    4    0    0  0.46519429651E+03 -0.17359536380E+03  0.27283512896E+03  0.57265230568E+03  0.83370089121E+02 0.  0.
         13    1    3    3    0    0 -0.16505515540E+03 -0.10808280623E+03 -0.14139774220E+03  0.24273116575E+03  0.00000000000E+00 0.  1.
        -13    1    3    3    0    0 -0.59670352675E+02  0.17670448369E+02 -0.22524589423E+02  0.66182723294E+02  0.00000000000E+00 0. -1.
          4    1    6    6  502    0  0.59345016796E+02 -0.14518278001E+02  0.56112567310E+01  0.61352242149E+02  0.00000000000E+00 0. -1.
          1    1    5    5  503    0 -0.35896363984E+02  0.70481168440E+02  0.18973915534E+03  0.20556529649E+03  0.00000000000E+00 0. -1.
         -2    1    5    5    0  503 -0.20457242446E+03  0.19352655322E+03  0.43146735587E+03  0.51523439601E+03  0.00000000000E+00 0.  1.
         -3    1    6    6    0  502  0.40584927972E+03 -0.15907708580E+03  0.26722387223E+03  0.51130006353E+03  0.00000000000E+00 0.  1.
<mgrwt>
<rscale>  0 0.14263598E+04</rscale>
<asrwt>0</asrwt>
<pdfrwt beam="1">  1        2 0.17942194E+00 0.14263598E+04</pdfrwt>
<pdfrwt beam="2">  1       -2 0.67095891E-01 0.14263598E+04</pdfrwt>
<totfact> 0.39308098E+01</totfact>
</mgrwt>
</event>
<event>
12    1  0.1114484E-007  0.3588066E+04  0.7818608E-02  0.8093231E-01
         -1   -1    0    0    0  501 -0.00000000000E+00  0.00000000000E+00  0.24093328743E+04  0.24093328743E+04  0.00000000000E+00 0.  1.
          1   -1    0    0  501    0  0.00000000000E+00 -0.00000000000E+00 -0.13358693011E+04  0.13358693011E+04  0.00000000000E+00 0. -1.
         23    2    1    2    0    0  0.80728781390E+03  0.13467208242E+04 -0.10342458910E+03  0.15759405415E+04  0.86725726744E+02 0.  0.
        254    2    1    2    0    0 -0.80728781390E+03 -0.13467208242E+04  0.11768881624E+04  0.21692616339E+04  0.92480251774E+03 0.  0.
        -24    2    4    4    0    0 -0.45009712108E+03 -0.13817460200E+04  0.93415867053E+03  0.17294544607E+04  0.80937183359E+02 0.  0.
         24    2    4    4    0    0 -0.35719069282E+03  0.35025195798E+02  0.24272949183E+03  0.43980717322E+03  0.75503563051E+02 0.  0.
         13    1    3    3    0    0  0.25373981891E+03  0.38686179508E+03 -0.65412047697E+02  0.46725226610E+03  0.00000000000E+00 0.  1.
        -13    1    3    3    0    0  0.55354799499E+03  0.95985902916E+03 -0.38012541402E+02  0.11086882754E+04  0.00000000000E+00 0. -1.
          4    1    6    6  502    0 -0.23056327901E+03  0.23799590421E+02  0.19862308640E+03  0.30524904027E+03  0.00000000000E+00 0. -1.
          3    1    5    5  503    0 -0.35227205394E+03 -0.11527982235E+04  0.74884711245E+03  0.14190882079E+04  0.00000000000E+00 0. -1.
         -4    1    5    5    0  503 -0.97825067142E+02 -0.22894779654E+03  0.18531155808E+03  0.31036625277E+03  0.00000000000E+00 0.  1.
         -3    1    6    6    0  502 -0.12662741380E+03  0.11225605378E+02  0.44106405429E+02  0.13455813295E+03  0.00000000000E+00 0.  1.
<mgrwt>
<rscale>  0 0.35880657E+04</rscale>
<asrwt>0</asrwt>
<pdfrwt beam="1">  1        1 0.20551835E+00 0.35880657E+04</pdfrwt>
<pdfrwt beam="2">  1       -1 0.37066660E+00 0.35880657E+04</pdfrwt>
<totfact> 0.78057179E-02</totfact>
</mgrwt>
</event>
<event>
12    1  0.1114484E-007  0.1606985E+04  0.7818608E-02  0.8816268E-01
          2   -1    0    0  501    0  0.00000000000E+00  0.00000000000E+00  0.17918270047E+04  0.17918270047E+04  0.00000000000E+00 0. -1.
         -2   -1    0    0    0  501 -0.00000000000E+00 -0.00000000000E+00 -0.36030284623E+03  0.36030284623E+03  0.00000000000E+00 0.  1.
         23    2    1    2    0    0 -0.13598463029E+03 -0.47293451004E+03  0.17380915798E+03  0.53002016259E+03  0.92481775996E+02 0.  0.
        254    2    1    2    0    0  0.13598463029E+03  0.47293451004E+03  0.12577150005E+04  0.16221096883E+04  0.89846199035E+03 0.  0.
        -24    2    4    4    0    0  0.39547747092E+03  0.58520925728E+03  0.10246401952E+04  0.12470648897E+04  0.80068751025E+02 0.  0.
         24    2    4    4    0    0 -0.25949284063E+03 -0.11227474725E+03  0.23307480531E+03  0.37504479858E+03  0.79953629434E+02 0.  0.
         13    1    3    3    0    0 -0.54810381730E+02 -0.31630852806E+03  0.14082228455E+03  0.35055124974E+03  0.00000000000E+00 0.  1.
        -13    1    3    3    0    0 -0.81174248558E+02 -0.15662598198E+03  0.32986873430E+02  0.17946891285E+03  0.00000000000E+00 0. -1.
          4    1    6    6  502    0 -0.24250865454E+03 -0.93114655303E+02  0.23371437585E+03  0.34943267740E+03  0.00000000000E+00 0. -1.
          3    1    5    5  503    0  0.19393420268E+03  0.22478306516E+03  0.39610431902E+03  0.49501164926E+03  0.00000000000E+00 0. -1.
         -4    1    5    5    0  503  0.20154326824E+03  0.36042619212E+03  0.62853587613E+03  0.75205324049E+03  0.00000000000E+00 0.  1.
         -3    1    6    6    0  502 -0.16984186089E+02 -0.19160091944E+02 -0.63957053705E+00  0.25612121172E+02  0.00000000000E+00 0.  1.
<mgrwt>
<rscale>  0 0.16069852E+04</rscale>
<asrwt>0</asrwt>
<pdfrwt beam="1">  1        2 0.27566569E+00 0.16069852E+04</pdfrwt>
<pdfrwt beam="2">  1       -2 0.55431208E-01 0.16069852E+04</pdfrwt>
<totfact> 0.25560330E+01</totfact>
</mgrwt>
</event>
<event>
12    1  0.1114484E-007  0.1582267E+04  0.7818608E-02  0.8831517E-01
         -1   -1    0    0    0  501 -0.00000000000E+00  0.00000000000E+00  0.49694921508E+03  0.49694921508E+03  0.00000000000E+00 0.  1.
          1   -1    0    0  501    0  0.00000000000E+00 -0.00000000000E+00 -0.12594691968E+04  0.12594691968E+04  0.00000000000E+00 0. -1.
         23    2    1    2    0    0  0.16787814435E+03  0.42427467246E+03  0.37257865805E+02  0.46753090898E+03  0.94894326707E+02 0.  0.
        254    2    1    2    0    0 -0.16787814435E+03 -0.42427467246E+03 -0.79977784758E+03  0.12888875029E+04  0.90188376232E+03 0.  0.
        -24    2    4    4    0    0 -0.44072761766E+03 -0.14622606074E+03 -0.75341905689E+03  0.88865040364E+03  0.80226995423E+02 0.  0.
         24    2    4    4    0    0  0.27284947331E+03 -0.27804861172E+03 -0.46358790688E+02  0.40023709931E+03  0.79263690469E+02 0.  0.
         13    1    3    3    0    0 -0.25904500398E+01 -0.82172147292E+00 -0.68887904166E+01  0.74054770941E+01  0.00000000000E+00 0. -1.
        -13    1    3    3    0    0  0.17046859439E+03  0.42509639393E+03  0.44146656222E+02  0.46012543188E+03  0.00000000000E+00 0.  1.
          2    1    6    6  502    0  0.19506323124E+03 -0.24396674837E+03 -0.42333068117E+02  0.31521663526E+03  0.00000000000E+00 0. -1.
          1    1    5    5  503    0 -0.38631629344E+03 -0.15455481640E+03 -0.67117142347E+03  0.78968256251E+03  0.00000000000E+00 0. -1.
         -2    1    5    5    0  503 -0.54411324214E+02  0.83287556668E+01 -0.82247633422E+02  0.98967841127E+02  0.00000000000E+00 0.  1.
         -1    1    6    6    0  502  0.77786242067E+02 -0.34081863354E+02 -0.40257225713E+01  0.85020464047E+02  0.00000000000E+00 0.  1.
<mgrwt>
<rscale>  0 0.15822670E+04</rscale>
<asrwt>0</asrwt>
<pdfrwt beam="1">  1        1 0.19376449E+00 0.15822670E+04</pdfrwt>
<pdfrwt beam="2">  1       -1 0.76453726E-01 0.15822670E+04</pdfrwt>
<totfact> 0.15962871E+01</totfact>
</mgrwt>
</event>
<event>
12    1  0.1114484E-007  0.1485752E+04  0.7818608E-02  0.8893983E-01
          2   -1    0    0  501    0  0.00000000000E+00  0.00000000000E+00  0.46877422857E+03  0.46877422857E+03  0.00000000000E+00 0. -1.
         -2   -1    0    0    0  501 -0.00000000000E+00 -0.00000000000E+00 -0.11772512111E+04  0.11772512111E+04  0.00000000000E+00 0.  1.
         23    2    1    2    0    0  0.84297304781E+02 -0.15785974875E+03  0.24879146688E+03  0.31956486752E+03  0.90547085499E+02 0.  0.
        254    2    1    2    0    0 -0.84297304781E+02  0.15785974875E+03 -0.95726844943E+03  0.13264605722E+04  0.90061591668E+03 0.  0.
        -24    2    4    4    0    0  0.10328170517E+02  0.44462203195E+03 -0.90316044659E+03  0.10099029845E+04  0.80061372848E+02 0.  0.
         24    2    4    4    0    0 -0.94625475298E+02 -0.28676228320E+03 -0.54108002846E+02  0.31655758767E+03  0.78066911671E+02 0.  0.
         11    1    3    3    0    0  0.16904174107E+02 -0.11644774711E+03  0.17821305109E+03  0.21355495894E+03  0.00000000000E+00 0. -1.
        -11    1    3    3    0    0  0.67393130674E+02 -0.41412001638E+02  0.70578415797E+02  0.10600990858E+03  0.00000000000E+00 0.  1.
          4    1    6    6  502    0 -0.68769119992E+02 -0.12500970184E+03  0.40484704462E+01  0.14273404476E+03  0.00000000000E+00 0. -1.
          1    1    5    5  503    0  0.41585019639E+02  0.15774501273E+03 -0.31252343307E+03  0.35253893277E+03  0.00000000000E+00 0. -1.
         -2    1    5    5    0  503 -0.31256849122E+02  0.28687701922E+03 -0.59063701352E+03  0.65736405174E+03  0.00000000000E+00 0.  1.
         -3    1    6    6    0  502 -0.25856355306E+02 -0.16175258136E+03 -0.58156473292E+02  0.17382354292E+03  0.00000000000E+00 0.  1.
<mgrwt>
<rscale>  0 0.14857524E+04</rscale>
<asrwt>0</asrwt>
<pdfrwt beam="1">  1        2 0.72119114E-01 0.14857524E+04</pdfrwt>
<pdfrwt beam="2">  1       -2 0.18111557E+00 0.14857524E+04</pdfrwt>
<totfact> 0.11420551E+01</totfact>
</mgrwt>
</event>
<event>
12    1  0.1114484E-007  0.1352083E+04  0.7818608E-02  0.8989253E-01
         -2   -1    0    0    0  501 -0.00000000000E+00  0.00000000000E+00  0.52872466199E+03  0.52872466199E+03  0.00000000000E+00 0.  1.
          2   -1    0    0  501    0  0.00000000000E+00 -0.00000000000E+00 -0.86440430930E+03  0.86440430930E+03  0.00000000000E+00 0. -1.
         23    2    1    2    0    0  0.18971262575E+03 -0.31382115884E+03 -0.82983666803E+02  0.38872838298E+03  0.98736349282E+02 0.  0.
        254    2    1    2    0    0 -0.18971262575E+03  0.31382115884E+03 -0.25269598050E+03  0.10044005883E+04  0.90027256047E+03 0.  0.
        -24    2    4    4    0    0 -0.52768687311E+03  0.31313073089E+03 -0.10800470997E+03  0.62807334766E+03  0.79415502176E+02 0.  0.
         24    2    4    4    0    0  0.33797424736E+03  0.69042794803E+00 -0.14469127053E+03  0.37632724065E+03  0.80371386160E+02 0.  0.
         13    1    3    3    0    0  0.22114282169E+02 -0.22377910941E+02 -0.38315428217E+02  0.49577055312E+02  0.00000000000E+00 0.  1.
        -13    1    3    3    0    0  0.16759834358E+03 -0.29144324790E+03 -0.44668238586E+02  0.33915132766E+03  0.00000000000E+00 0. -1.
          2    1    6    6  502    0  0.64556839710E+02  0.14490353184E+02  0.10784956014E+01  0.66171890116E+02  0.00000000000E+00 0. -1.
          3    1    5    5  503    0 -0.95530699832E+02  0.54723448232E+02  0.11114902340E+02  0.11065401688E+03  0.00000000000E+00 0. -1.
         -4    1    5    5    0  503 -0.43215617328E+03  0.25840728266E+03 -0.11911961231E+03  0.51741933079E+03  0.00000000000E+00 0.  1.
         -1    1    6    6    0  502  0.27341740765E+03 -0.13799925236E+02 -0.14576976614E+03  0.31015535053E+03  0.00000000000E+00 0.  1.
<mgrwt>
<rscale>  0 0.13520827E+04</rscale>
<asrwt>0</asrwt>
<pdfrwt beam="1">  1        2 0.13298528E+00 0.13520827E+04</pdfrwt>
<pdfrwt beam="2">  1       -2 0.81342256E-01 0.13520827E+04</pdfrwt>
<totfact> 0.40342219E+01</totfact>
</mgrwt>
</event>
<event>
12    1  0.1114484E-007  0.1370543E+04  0.7818608E-02  0.8975422E-01
          1   -1    0    0  501    0  0.00000000000E+00  0.00000000000E+00  0.52662041702E+03  0.52662041702E+03  0.00000000000E+00 0. -1.
         -1   -1    0    0    0  501 -0.00000000000E+00 -0.00000000000E+00 -0.89171766068E+03  0.89171766068E+03  0.00000000000E+00 0.  1.
         23    2    1    2    0    0  0.74629329964E+02 -0.12727671967E+03 -0.53305510720E+03  0.56061776178E+03  0.91518453110E+02 0.  0.
        254    2    1    2    0    0 -0.74629329964E+02  0.12727671967E+03  0.16795786353E+03  0.85772031592E+03  0.82807330361E+03 0.  0.
        -24    2    4    4    0    0 -0.35160854029E+03  0.64452780154E+02  0.35355518534E+03  0.50907569963E+03  0.79837787999E+02 0.  0.
         24    2    4    4    0    0  0.27697921033E+03  0.62823939515E+02 -0.18559732181E+03  0.34864461629E+03  0.80264389847E+02 0.  0.
         11    1    3    3    0    0  0.20443839444E+02  0.20897937301E+01 -0.19774281878E+02  0.28519116972E+02  0.00000000000E+00 0. -1.
        -11    1    3    3    0    0  0.54185490519E+02 -0.12936651340E+03 -0.51328082532E+03  0.53209864481E+03  0.00000000000E+00 0.  1.
          4    1    6    6  502    0  0.27773897766E+03  0.71167640155E+02 -0.18134734112E+03  0.33925010073E+03  0.00000000000E+00 0. -1.
          3    1    5    5  503    0 -0.31498696281E+03  0.75573996405E+02  0.33680982193E+03  0.46729976655E+03  0.00000000000E+00 0. -1.
         -4    1    5    5    0  503 -0.36621577485E+02 -0.11121216251E+02  0.16745363408E+02  0.41775933072E+02  0.00000000000E+00 0.  1.
         -3    1    6    6    0  502 -0.75976733021E+00 -0.83437006399E+01 -0.42499806915E+01  0.93945155619E+01  0.00000000000E+00 0.  1.
<mgrwt>
<rscale>  0 0.13705426E+04</rscale>
<asrwt>0</asrwt>
<pdfrwt beam="1">  1        1 0.81018525E-01 0.13705426E+04</pdfrwt>
<pdfrwt beam="2">  1       -1 0.13718733E+00 0.13705426E+04</pdfrwt>
<totfact> 0.17813525E+01</totfact>
</mgrwt>
</event>
<event>
12    1  0.1114484E-007  0.1344755E+04  0.7818608E-02  0.8994808E-01
          2   -1    0    0  501    0  0.00000000000E+00  0.00000000000E+00  0.50369409010E+03  0.50369409010E+03  0.00000000000E+00 0. -1.
         -2   -1    0    0    0  501 -0.00000000000E+00 -0.00000000000E+00 -0.89755162965E+03  0.89755162965E+03  0.00000000000E+00 0.  1.
         23    2    1    2    0    0 -0.45914451984E+02  0.17406336092E+03 -0.43349202601E+03  0.47929209433E+03  0.96950423180E+02 0.  0.
        254    2    1    2    0    0  0.45914451984E+02 -0.17406336092E+03  0.39634486461E+02  0.92195362542E+03  0.90333903071E+03 0.  0.
        -24    2    4    4    0    0 -0.40846338010E+02 -0.52165061100E+03  0.12767872582E+03  0.54449170580E+03  0.79884775644E+02 0.  0.
         24    2    4    4    0    0  0.86760789993E+02  0.34758725008E+03 -0.88044239355E+02  0.37746191962E+03  0.79883550112E+02 0.  0.
         11    1    3    3    0    0 -0.53640410068E+02  0.14414471815E+03 -0.41658318585E+03  0.44406817506E+03  0.00000000000E+00 0.  1.
        -11    1    3    3    0    0  0.77259580838E+01  0.29918642767E+02 -0.16908840160E+02  0.35223919272E+02  0.00000000000E+00 0. -1.
          2    1    6    6  502    0  0.10135602101E+03  0.29064897881E+03 -0.66942684385E+02  0.31500983298E+03  0.00000000000E+00 0. -1.
          1    1    5    5  503    0 -0.56601572166E+02 -0.25383230879E+03  0.46442185806E+02  0.26418072522E+03  0.00000000000E+00 0. -1.
         -2    1    5    5    0  503  0.15755234156E+02 -0.26781830221E+03  0.81236540011E+02  0.28031098058E+03  0.00000000000E+00 0.  1.
         -1    1    6    6    0  502 -0.14595231018E+02  0.56938271271E+02 -0.21101554970E+02  0.62452086642E+02  0.00000000000E+00 0.  1.
<mgrwt>
<rscale>  0 0.13447549E+04</rscale>
<asrwt>0</asrwt>
<pdfrwt beam="1">  1        2 0.77491400E-01 0.13447549E+04</pdfrwt>
<pdfrwt beam="2">  1       -2 0.13808486E+00 0.13447549E+04</pdfrwt>
<totfact> 0.22191148E+01</totfact>
</mgrwt>
</event>
<event>
12    1  0.1114484E-007  0.1677494E+04  0.7818608E-02  0.8774306E-01
          1   -1    0    0  501    0  0.00000000000E+00  0.00000000000E+00  0.11549339592E+04  0.11549339592E+04  0.00000000000E+00 0. -1.
         -1   -1    0    0    0  501 -0.00000000000E+00 -0.00000000000E+00 -0.60912241525E+03  0.60912241525E+03  0.00000000000E+00 0.  1.
         23    2    1    2    0    0 -0.48449898616E+03  0.21421427970E+03 -0.10002020015E+03  0.54683279412E+03  0.91624445811E+02 0.  0.
        254    2    1    2    0    0  0.48449898616E+03 -0.21421427970E+03  0.64583174413E+03  0.12172235803E+04  0.88538555308E+03 0.  0.
        -24    2    4    4    0    0  0.65016925220E+03  0.10386760791E+03  0.38864375495E+03  0.76883538459E+03  0.80965078018E+02 0.  0.
         24    2    4    4    0    0 -0.16567026604E+03 -0.31808188761E+03  0.25718798918E+03  0.44838819575E+03  0.79269086276E+02 0.  0.
         13    1    3    3    0    0 -0.46022983445E+03  0.18262266896E+03 -0.77789301614E+02  0.50121224564E+03  0.00000000000E+00 0.  1.
        -13    1    3    3    0    0 -0.24269151716E+02  0.31591610744E+02 -0.22230898535E+02  0.45620548485E+02  0.00000000000E+00 0. -1.
          4    1    6    6  502    0 -0.71099890405E+02 -0.21931769019E+03  0.16094482348E+03  0.28117375385E+03  0.00000000000E+00 0. -1.
          3    1    5    5  503    0  0.65216579103E+03  0.10426645988E+03  0.38936064405E+03  0.76667687117E+03  0.00000000000E+00 0. -1.
         -4    1    5    5    0  503 -0.19965388311E+01 -0.39885196951E+00 -0.71688910659E+00  0.21585134210E+01  0.00000000000E+00 0.  1.
         -3    1    6    6    0  502 -0.94570375634E+02 -0.98764197420E+02  0.96243165695E+02  0.16721444191E+03  0.00000000000E+00 0.  1.
<mgrwt>
<rscale>  0 0.16774936E+04</rscale>
<asrwt>0</asrwt>
<pdfrwt beam="1">  1        1 0.17768215E+00 0.16774936E+04</pdfrwt>
<pdfrwt beam="2">  1       -1 0.93711141E-01 0.16774936E+04</pdfrwt>
<totfact> 0.12143581E+01</totfact>
</mgrwt>
</event>
<event>
12    1  0.1114484E-007  0.2117150E+04  0.7818608E-02  0.8553726E-01
          2   -1    0    0  501    0  0.00000000000E+00  0.00000000000E+00  0.28263918847E+04  0.28263918847E+04  0.00000000000E+00 0. -1.
         -2   -1    0    0    0  501 -0.00000000000E+00 -0.00000000000E+00 -0.39647067449E+03  0.39647067449E+03  0.00000000000E+00 0.  1.
         23    2    1    2    0    0  0.69814506455E+03 -0.34362585506E+03  0.15869892973E+04  0.17698099814E+04  0.90592942602E+02 0.  0.
        254    2    1    2    0    0 -0.69814506455E+03  0.34362585506E+03  0.84293191296E+03  0.14530525778E+04  0.89181967041E+03 0.  0.
        -24    2    4    4    0    0 -0.64928683884E+03 -0.11619379969E+03  0.27920313110E+03  0.71965596105E+03  0.69827757288E+02 0.  0.
         24    2    4    4    0    0 -0.48858225709E+02  0.45981965475E+03  0.56372878186E+03  0.73339661674E+03  0.79115212404E+02 0.  0.
         11    1    3    3    0    0  0.27974669982E+03 -0.17674744828E+03  0.73563950534E+03  0.80663706730E+03  0.00000000000E+00 0.  1.
        -11    1    3    3    0    0  0.41839836473E+03 -0.16687840678E+03  0.85134979195E+03  0.96317291413E+03  0.00000000000E+00 0. -1.
          2    1    6    6  502    0 -0.64579989251E+02  0.32760189242E+03  0.43306414538E+03  0.54684378843E+03  0.00000000000E+00 0. -1.
          1    1    5    5  503    0 -0.62455539111E+03 -0.98359288364E+02  0.26002632595E+03  0.68363563129E+03  0.00000000000E+00 0. -1.
         -2    1    5    5    0  503 -0.24731447725E+02 -0.17834511326E+02  0.19176805149E+02  0.36020329767E+02  0.00000000000E+00 0.  1.
         -3    1    6    6    0  502  0.15721763543E+02  0.13221776233E+03  0.13066463648E+03  0.18655282832E+03  0.00000000000E+00 0.  1.
<mgrwt>
<rscale>  0 0.21171504E+04</rscale>
<asrwt>0</asrwt>
<pdfrwt beam="1">  1        2 0.43482951E+00 0.21171504E+04</pdfrwt>
<pdfrwt beam="2">  1       -2 0.60995490E-01 0.21171504E+04</pdfrwt>
<totfact> 0.51351792E+00</totfact>
</mgrwt>
</event>
<event>
12    1  0.1114484E-007  0.2544311E+04  0.7818608E-02  0.8387367E-01
          2   -1    0    0  501    0  0.00000000000E+00  0.00000000000E+00  0.25191538597E+04  0.25191538597E+04  0.00000000000E+00 0. -1.
         -2   -1    0    0    0  501 -0.00000000000E+00 -0.00000000000E+00 -0.64242980459E+03  0.64242980459E+03  0.00000000000E+00 0.  1.
         23    2    1    2    0    0  0.50197859255E+03  0.83858390133E+03  0.19815587213E+03  0.10013785731E+04  0.91037520417E+02 0.  0.
        254    2    1    2    0    0 -0.50197859255E+03 -0.83858390133E+03  0.16785681830E+04  0.21602050912E+04  0.94535148173E+03 0.  0.
        -24    2    4    4    0    0 -0.21563488224E+03  0.16104269170E+03  0.18557868138E+03  0.33907365171E+03  0.89990795714E+02 0.  0.
         24    2    4    4    0    0 -0.28634371031E+03 -0.99962659304E+03  0.14929895016E+04  0.18211314395E+04  0.79095018275E+02 0.  0.
         13    1    3    3    0    0  0.67786270287E+02  0.63681107508E+02  0.11398877496E+02  0.93702701674E+02  0.00000000000E+00 0. -1.
        -13    1    3    3    0    0  0.43419232226E+03  0.77490279382E+03  0.18675699463E+03  0.90767587146E+03  0.00000000000E+00 0.  1.
          2    1    6    6  502    0 -0.21619737252E+03 -0.81411036729E+03  0.11603446214E+04  0.14338467960E+04  0.00000000000E+00 0. -1.
          3    1    5    5  503    0 -0.14727339758E+03  0.90074845364E+02  0.16417915058E+03  0.23823879803E+03  0.00000000000E+00 0. -1.
         -4    1    5    5    0  503 -0.68361484660E+02  0.70967846339E+02  0.21399530805E+02  0.10083485368E+03  0.00000000000E+00 0.  1.
         -1    1    6    6    0  502 -0.70146337787E+02 -0.18551622575E+03  0.33264488019E+03  0.38728464343E+03  0.00000000000E+00 0.  1.
<mgrwt>
<rscale>  0 0.25443109E+04</rscale>
<asrwt>0</asrwt>
<pdfrwt beam="1">  1        2 0.38756213E+00 0.25443109E+04</pdfrwt>
<pdfrwt beam="2">  1       -2 0.98835355E-01 0.25443109E+04</pdfrwt>
<totfact> 0.25600804E+00</totfact>
</mgrwt>
</event>
<event>
12    1  0.1114484E-007  0.1196087E+04  0.7818608E-02  0.9116288E-01
          1   -1    0    0  501    0  0.00000000000E+00  0.00000000000E+00  0.10950895536E+04  0.10950895536E+04  0.00000000000E+00 0. -1.
         -1   -1    0    0    0  501 -0.00000000000E+00 -0.00000000000E+00 -0.32660000284E+03  0.32660000284E+03  0.00000000000E+00 0.  1.
         23    2    1    2    0    0 -0.16280007521E+03  0.18193561983E+03  0.13450452899E+03  0.29263468290E+03  0.89101936386E+02 0.  0.
        254    2    1    2    0    0  0.16280007521E+03 -0.18193561983E+03  0.63398502181E+03  0.11290548736E+04  0.90178903598E+03 0.  0.
        -24    2    4    4    0    0 -0.28566319889E+03 -0.33529449763E+03  0.36955940531E+03  0.58044415228E+03  0.79469469110E+02 0.  0.
         24    2    4    4    0    0  0.44846327410E+03  0.15335887780E+03  0.26442561650E+03  0.54861072130E+03  0.80090968610E+02 0.  0.
         11    1    3    3    0    0 -0.31150325779E+02  0.40357273072E+02 -0.91252838489E+01  0.51791148773E+02  0.00000000000E+00 0. -1.
        -11    1    3    3    0    0 -0.13164974943E+03  0.14157834676E+03  0.14362981284E+03  0.24084353413E+03  0.00000000000E+00 0.  1.
          2    1    6    6  502    0  0.40980807840E+03  0.14771635403E+03  0.26433712197E+03  0.50954577461E+03  0.00000000000E+00 0. -1.
          1    1    5    5  503    0 -0.23731021603E+03 -0.23777157437E+03  0.24995973977E+03  0.41872584314E+03  0.00000000000E+00 0. -1.
         -2    1    5    5    0  503 -0.48352982863E+02 -0.97522923258E+02  0.11959966554E+03  0.16171830913E+03  0.00000000000E+00 0.  1.
         -1    1    6    6    0  502  0.38655195693E+02  0.56425237684E+01  0.88494526884E-01  0.39064946689E+02  0.00000000000E+00 0.  1.
<mgrwt>
<rscale>  0 0.11960874E+04</rscale>
<asrwt>0</asrwt>
<pdfrwt beam="1">  1        1 0.16847531E+00 0.11960874E+04</pdfrwt>
<pdfrwt beam="2">  1       -1 0.50246155E-01 0.11960874E+04</pdfrwt>
<totfact> 0.50325235E+01</totfact>
</mgrwt>
</event>
<event>
12    1  0.1154347E-007  0.1959772E+04  0.7818608E-02  0.8625663E-01
         -2   -1    0    0    0  501 -0.00000000000E+00  0.00000000000E+00  0.86120718279E+03  0.86120718279E+03  0.00000000000E+00 0.  1.
          2   -1    0    0  501    0  0.00000000000E+00 -0.00000000000E+00 -0.11149192461E+04  0.11149192461E+04  0.00000000000E+00 0. -1.
         23    2    1    2    0    0 -0.60659908696E+03 -0.23373083141E+02 -0.57832446491E+03  0.84344868033E+03  0.91857151706E+02 0.  0.
        254    2    1    2    0    0  0.60659908696E+03  0.23373083141E+02  0.32461240160E+03  0.11326777486E+04  0.89948703021E+03 0.  0.
        -24    2    4    4    0    0 -0.88578012867E+02 -0.27467557290E+03  0.20437086836E+03  0.36270224375E+03  0.80577484916E+02 0.  0.
         24    2    4    4    0    0  0.69517709983E+03  0.29804865604E+03  0.12024153324E+03  0.76997550482E+03  0.79372855641E+02 0.  0.
         11    1    3    3    0    0 -0.55557631674E+03 -0.29729137774E+02 -0.55852217493E+03  0.78835010321E+03  0.00000000000E+00 0. -1.
        -11    1    3    3    0    0 -0.51022770221E+02  0.63560546334E+01 -0.19802289985E+02  0.55098577115E+02  0.00000000000E+00 0.  1.
          4    1    6    6  502    0  0.11513196565E+03  0.51839394890E+02  0.50511933823E+02  0.13599319040E+03  0.00000000000E+00 0. -1.
          3    1    5    5  503    0 -0.42145498671E+02 -0.63448035195E+02  0.20622039879E+02  0.78912386588E+02  0.00000000000E+00 0. -1.
         -4    1    5    5    0  503 -0.46432514196E+02 -0.21122753771E+03  0.18374882848E+03  0.28378985716E+03  0.00000000000E+00 0.  1.
         -3    1    6    6    0  502  0.58004513417E+03  0.24620926115E+03  0.69729599422E+02  0.63398231442E+03  0.00000000000E+00 0.  1.
<mgrwt>
<rscale>  0 0.19597719E+04</rscale>
<asrwt>0</asrwt>
<pdfrwt beam="1">  1        2 0.17152604E+00 0.19597719E+04</pdfrwt>
<pdfrwt beam="2">  1       -2 0.13249341E+00 0.19597719E+04</pdfrwt>
<totfact> 0.82282402E+00</totfact>
</mgrwt>
</event>
<event>
12    1  0.1114484E-007  0.2061866E+04  0.7818608E-02  0.8578230E-01
          1   -1    0    0  501    0  0.00000000000E+00  0.00000000000E+00  0.32318542664E+04  0.32318542664E+04  0.00000000000E+00 0. -1.
         -1   -1    0    0    0  501 -0.00000000000E+00 -0.00000000000E+00 -0.32885846688E+03  0.32885846688E+03  0.00000000000E+00 0.  1.
         23    2    1    2    0    0  0.35060653313E+03 -0.71786881406E+03  0.77725297207E+03  0.11177473555E+04  0.83524803254E+02 0.  0.
        254    2    1    2    0    0 -0.35060653313E+03  0.71786881406E+03  0.21257428275E+04  0.24429653778E+04  0.90057575670E+03 0.  0.
        -24    2    4    4    0    0 -0.41351542133E+03  0.11910595644E+03  0.15315297229E+04  0.15931861239E+04  0.86472542637E+02 0.  0.
         24    2    4    4    0    0  0.62908888201E+02  0.59876285762E+03  0.59421310457E+03  0.84977925398E+03  0.81000487454E+02 0.  0.
         13    1    3    3    0    0  0.71727897760E+02 -0.19783924406E+03  0.16494846596E+03  0.26738222497E+03  0.00000000000E+00 0. -1.
        -13    1    3    3    0    0  0.27887863537E+03 -0.52002957000E+03  0.61230450611E+03  0.85036513048E+03  0.00000000000E+00 0.  1.
          4    1    6    6  502    0 -0.58878546442E+01  0.20545044240E+03  0.24043769906E+03  0.31631446101E+03  0.00000000000E+00 0. -1.
          3    1    5    5  503    0 -0.22765023084E+03  0.10495946156E+03  0.80525990238E+03  0.84337691843E+03  0.00000000000E+00 0. -1.
         -4    1    5    5    0  503 -0.18586519049E+03  0.14146494876E+02  0.72626982051E+03  0.74980920542E+03  0.00000000000E+00 0.  1.
         -3    1    6    6    0  502  0.68796742845E+02  0.39331241522E+03  0.35377540551E+03  0.53346479297E+03  0.00000000000E+00 0.  1.
<mgrwt>
<rscale>  0 0.20618658E+04</rscale>
<asrwt>0</asrwt>
<pdfrwt beam="1">  1        1 0.49720833E+00 0.20618658E+04</pdfrwt>
<pdfrwt beam="2">  1       -1 0.50593612E-01 0.20618658E+04</pdfrwt>
<totfact> 0.14602516E+00</totfact>
</mgrwt>
</event>
<event>
12    1  0.1114484E-007  0.2427817E+04  0.7818608E-02  0.8429162E-01
          4   -1    0    0  501    0  0.00000000000E+00  0.00000000000E+00  0.16969522553E+04  0.16969522553E+04  0.00000000000E+00 0. -1.
         -4   -1    0    0    0  501 -0.00000000000E+00 -0.00000000000E+00 -0.86836506635E+03  0.86836506635E+03  0.00000000000E+00 0.  1.
         23    2    1    2    0    0  0.36084025411E+03  0.59090043508E+03 -0.46834150348E+03  0.84122374951E+03  0.94575999534E+02 0.  0.
        254    2    1    2    0    0 -0.36084025411E+03 -0.59090043508E+03  0.12969286924E+04  0.17240935722E+04  0.90061401230E+03 0.  0.
        -24    2    4    4    0    0 -0.12667776706E+03 -0.62852202123E+03  0.33205322530E+03  0.72733265905E+03  0.87557207877E+02 0.  0.
         24    2    4    4    0    0 -0.23416248704E+03  0.37621586146E+02  0.96487546715E+03  0.99676091312E+03  0.79373778689E+02 0.  0.
         13    1    3    3    0    0  0.14707452079E+03  0.26020435616E+03 -0.25773070898E+03  0.39466737892E+03  0.00000000000E+00 0. -1.
        -13    1    3    3    0    0  0.21376573331E+03  0.33069607892E+03 -0.21061079450E+03  0.44655637059E+03  0.00000000000E+00 0.  1.
          4    1    6    6  502    0 -0.14265505950E+03  0.61770846759E+02  0.60064126805E+03  0.62043213682E+03  0.00000000000E+00 0. -1.
          1    1    5    5  503    0 -0.11763475597E+03 -0.38746184329E+03  0.18884105105E+03  0.44679476092E+03  0.00000000000E+00 0. -1.
         -2    1    5    5    0  503 -0.90430110907E+01 -0.24106017794E+03  0.14321217425E+03  0.28053789814E+03  0.00000000000E+00 0.  1.
         -3    1    6    6    0  502 -0.91507427538E+02 -0.24149260613E+02  0.36423419910E+03  0.37632877630E+03  0.00000000000E+00 0.  1.
<mgrwt>
<rscale>  0 0.24278172E+04</rscale>
<asrwt>0</asrwt>
<pdfrwt beam="1">  1        4 0.26106958E+00 0.24278172E+04</pdfrwt>
<pdfrwt beam="2">  1       -4 0.13359463E+00 0.24278172E+04</pdfrwt>
<totfact> 0.38942144E-02</totfact>
</mgrwt>
</event>
<event>
12    1  0.1114484E-007  0.2445887E+04  0.7818608E-02  0.8422521E-01
          2   -1    0    0  501    0  0.00000000000E+00  0.00000000000E+00  0.31455908569E+04  0.31455908569E+04  0.00000000000E+00 0. -1.
         -2   -1    0    0    0  501 -0.00000000000E+00 -0.00000000000E+00 -0.47545624657E+03  0.47545624657E+03  0.00000000000E+00 0.  1.
         23    2    1    2    0    0  0.36065553270E+03  0.96695649299E+03  0.13715808399E+04  0.17188864914E+04  0.90881777195E+02 0.  0.
        254    2    1    2    0    0 -0.36065553270E+03 -0.96695649299E+03  0.12985537705E+04  0.19021606121E+04  0.93107240681E+03 0.  0.
        -24    2    4    4    0    0 -0.55182191442E+03 -0.60976298555E+03  0.12302328418E+04  0.14817224084E+04  0.75565381794E+02 0.  0.
         24    2    4    4    0    0  0.19116638172E+03 -0.35719350744E+03  0.68320928714E+02  0.42043820365E+03  0.89267835906E+02 0.  0.
         13    1    3    3    0    0  0.36075960307E+03  0.93929116731E+03  0.13504124973E+04  0.16840514544E+04  0.00000000000E+00 0. -1.
        -13    1    3    3    0    0 -0.10407037426E+00  0.27665325680E+02  0.21168342546E+02  0.34835036986E+02  0.00000000000E+00 0.  1.
          2    1    6    6  502    0  0.41312911610E+02 -0.66047643758E+02  0.49812211869E+02  0.92467855837E+02  0.00000000000E+00 0. -1.
          3    1    5    5  503    0 -0.23675601190E+03 -0.20785140541E+03  0.45734322467E+03  0.55535433829E+03  0.00000000000E+00 0. -1.
         -4    1    5    5    0  503 -0.31506590252E+03 -0.40191158014E+03  0.77288961708E+03  0.92636807014E+03  0.00000000000E+00 0.  1.
         -1    1    6    6    0  502  0.14985347011E+03 -0.29114586368E+03  0.18508716845E+02  0.32797034781E+03  0.00000000000E+00 0.  1.
<mgrwt>
<rscale>  0 0.24458870E+04</rscale>
<asrwt>0</asrwt>
<pdfrwt beam="1">  1        2 0.48393704E+00 0.24458870E+04</pdfrwt>
<pdfrwt beam="2">  1       -2 0.73147117E-01 0.24458870E+04</pdfrwt>
<totfact> 0.21281137E+00</totfact>
</mgrwt>
</event>
<event>
12    1  0.1114484E-007  0.1270095E+04  0.7818608E-02  0.9053622E-01
         -1   -1    0    0    0  501 -0.00000000000E+00  0.00000000000E+00  0.31381691076E+03  0.31381691076E+03  0.00000000000E+00 0.  1.
          1   -1    0    0  501    0  0.00000000000E+00 -0.00000000000E+00 -0.12850982067E+04  0.12850982067E+04  0.00000000000E+00 0. -1.
         23    2    1    2    0    0 -0.29070142768E+03 -0.87554440858E+02 -0.12948797701E+03  0.34248317314E+03  0.91402885776E+02 0.  0.
        254    2    1    2    0    0  0.29070142768E+03  0.87554440858E+02 -0.84179331896E+03  0.12564319443E+04  0.88194792293E+03 0.  0.
        -24    2    4    4    0    0  0.39111352212E+02  0.30605098798E+03 -0.85597935194E+03  0.91353367376E+03  0.81524333951E+02 0.  0.
         24    2    4    4    0    0  0.25159007546E+03 -0.21849654712E+03  0.14186032975E+02  0.34289827059E+03  0.79622065201E+02 0.  0.
         11    1    3    3    0    0 -0.47552522112E+02  0.18627340255E+02 -0.29273864904E+02  0.58865773847E+02  0.00000000000E+00 0. -1.
        -11    1    3    3    0    0 -0.24314890556E+03 -0.10618178111E+03 -0.10021411211E+03  0.28361739930E+03  0.00000000000E+00 0.  1.
          4    1    6    6  502    0  0.13053718761E+03 -0.62325797965E+02  0.13745357824E+02  0.14530449856E+03  0.00000000000E+00 0. -1.
          3    1    5    5  503    0 -0.17075002616E+02  0.15184397228E+02 -0.64870697721E+02  0.68777387682E+02  0.00000000000E+00 0. -1.
         -4    1    5    5    0  503  0.56186354828E+02  0.29086659075E+03 -0.79110865422E+03  0.84475628607E+03  0.00000000000E+00 0.  1.
         -3    1    6    6    0  502  0.12105288786E+03 -0.15617074916E+03  0.44067515030E+00  0.19759377203E+03  0.00000000000E+00 0.  1.
<mgrwt>
<rscale>  0 0.12700953E+04</rscale>
<asrwt>0</asrwt>
<pdfrwt beam="1">  1        1 0.19770742E+00 0.12700953E+04</pdfrwt>
<pdfrwt beam="2">  1       -1 0.48279525E-01 0.12700953E+04</pdfrwt>
<totfact> 0.39154145E+01</totfact>
</mgrwt>
</event>
<event>
12    1  0.1114484E-007  0.2511275E+04  0.7818608E-02  0.8398980E-01
         -2   -1    0    0    0  501 -0.00000000000E+00  0.00000000000E+00  0.43028842512E+03  0.43028842512E+03  0.00000000000E+00 0.  1.
          2   -1    0    0  501    0  0.00000000000E+00 -0.00000000000E+00 -0.36641134088E+04  0.36641134088E+04  0.00000000000E+00 0. -1.
         23    2    1    2    0    0  0.84481304242E+02 -0.44198106057E+03 -0.30443854059E+04  0.30790088666E+04  0.97615325943E+02 0.  0.
        254    2    1    2    0    0 -0.84481304242E+02  0.44198106057E+03 -0.18943957774E+03  0.10153929673E+04  0.89030959551E+03 0.  0.
        -24    2    4    4    0    0  0.85797529622E+01 -0.26607086094E+03 -0.37757240915E+02  0.28017952514E+03  0.78788589694E+02 0.  0.
         24    2    4    4    0    0 -0.93061057204E+02  0.70805192151E+03 -0.15168233682E+03  0.73521344221E+03  0.86795105732E+02 0.  0.
         13    1    3    3    0    0  0.84876830297E+02 -0.44716198000E+03 -0.30022936452E+04  0.30365976100E+04  0.00000000000E+00 0. -1.
        -13    1    3    3    0    0 -0.39552605569E+00  0.51809194297E+01 -0.42091760724E+02  0.42411256617E+02  0.00000000000E+00 0.  1.
          4    1    6    6  502    0 -0.16174714286E+02  0.28308297290E+03 -0.98093252741E+02  0.30003312678E+03  0.00000000000E+00 0. -1.
          1    1    5    5  503    0 -0.21058737926E+02 -0.28002084186E+02  0.80234168877E+01  0.35943878204E+02  0.00000000000E+00 0. -1.
         -2    1    5    5    0  503  0.29638490888E+02 -0.23806877675E+03 -0.45780657803E+02  0.24423564694E+03  0.00000000000E+00 0.  1.
         -3    1    6    6    0  502 -0.76886342918E+02  0.42496894860E+03 -0.53589084080E+02  0.43518031543E+03  0.00000000000E+00 0.  1.
<mgrwt>
<rscale>  0 0.25112750E+04</rscale>
<asrwt>0</asrwt>
<pdfrwt beam="1">  1        2 0.56370976E+00 0.25112750E+04</pdfrwt>
<pdfrwt beam="2">  1       -2 0.66198219E-01 0.25112750E+04</pdfrwt>
<totfact> 0.11621160E+00</totfact>
</mgrwt>
</event>
<event>
12    1  0.1114484E-007  0.2201614E+04  0.7818608E-02  0.8517757E-01
          2   -1    0    0  501    0  0.00000000000E+00  0.00000000000E+00  0.89953219628E+03  0.89953219628E+03  0.00000000000E+00 0.  1.
         -2   -1    0    0    0  501 -0.00000000000E+00 -0.00000000000E+00 -0.13471179417E+04  0.13471179417E+04  0.00000000000E+00 0. -1.
         23    2    1    2    0    0 -0.79329739840E+03 -0.37267221167E+03 -0.47892162271E+03  0.10028882873E+04  0.90629224916E+02 0.  0.
        254    2    1    2    0    0  0.79329739840E+03  0.37267221167E+03  0.31335877281E+02  0.12437618507E+04  0.88190490667E+03 0.  0.
        -24    2    4    4    0    0  0.23707483977E+03  0.58911988011E+03  0.17325965410E+02  0.64132872046E+03  0.87952406567E+02 0.  0.
         24    2    4    4    0    0  0.55622255863E+03 -0.21644766844E+03  0.14009911871E+02  0.60243313025E+03  0.80599447177E+02 0.  0.
         11    1    3    3    0    0 -0.20974244839E+03 -0.94403321074E+02 -0.17211827853E+03  0.28727788549E+03  0.00000000000E+00 0. -1.
        -11    1    3    3    0    0 -0.58355495001E+03 -0.27826889060E+03 -0.30680334418E+03  0.71561040179E+03  0.00000000000E+00 0.  1.
          2    1    6    6  502    0  0.83013430918E+02 -0.31365684573E+02  0.31089691125E+02  0.94029807911E+02  0.00000000000E+00 0. -1.
          3    1    5    5  503    0  0.11238558345E+03  0.17654883318E+03  0.20777915546E+02  0.21031341289E+03  0.00000000000E+00 0. -1.
         -4    1    5    5    0  503  0.12468925632E+03  0.41257104693E+03 -0.34519501359E+01  0.43101530758E+03  0.00000000000E+00 0.  1.
         -1    1    6    6    0  502  0.47320912771E+03 -0.18508198387E+03 -0.17079779254E+02  0.50840332234E+03  0.00000000000E+00 0.  1.
<mgrwt>
<rscale>  0 0.22016139E+04</rscale>
<asrwt>0</asrwt>
<pdfrwt beam="1">  1        2 0.13838957E+00 0.22016139E+04</pdfrwt>
<pdfrwt beam="2">  1       -2 0.20724891E+00 0.22016139E+04</pdfrwt>
<totfact> 0.31978264E+00</totfact>
</mgrwt>
</event>
<event>
12    1  0.1114484E-007  0.1503779E+04  0.7818608E-02  0.8881944E-01
          2   -1    0    0  501    0  0.00000000000E+00  0.00000000000E+00  0.17391091653E+04  0.17391091653E+04  0.00000000000E+00 0. -1.
         -2   -1    0    0    0  501 -0.00000000000E+00 -0.00000000000E+00 -0.32507337036E+03  0.32507337036E+03  0.00000000000E+00 0.  1.
         23    2    1    2    0    0  0.30691352017E+03 -0.14638331724E+03 -0.14977234099E+02  0.35213625386E+03  0.90286429273E+02 0.  0.
        254    2    1    2    0    0 -0.30691352017E+03  0.14638331724E+03  0.14290130291E+04  0.17120462818E+04  0.87943177644E+03 0.  0.
        -24    2    4    4    0    0  0.23817775678E+01 -0.25294327564E+03  0.10297797943E+04  0.10634074678E+04  0.80019024462E+02 0.  0.
         24    2    4    4    0    0 -0.30929529774E+03  0.39932659287E+03  0.39923323473E+03  0.64863881398E+03  0.78865875431E+02 0.  0.
         13    1    3    3    0    0  0.18637847968E+03 -0.63555173325E+02 -0.46939412394E+02  0.20243395511E+03  0.00000000000E+00 0. -1.
        -13    1    3    3    0    0  0.12053504049E+03 -0.82828143911E+02  0.31962178296E+02  0.14970229875E+03  0.00000000000E+00 0.  1.
          4    1    6    6  502    0 -0.29290632636E+03  0.36793670121E+03  0.39257729639E+03  0.61260792172E+03  0.00000000000E+00 0. -1.
          1    1    5    5  503    0  0.24092660145E+02 -0.70754308925E+02  0.19815097689E+03  0.21177922029E+03  0.00000000000E+00 0. -1.
         -2    1    5    5    0  503 -0.21710882577E+02 -0.18218896671E+03  0.83162881745E+03  0.85162824755E+03  0.00000000000E+00 0.  1.
         -3    1    6    6    0  502 -0.16388971378E+02  0.31389891667E+02  0.66559383445E+01  0.36030892259E+02  0.00000000000E+00 0.  1.
<mgrwt>
<rscale>  0 0.15037793E+04</rscale>
<asrwt>0</asrwt>
<pdfrwt beam="1">  1        2 0.26755525E+00 0.15037793E+04</pdfrwt>
<pdfrwt beam="2">  1       -2 0.50011289E-01 0.15037793E+04</pdfrwt>
<totfact> 0.34076518E+01</totfact>
</mgrwt>
</event>
<event>
12    1  0.1114484E-007  0.1480210E+04  0.7818608E-02  0.8897721E-01
          1   -1    0    0  501    0  0.00000000000E+00  0.00000000000E+00  0.47277739170E+03  0.47277739170E+03  0.00000000000E+00 0. -1.
         -1   -1    0    0    0  501 -0.00000000000E+00 -0.00000000000E+00 -0.11585908035E+04  0.11585908035E+04  0.00000000000E+00 0.  1.
         23    2    1    2    0    0  0.39930671543E+03 -0.22728275110E+03 -0.37023517328E+03  0.59730496329E+03  0.92713719038E+02 0.  0.
        254    2    1    2    0    0 -0.39930671543E+03  0.22728275110E+03 -0.31557823856E+03  0.10340632319E+04  0.87097292786E+03 0.  0.
        -24    2    4    4    0    0 -0.44097212533E+03  0.42590254741E+03 -0.46122886792E+03  0.77137296079E+03  0.80217085614E+02 0.  0.
         24    2    4    4    0    0  0.41665409895E+02 -0.19861979631E+03  0.14565062937E+03  0.26269027115E+03  0.81278797073E+02 0.  0.
         11    1    3    3    0    0  0.96667235482E+01 -0.14645983646E+02  0.24414532308E+01  0.17717535805E+02  0.00000000000E+00 0. -1.
        -11    1    3    3    0    0  0.38963999189E+03 -0.21263676746E+03 -0.37267662651E+03  0.57958742749E+03  0.00000000000E+00 0.  1.
          2    1    6    6  502    0  0.57980100292E+02 -0.99102957766E+02  0.98881477289E+02  0.15152767014E+03  0.00000000000E+00 0. -1.
          1    1    5    5  503    0 -0.35857507322E+03  0.36684931558E+03 -0.41557016043E+03  0.66019168558E+03  0.00000000000E+00 0. -1.
         -2    1    5    5    0  503 -0.82397052114E+02  0.59053231834E+02 -0.45658707492E+02  0.11118127521E+03  0.00000000000E+00 0.  1.
         -1    1    6    6    0  502 -0.16314690397E+02 -0.99516838546E+02  0.46769152078E+02  0.11116260101E+03  0.00000000000E+00 0.  1.
<mgrwt>
<rscale>  0 0.14802102E+04</rscale>
<asrwt>0</asrwt>
<pdfrwt beam="1">  1        1 0.72734984E-01 0.14802102E+04</pdfrwt>
<pdfrwt beam="2">  1       -1 0.17824474E+00 0.14802102E+04</pdfrwt>
<totfact> 0.99365996E+00</totfact>
</mgrwt>
</event>
<event>
12    1  0.1114484E-007  0.1422478E+04  0.7818608E-02  0.8937707E-01
          2   -1    0    0  501    0  0.00000000000E+00  0.00000000000E+00  0.27195275983E+04  0.27195275983E+04  0.00000000000E+00 0. -1.
         -2   -1    0    0    0  501 -0.00000000000E+00 -0.00000000000E+00 -0.18601049883E+03  0.18601049883E+03  0.00000000000E+00 0.  1.
         23    2    1    2    0    0 -0.19213622098E+03 -0.25444795179E+03  0.12730437009E+04  0.13156261621E+04  0.92584266450E+02 0.  0.
        254    2    1    2    0    0  0.19213622098E+03  0.25444795179E+03  0.12604733986E+04  0.15899119350E+04  0.91507742029E+03 0.  0.
        -24    2    4    4    0    0  0.51324307243E+03  0.30663259171E+02  0.45788151268E+03  0.69321447546E+03  0.80821670807E+02 0.  0.
         24    2    4    4    0    0 -0.32110685146E+03  0.22378469262E+03  0.80259188588E+03  0.89669745958E+03  0.81996341554E+02 0.  0.
         13    1    3    3    0    0  0.66489800876E+01 -0.26005328735E+02  0.15457009124E+03  0.15688339353E+03  0.00000000000E+00 0. -1.
        -13    1    3    3    0    0 -0.19878520106E+03 -0.22844262306E+03  0.11184736097E+04  0.11587427686E+04  0.00000000000E+00 0.  1.
          2    1    6    6  502    0 -0.27822353709E+03  0.22363065802E+03  0.72078631176E+03  0.80433321144E+03  0.00000000000E+00 0. -1.
          1    1    5    5  503    0  0.39917102885E+03 -0.94491220291E+01  0.34189349843E+03  0.52565954804E+03  0.00000000000E+00 0. -1.
         -2    1    5    5    0  503  0.11407204359E+03  0.40112381201E+02  0.11598801424E+03  0.16755492742E+03  0.00000000000E+00 0.  1.
         -1    1    6    6    0  502 -0.42883314369E+02  0.15403460227E+00  0.81805574117E+02  0.92364248141E+02  0.00000000000E+00 0.  1.
<mgrwt>
<rscale>  0 0.14224777E+04</rscale>
<asrwt>0</asrwt>
<pdfrwt beam="1">  1        2 0.41838883E+00 0.14224777E+04</pdfrwt>
<pdfrwt beam="2">  1       -2 0.28617002E-01 0.14224777E+04</pdfrwt>
<totfact> 0.28279750E+01</totfact>
</mgrwt>
</event>
<event>
12    1  0.1114484E-007  0.1284367E+04  0.7818608E-02  0.9042055E-01
         -2   -1    0    0    0  501 -0.00000000000E+00  0.00000000000E+00  0.49154380514E+03  0.49154380514E+03  0.00000000000E+00 0.  1.
          2   -1    0    0  501    0  0.00000000000E+00 -0.00000000000E+00 -0.83898902785E+03  0.83898902785E+03  0.00000000000E+00 0. -1.
         23    2    1    2    0    0  0.23242645261E+03 -0.14092268840E+03 -0.15834868251E+03  0.32800098718E+03  0.92892854168E+02 0.  0.
        254    2    1    2    0    0 -0.23242645261E+03  0.14092268840E+03 -0.18909654020E+03  0.10025318458E+04  0.94627233943E+03 0.  0.
        -24    2    4    4    0    0 -0.25061776335E+03  0.33824390844E+01  0.35121147469E+03  0.43893578352E+03  0.80587951308E+02 0.  0.
         24    2    4    4    0    0  0.18191310735E+02  0.13754024932E+03 -0.54030801489E+03  0.56359606229E+03  0.80371179569E+02 0.  0.
         13    1    3    3    0    0  0.23276466615E+03 -0.13716379307E+03 -0.16765080672E+03  0.31796240175E+03  0.00000000000E+00 0. -1.
        -13    1    3    3    0    0 -0.33821353836E+00 -0.37588953375E+01  0.93021242059E+01  0.10038585423E+02  0.00000000000E+00 0.  1.
          2    1    6    6  502    0  0.78372594070E+01  0.57432927151E+02 -0.97083510583E+02  0.11307153392E+03  0.00000000000E+00 0. -1.
          1    1    5    5  503    0  0.39757539659E+01  0.69216206899E+01  0.17027970561E+02  0.18806042487E+02  0.00000000000E+00 0. -1.
         -2    1    5    5    0  503 -0.25459351731E+03 -0.35391816055E+01  0.33418350413E+03  0.42012974103E+03  0.00000000000E+00 0.  1.
         -1    1    6    6    0  502  0.10354051328E+02  0.80107322169E+02 -0.44322450431E+03  0.45052452837E+03  0.00000000000E+00 0.  1.
<mgrwt>
<rscale>  0 0.12843673E+04</rscale>
<asrwt>0</asrwt>
<pdfrwt beam="1">  1        2 0.12907523E+00 0.12843673E+04</pdfrwt>
<pdfrwt beam="2">  1       -2 0.75622125E-01 0.12843673E+04</pdfrwt>
<totfact> 0.49720918E+01</totfact>
</mgrwt>
</event>
<event>
12    1  0.1114484E-007  0.1617629E+04  0.7818608E-02  0.8809791E-01
          2   -1    0    0  501    0  0.00000000000E+00  0.00000000000E+00  0.21772995270E+04  0.21772995270E+04  0.00000000000E+00 0.  1.
         -2   -1    0    0    0  501 -0.00000000000E+00 -0.00000000000E+00 -0.30045505507E+03  0.30045505507E+03  0.00000000000E+00 0. -1.
         23    2    1    2    0    0  0.98110668961E+02 -0.54362112401E+03  0.80013284984E+03  0.97658934422E+03  0.91457859193E+02 0.  0.
        254    2    1    2    0    0 -0.98110668961E+02  0.54362112401E+03  0.10767116221E+04  0.15011652379E+04  0.88827896766E+03 0.  0.
        -24    2    4    4    0    0 -0.44834324248E+03  0.31014469926E+03  0.33401810286E+03  0.64445196520E+03  0.80924933415E+02 0.  0.
         24    2    4    4    0    0  0.35023257352E+03  0.23347642476E+03  0.74269351928E+03  0.85671327270E+03  0.72040763326E+02 0.  0.
         13    1    3    3    0    0  0.52121035595E+02 -0.19353528971E+03  0.22141330643E+03  0.29865760158E+03  0.00000000000E+00 0.  1.
        -13    1    3    3    0    0  0.45989633367E+02 -0.35008583430E+03  0.57871954341E+03  0.67793174264E+03  0.00000000000E+00 0. -1.
          4    1    6    6  502    0  0.42574283380E+02  0.47139806030E+02  0.15737705164E+03  0.16971230746E+03  0.00000000000E+00 0. -1.
          3    1    5    5  503    0 -0.38813021848E+03  0.26483445377E+03  0.25243249848E+03  0.53338965184E+03  0.00000000000E+00 0. -1.
         -4    1    5    5    0  503 -0.60213024002E+02  0.45310245486E+02  0.81585604381E+02  0.11106231335E+03  0.00000000000E+00 0.  1.
         -3    1    6    6    0  502  0.30765829014E+03  0.18633661873E+03  0.58531646763E+03  0.68700096525E+03  0.00000000000E+00 0.  1.
<mgrwt>
<rscale>  0 0.16176287E+04</rscale>
<asrwt>0</asrwt>
<pdfrwt beam="1">  1        2 0.33496915E+00 0.16176287E+04</pdfrwt>
<pdfrwt beam="2">  1       -2 0.46223856E-01 0.16176287E+04</pdfrwt>
<totfact> 0.22613383E+01</totfact>
</mgrwt>
</event>
<event>
12    1  0.1114484E-007  0.1770676E+04  0.7818608E-02  0.8722051E-01
         -2   -1    0    0    0  501 -0.00000000000E+00  0.00000000000E+00  0.51847180630E+03  0.51847180630E+03  0.00000000000E+00 0.  1.
          2   -1    0    0  501    0  0.00000000000E+00 -0.00000000000E+00 -0.15117948778E+04  0.15117948778E+04  0.00000000000E+00 0. -1.
         23    2    1    2    0    0 -0.62159602001E+03 -0.21067191082E+02 -0.15515942488E+03  0.64781119885E+03  0.93592006059E+02 0.  0.
        254    2    1    2    0    0  0.62159602001E+03  0.21067191082E+02 -0.83816364658E+03  0.13824554852E+04  0.90655360100E+03 0.  0.
        -24    2    4    4    0    0 -0.79618939430E+02  0.57612278136E+02  0.13271847986E+03  0.18166411155E+03  0.75692168833E+02 0.  0.
         24    2    4    4    0    0  0.70121495944E+03 -0.36545087055E+02 -0.97088212644E+03  0.12007913736E+04  0.79056036146E+02 0.  0.
         11    1    3    3    0    0 -0.54237057404E+03 -0.45148253737E+02 -0.11720938576E+03  0.55672456791E+03  0.00000000000E+00 0.  1.
        -11    1    3    3    0    0 -0.79225445967E+02  0.24081062656E+02 -0.37950039127E+02  0.91086630946E+02  0.00000000000E+00 0. -1.
          2    1    6    6  502    0  0.44224783918E+03 -0.57829363260E+02 -0.63988410872E+03  0.77998657623E+03  0.00000000000E+00 0. -1.
          1    1    5    5  503    0 -0.33014653637E+02  0.62962246309E+02  0.10613445465E+03  0.12774480137E+03  0.00000000000E+00 0. -1.
         -2    1    5    5    0  503 -0.46604285794E+02 -0.53499681723E+01  0.26584025213E+02  0.53919310180E+02  0.00000000000E+00 0.  1.
         -1    1    6    6    0  502  0.25896712026E+03  0.21284276205E+02 -0.33099801772E+03  0.42080479741E+03  0.00000000000E+00 0.  1.
<mgrwt>
<rscale>  0 0.17706756E+04</rscale>
<asrwt>0</asrwt>
<pdfrwt beam="1">  1        2 0.23258383E+00 0.17706756E+04</pdfrwt>
<pdfrwt beam="2">  1       -2 0.79764894E-01 0.17706756E+04</pdfrwt>
<totfact> 0.16459476E+01</totfact>
</mgrwt>
</event>
<event>
12    1  0.1114484E-007  0.1583458E+04  0.7818608E-02  0.8830775E-01
         -2   -1    0    0    0  501 -0.00000000000E+00  0.00000000000E+00  0.34712478032E+03  0.34712478032E+03  0.00000000000E+00 0.  1.
          2   -1    0    0  501    0  0.00000000000E+00 -0.00000000000E+00 -0.18057918573E+04  0.18057918573E+04  0.00000000000E+00 0. -1.
         23    2    1    2    0    0  0.29068478745E+03 -0.60310300806E+02  0.10298714937E+03  0.32776438744E+03  0.93210314327E+02 0.  0.
        254    2    1    2    0    0 -0.29068478745E+03  0.60310300806E+02 -0.15616542264E+04  0.18251522502E+04  0.89681761559E+03 0.  0.
        -24    2    4    4    0    0  0.17095815924E+03 -0.28687966822E+03 -0.41583811489E+03  0.53939195222E+03  0.80595930887E+02 0.  0.
         24    2    4    4    0    0 -0.46164294669E+03  0.34718996903E+03 -0.11458161115E+04  0.12857602980E+04  0.81424183813E+02 0.  0.
         11    1    3    3    0    0  0.63405815614E+02 -0.21042518821E+02  0.66477919037E+02  0.94246478828E+02  0.00000000000E+00 0. -1.
        -11    1    3    3    0    0  0.22727897184E+03 -0.39267781985E+02  0.36509230338E+02  0.23351790861E+03  0.00000000000E+00 0.  1.
          2    1    6    6  502    0 -0.43741811597E+03  0.32945800355E+03 -0.11176455103E+04  0.12445917688E+04  0.00000000000E+00 0. -1.
          1    1    5    5  503    0  0.11561077511E+03 -0.12697202520E+03 -0.17625187141E+03  0.24607411217E+03  0.00000000000E+00 0. -1.
         -2    1    5    5    0  503  0.55347384125E+02 -0.15990764302E+03 -0.23958624348E+03  0.29331784005E+03  0.00000000000E+00 0.  1.
         -1    1    6    6    0  502 -0.24224830721E+02  0.17731965485E+02 -0.28170601163E+02  0.41168529161E+02  0.00000000000E+00 0.  1.
<mgrwt>
<rscale>  0 0.15834584E+04</rscale>
<asrwt>0</asrwt>
<pdfrwt beam="1">  1        2 0.27781414E+00 0.15834584E+04</pdfrwt>
<pdfrwt beam="2">  1       -2 0.53403812E-01 0.15834584E+04</pdfrwt>
<totfact> 0.27177715E+01</totfact>
</mgrwt>
</event>
<event>
12    1  0.1114484E-007  0.2408453E+04  0.7818608E-02  0.8436346E-01
         -3   -1    0    0    0  501 -0.00000000000E+00  0.00000000000E+00  0.58288597345E+03  0.58288597345E+03  0.00000000000E+00 0.  1.
          3   -1    0    0  501    0  0.00000000000E+00 -0.00000000000E+00 -0.24878986085E+04  0.24878986085E+04  0.00000000000E+00 0. -1.
         23    2    1    2    0    0 -0.57809543988E+03 -0.63178913200E+03 -0.64359473744E+02  0.86523785519E+03  0.10555832166E+03 0.  0.
        254    2    1    2    0    0  0.57809543988E+03  0.63178913200E+03 -0.18406531613E+04  0.22055467268E+04  0.86202114752E+03 0.  0.
        -24    2    4    4    0    0  0.30201004645E+03  0.74120013441E+02 -0.14066257833E+04  0.14426444021E+04  0.76960588199E+02 0.  0.
         24    2    4    4    0    0  0.27608539343E+03  0.55766911856E+03 -0.43402737799E+03  0.76290232464E+03  0.80138641282E+02 0.  0.
         11    1    3    3    0    0 -0.82220986051E+01 -0.48892315220E+01 -0.13447528954E+02  0.16502833857E+02  0.00000000000E+00 0.  1.
        -11    1    3    3    0    0 -0.56987334127E+03 -0.62689990048E+03 -0.50911944789E+02  0.84873502134E+03  0.00000000000E+00 0. -1.
          2    1    6    6  502    0  0.21590522170E+03  0.44604278296E+03 -0.38258082747E+03  0.62604897455E+03  0.00000000000E+00 0. -1.
          1    1    5    5  503    0  0.39229687516E+02 -0.85444545692E+01 -0.27808256597E+03  0.28096599364E+03  0.00000000000E+00 0. -1.
         -2    1    5    5    0  503  0.26278035893E+03  0.82664468010E+02 -0.11285432174E+04  0.11616784085E+04  0.00000000000E+00 0.  1.
         -1    1    6    6    0  502  0.60180171730E+02  0.11162633560E+03 -0.51446550524E+02  0.13685335009E+03  0.00000000000E+00 0.  1.
<mgrwt>
<rscale>  0 0.24084528E+04</rscale>
<asrwt>0</asrwt>
<pdfrwt beam="1">  1        3 0.38275364E+00 0.24084528E+04</pdfrwt>
<pdfrwt beam="2">  1       -3 0.89674763E-01 0.24084528E+04</pdfrwt>
<totfact> 0.36221629E-02</totfact>
</mgrwt>
</event>
<event>
12    1  0.1114484E-007  0.1275886E+04  0.7818608E-02  0.9048909E-01
         -1   -1    0    0    0  501 -0.00000000000E+00  0.00000000000E+00  0.18218196702E+03  0.18218196702E+03  0.00000000000E+00 0.  1.
          1   -1    0    0  501    0  0.00000000000E+00 -0.00000000000E+00 -0.22338723217E+04  0.22338723217E+04  0.00000000000E+00 0. -1.
         23    2    1    2    0    0 -0.18670562623E+03  0.18059066843E+03 -0.84345118687E+03  0.88768242185E+03  0.95384469638E+02 0.  0.
        254    2    1    2    0    0  0.18670562623E+03 -0.18059066843E+03 -0.12082391679E+04  0.15283718669E+04  0.89922560931E+03 0.  0.
        -24    2    4    4    0    0 -0.29957812192E+03 -0.28906868524E+02 -0.83580475102E+03  0.89207813712E+03  0.81554660925E+02 0.  0.
         24    2    4    4    0    0  0.48628374815E+03 -0.15168379990E+03 -0.37243441684E+03  0.63629372979E+03  0.81746295678E+02 0.  0.
         13    1    3    3    0    0 -0.10399410780E+03  0.12811326255E+03 -0.65289522272E+03  0.67342405240E+03  0.00000000000E+00 0. -1.
        -13    1    3    3    0    0 -0.82711518431E+02  0.52477405879E+02 -0.19055596415E+03  0.21425836945E+03  0.00000000000E+00 0.  1.
          2    1    6    6  502    0  0.39308535808E+03 -0.88681770905E+02 -0.28000117093E+03  0.49069462087E+03  0.00000000000E+00 0. -1.
          1    1    5    5  503    0 -0.21583710738E+03 -0.50765287692E+02 -0.53652969726E+03  0.58054016863E+03  0.00000000000E+00 0. -1.
         -2    1    5    5    0  503 -0.83741014541E+02  0.21858419168E+02 -0.29927505376E+03  0.31153796848E+03  0.00000000000E+00 0.  1.
         -1    1    6    6    0  502  0.93198390070E+02 -0.63002028999E+02 -0.92433245905E+02  0.14559910892E+03  0.00000000000E+00 0.  1.
<mgrwt>
<rscale>  0 0.12758860E+04</rscale>
<asrwt>0</asrwt>
<pdfrwt beam="1">  1        1 0.34367266E+00 0.12758860E+04</pdfrwt>
<pdfrwt beam="2">  1       -1 0.28027995E-01 0.12758860E+04</pdfrwt>
<totfact> 0.23433245E+01</totfact>
</mgrwt>
</event>
<event>
12    1  0.1114484E-007  0.2108112E+04  0.7818608E-02  0.8557678E-01
          2   -1    0    0  501    0  0.00000000000E+00  0.00000000000E+00  0.17906347837E+04  0.17906347837E+04  0.00000000000E+00 0. -1.
         -2   -1    0    0    0  501 -0.00000000000E+00 -0.00000000000E+00 -0.62046953974E+03  0.62046953974E+03  0.00000000000E+00 0.  1.
         23    2    1    2    0    0 -0.65190688923E+03  0.90375012167E+02 -0.15289318956E+03  0.68175904686E+03  0.90933137609E+02 0.  0.
        254    2    1    2    0    0  0.65190688923E+03 -0.90375012167E+02  0.13230584335E+04  0.17293452766E+04  0.89833247299E+03 0.  0.
        -24    2    4    4    0    0  0.95272796981E+02  0.87529033524E+02  0.10806636117E+04  0.10911865892E+04  0.78205455090E+02 0.  0.
         24    2    4    4    0    0  0.55663409225E+03 -0.17790404569E+03  0.24239482180E+03  0.63815868736E+03  0.83665396043E+02 0.  0.
         11    1    3    3    0    0 -0.44817021924E+03  0.21140757364E+02 -0.90352681827E+02  0.45767574128E+03  0.00000000000E+00 0.  1.
        -11    1    3    3    0    0 -0.20373666999E+03  0.69234254803E+02 -0.62540507734E+02  0.22408330559E+03  0.00000000000E+00 0. -1.
          4    1    6    6  502    0 -0.15517656530E+01  0.15867683899E+01 -0.19437628395E+01  0.29502583855E+01  0.00000000000E+00 0. -1.
          3    1    5    5  503    0  0.68998298609E+02  0.88667635003E+02  0.64362240311E+03  0.65335481363E+03  0.00000000000E+00 0. -1.
         -4    1    5    5    0  503  0.26274498372E+02 -0.11386014798E+01  0.43704120861E+03  0.43783177557E+03  0.00000000000E+00 0.  1.
         -3    1    6    6    0  502  0.55818585790E+03 -0.17949081408E+03  0.24433858463E+03  0.63520842898E+03  0.00000000000E+00 0.  1.
<mgrwt>
<rscale>  0 0.21081123E+04</rscale>
<asrwt>0</asrwt>
<pdfrwt beam="1">  1        2 0.27548227E+00 0.21081123E+04</pdfrwt>
<pdfrwt beam="2">  1       -2 0.95456853E-01 0.21081123E+04</pdfrwt>
<totfact> 0.74117541E+00</totfact>
</mgrwt>
</event>
<event>
12    1  0.1114484E-007  0.1640537E+04  0.7818608E-02  0.8796024E-01
          2   -1    0    0  501    0  0.00000000000E+00  0.00000000000E+00  0.35578514650E+04  0.35578514650E+04  0.00000000000E+00 0. -1.
         -2   -1    0    0    0  501 -0.00000000000E+00 -0.00000000000E+00 -0.18911431912E+03  0.18911431912E+03  0.00000000000E+00 0.  1.
         23    2    1    2    0    0 -0.55815350629E+03  0.74803198576E+02  0.10165332306E+04  0.11651735418E+04  0.84609210768E+02 0.  0.
        254    2    1    2    0    0  0.55815350629E+03 -0.74803198576E+02  0.23522039153E+04  0.25817922423E+04  0.90313734739E+03 0.  0.
        -24    2    4    4    0    0 -0.17883509494E+03  0.13918274288E+03  0.96450313500E+03  0.99398821136E+03  0.79952734772E+02 0.  0.
         24    2    4    4    0    0  0.73698860123E+03 -0.21398594145E+03  0.13877007803E+04  0.15878040309E+04  0.80411464430E+02 0.  0.
         13    1    3    3    0    0 -0.24434221758E+03  0.40165553288E+02  0.36353258045E+03  0.43985489427E+03  0.00000000000E+00 0. -1.
        -13    1    3    3    0    0 -0.31381128871E+03  0.34637645288E+02  0.65300065016E+03  0.72531864757E+03  0.00000000000E+00 0.  1.
          4    1    6    6  502    0  0.34158338792E+03 -0.12985113148E+03  0.71518270565E+03  0.80313562348E+03  0.00000000000E+00 0. -1.
          3    1    5    5  503    0 -0.39739436034E+02  0.29632671373E+02  0.10087014230E+03  0.11239263141E+03  0.00000000000E+00 0. -1.
         -4    1    5    5    0  503 -0.13909565890E+03  0.10955007150E+03  0.86363299270E+03  0.88159557994E+03  0.00000000000E+00 0.  1.
         -3    1    6    6    0  502  0.39540521331E+03 -0.84134809972E+02  0.67251807463E+03  0.78466840746E+03  0.00000000000E+00 0.  1.
<mgrwt>
<rscale>  0 0.16405373E+04</rscale>
<asrwt>0</asrwt>
<pdfrwt beam="1">  1        2 0.54736171E+00 0.16405373E+04</pdfrwt>
<pdfrwt beam="2">  1       -2 0.29094513E-01 0.16405373E+04</pdfrwt>
<totfact> 0.77722880E+00</totfact>
</mgrwt>
</event>
<event>
12    1  0.1114484E-007  0.1532978E+04  0.7818608E-02  0.8862814E-01
          2   -1    0    0  501    0  0.00000000000E+00  0.00000000000E+00  0.20648464914E+04  0.20648464914E+04  0.00000000000E+00 0.  1.
         -2   -1    0    0    0  501 -0.00000000000E+00 -0.00000000000E+00 -0.28452735211E+03  0.28452735211E+03  0.00000000000E+00 0. -1.
         23    2    1    2    0    0  0.23328923006E+03  0.30624720455E+03  0.10818893018E+04  0.11526768746E+04  0.99841377089E+02 0.  0.
        254    2    1    2    0    0 -0.23328923006E+03 -0.30624720455E+03  0.69842983746E+03  0.11966969690E+04  0.89222653092E+03 0.  0.
        -24    2    4    4    0    0 -0.92243716685E+02  0.31034093209E+03  0.25162027056E+03  0.41804127313E+03  0.81396241221E+02 0.  0.
         24    2    4    4    0    0 -0.14104551337E+03 -0.61658813665E+03  0.44680956690E+03  0.77865569582E+03  0.81185814426E+02 0.  0.
         13    1    3    3    0    0  0.13011619856E+03  0.16485993552E+03  0.44328210021E+03  0.49051813813E+03  0.00000000000E+00 0. -1.
        -13    1    3    3    0    0  0.10317303150E+03  0.14138726903E+03  0.63860720162E+03  0.66215873643E+03  0.00000000000E+00 0.  1.
          4    1    6    6  502    0  0.48114254196E+01 -0.10660150758E+03  0.87275258404E+02  0.13785500340E+03  0.00000000000E+00 0. -1.
          3    1    5    5  503    0 -0.54135887607E+02  0.16668658667E+03  0.85046900002E+02  0.19480268916E+03  0.00000000000E+00 0. -1.
         -4    1    5    5    0  503 -0.38107829078E+02  0.14365434542E+03  0.16657337056E+03  0.22323858398E+03  0.00000000000E+00 0.  1.
         -3    1    6    6    0  502 -0.14585693879E+03 -0.50998662906E+03  0.35953430849E+03  0.64080069242E+03  0.00000000000E+00 0.  1.
<mgrwt>
<rscale>  0 0.15329779E+04</rscale>
<asrwt>0</asrwt>
<pdfrwt beam="1">  1        2 0.31766868E+00 0.15329779E+04</pdfrwt>
<pdfrwt beam="2">  1       -2 0.43773440E-01 0.15329779E+04</pdfrwt>
<totfact> 0.29338160E+01</totfact>
</mgrwt>
</event>
<event>
12    1  0.1114484E-007  0.1234444E+04  0.7818608E-02  0.9083230E-01
          2   -1    0    0  501    0  0.00000000000E+00  0.00000000000E+00  0.64712354292E+03  0.64712354292E+03  0.00000000000E+00 0. -1.
         -2   -1    0    0    0  501 -0.00000000000E+00 -0.00000000000E+00 -0.58870241682E+03  0.58870241682E+03  0.00000000000E+00 0.  1.
         23    2    1    2    0    0  0.45869621558E+02 -0.41674107930E+02  0.26862808642E+03  0.29051464515E+03  0.91634910267E+02 0.  0.
        254    2    1    2    0    0 -0.45869621558E+02  0.41674107930E+02 -0.21020696032E+03  0.94531131458E+03  0.91955737279E+03 0.  0.
        -24    2    4    4    0    0 -0.37385809229E+03 -0.16923091112E+03 -0.32631059255E+03  0.53057247397E+03  0.81360757610E+02 0.  0.
         24    2    4    4    0    0  0.32798847073E+03  0.21090501905E+03  0.11610363223E+03  0.41473884061E+03  0.80441833027E+02 0.  0.
         11    1    3    3    0    0 -0.48691667331E+01  0.24363977984E+01 -0.58092794381E+01  0.79619436381E+01  0.00000000000E+00 0.  1.
        -11    1    3    3    0    0  0.50738788291E+02 -0.44110505728E+02  0.27443736586E+03  0.28255270151E+03  0.00000000000E+00 0. -1.
          4    1    6    6  502    0  0.14630730596E+03  0.48354383548E+02  0.37393926102E+02  0.15856317320E+03  0.00000000000E+00 0. -1.
          1    1    5    5  503    0 -0.37000852061E+03 -0.17433896759E+03 -0.32760433936E+03  0.52404673848E+03  0.00000000000E+00 0. -1.
         -2    1    5    5    0  503 -0.38495716715E+01  0.51080564642E+01  0.12937468073E+01  0.65257354909E+01  0.00000000000E+00 0.  1.
         -3    1    6    6    0  502  0.18168116477E+03  0.16255063550E+03  0.78709706128E+02  0.25617566741E+03  0.00000000000E+00 0.  1.
<mgrwt>
<rscale>  0 0.12344443E+04</rscale>
<asrwt>0</asrwt>
<pdfrwt beam="1">  1        2 0.99557468E-01 0.12344443E+04</pdfrwt>
<pdfrwt beam="2">  1       -2 0.90569603E-01 0.12344443E+04</pdfrwt>
<totfact> 0.46377061E+01</totfact>
</mgrwt>
</event>
<event>
12    1  0.1114484E-007  0.1163384E+04  0.7818608E-02  0.9145525E-01
         -1   -1    0    0    0  501 -0.00000000000E+00  0.00000000000E+00  0.57375914038E+03  0.57375914038E+03  0.00000000000E+00 0.  1.
          1   -1    0    0  501    0  0.00000000000E+00 -0.00000000000E+00 -0.58973415295E+03  0.58973415295E+03  0.00000000000E+00 0. -1.
         23    2    1    2    0    0  0.12846636656E+03  0.13926548231E+03  0.98692822932E+02  0.23169439938E+03  0.89685782080E+02 0.  0.
        254    2    1    2    0    0 -0.12846636656E+03 -0.13926548231E+03 -0.11466783550E+03  0.93179889395E+03  0.90509777613E+03 0.  0.
        -24    2    4    4    0    0 -0.69193352190E+02 -0.41793562500E+03  0.22115121471E+03  0.48424619349E+03  0.78285436122E+02 0.  0.
         24    2    4    4    0    0 -0.59273014368E+02  0.27867014269E+03 -0.33581905021E+03  0.44755270046E+03  0.79741122026E+02 0.  0.
         11    1    3    3    0    0  0.14106912113E+03  0.13215110795E+03  0.99089470065E+02  0.21721679342E+03  0.00000000000E+00 0. -1.
        -11    1    3    3    0    0 -0.12602754570E+02  0.71143743594E+01 -0.39664713348E+00  0.14477605957E+02  0.00000000000E+00 0.  1.
          2    1    6    6  502    0 -0.45834437942E+02  0.23765562714E+03 -0.32078177435E+03  0.40184815487E+03  0.00000000000E+00 0. -1.
          3    1    5    5  503    0 -0.82223149158E+02 -0.32121598536E+03  0.18808218376E+03  0.38120239159E+03  0.00000000000E+00 0. -1.
         -4    1    5    5    0  503  0.13029796968E+02 -0.96719639641E+02  0.33069030952E+02  0.10304380190E+03  0.00000000000E+00 0.  1.
         -1    1    6    6    0  502 -0.13438576425E+02  0.41014515553E+02 -0.15037275856E+02  0.45704545590E+02  0.00000000000E+00 0.  1.
<mgrwt>
<rscale>  0 0.11633836E+04</rscale>
<asrwt>0</asrwt>
<pdfrwt beam="1">  1        1 0.90728332E-01 0.11633836E+04</pdfrwt>
<pdfrwt beam="2">  1       -1 0.88270637E-01 0.11633836E+04</pdfrwt>
<totfact> 0.43950081E+01</totfact>
</mgrwt>
</event>
<event>
12    1  0.1114484E-007  0.1254473E+04  0.7818608E-02  0.9066469E-01
          4   -1    0    0  501    0  0.00000000000E+00  0.00000000000E+00  0.55521753642E+03  0.55521753642E+03  0.00000000000E+00 0. -1.
         -4   -1    0    0    0  501 -0.00000000000E+00 -0.00000000000E+00 -0.70859695225E+03  0.70859695225E+03  0.00000000000E+00 0.  1.
         23    2    1    2    0    0  0.17273009815E+03  0.37739755483E+02  0.20202925400E+03  0.28365128653E+03  0.91554666319E+02 0.  0.
        254    2    1    2    0    0 -0.17273009815E+03 -0.37739755483E+02 -0.35540866983E+03  0.98016320213E+03  0.89618335416E+03 0.  0.
        -24    2    4    4    0    0  0.62575227222E+02 -0.29809618084E+03  0.15892196534E+03  0.35246477107E+03  0.78728849122E+02 0.  0.
         24    2    4    4    0    0 -0.23530532537E+03  0.26035642535E+03 -0.51433063517E+03  0.62769843107E+03  0.79468570641E+02 0.  0.
         11    1    3    3    0    0  0.29691911986E+02 -0.11876608003E+02  0.10089328851E+01  0.31995021497E+02  0.00000000000E+00 0.  1.
        -11    1    3    3    0    0  0.14303818616E+03  0.49616363486E+02  0.20102032112E+03  0.25165626503E+03  0.00000000000E+00 0. -1.
          2    1    6    6  502    0 -0.19046920409E+03  0.20094965171E+03 -0.34231311925E+03  0.44026986252E+03  0.00000000000E+00 0. -1.
          1    1    5    5  503    0  0.57835817628E+02 -0.11847061661E+03  0.43175508102E+02  0.13872416264E+03  0.00000000000E+00 0. -1.
         -2    1    5    5    0  503  0.47394095945E+01 -0.17962556423E+03  0.11574645723E+03  0.21374060843E+03  0.00000000000E+00 0.  1.
         -1    1    6    6    0  502 -0.44836121283E+02  0.59406773641E+02 -0.17201751592E+03  0.18742856855E+03  0.00000000000E+00 0.  1.
<mgrwt>
<rscale>  0 0.12544727E+04</rscale>
<asrwt>0</asrwt>
<pdfrwt beam="1">  1        4 0.85418084E-01 0.12544727E+04</pdfrwt>
<pdfrwt beam="2">  1       -4 0.10901491E+00 0.12544727E+04</pdfrwt>
<totfact> 0.15709223E+00</totfact>
</mgrwt>
</event>
<event>
12    1  0.1114484E-007  0.2139270E+04  0.7818608E-02  0.8544139E-01
         -1   -1    0    0    0  501 -0.00000000000E+00  0.00000000000E+00  0.54208821060E+03  0.54208821060E+03  0.00000000000E+00 0.  1.
          1   -1    0    0  501    0  0.00000000000E+00 -0.00000000000E+00 -0.21105779398E+04  0.21105779398E+04  0.00000000000E+00 0. -1.
         23    2    1    2    0    0 -0.25888344274E+03 -0.25667276816E+01 -0.16817800513E+04  0.17040534498E+04  0.91579440840E+02 0.  0.
        254    2    1    2    0    0  0.25888344274E+03  0.25667276816E+01  0.11329032206E+03  0.94861270059E+03  0.90554079623E+03 0.  0.
        -24    2    4    4    0    0  0.11182348739E+03 -0.34000275359E+03 -0.23175112473E+03  0.43430112610E+03  0.82477388032E+02 0.  0.
         24    2    4    4    0    0  0.14705995535E+03  0.34256948127E+03  0.34504144679E+03  0.51431157449E+03  0.80512829375E+02 0.  0.
         11    1    3    3    0    0 -0.19164504293E+03  0.38988254439E+02 -0.12008340826E+04  0.12166554157E+04  0.00000000000E+00 0. -1.
        -11    1    3    3    0    0 -0.67238399813E+02 -0.41554982120E+02 -0.48094596863E+03  0.48739803415E+03  0.00000000000E+00 0.  1.
          2    1    6    6  502    0  0.13213072871E+03  0.32946034774E+03  0.34417011543E+03  0.49442463385E+03  0.00000000000E+00 0. -1.
          1    1    5    5  503    0  0.38897452550E+02 -0.23467744290E+03 -0.13288038930E+03  0.27247699330E+03  0.00000000000E+00 0. -1.
         -2    1    5    5    0  503  0.72926034841E+02 -0.10532531069E+03 -0.98870735432E+02  0.16182413279E+03  0.00000000000E+00 0.  1.
         -1    1    6    6    0  502  0.14929226635E+02  0.13109133523E+02  0.87133135624E+00  0.19886940639E+02  0.00000000000E+00 0.  1.
<mgrwt>
<rscale>  0 0.21392704E+04</rscale>
<asrwt>0</asrwt>
<pdfrwt beam="1">  1        1 0.32470430E+00 0.21392704E+04</pdfrwt>
<pdfrwt beam="2">  1       -1 0.83398187E-01 0.21392704E+04</pdfrwt>
<totfact> 0.32772406E+00</totfact>
</mgrwt>
</event>
<event>
12    1  0.1114484E-007  0.1734885E+04  0.7818608E-02  0.8741714E-01
         -2   -1    0    0    0  501 -0.00000000000E+00  0.00000000000E+00  0.76653602395E+03  0.76653602395E+03  0.00000000000E+00 0.  1.
          2   -1    0    0  501    0  0.00000000000E+00 -0.00000000000E+00 -0.98163257430E+03  0.98163257430E+03  0.00000000000E+00 0. -1.
         23    2    1    2    0    0  0.11166234640E+03  0.77116293851E+02 -0.73147456043E+03  0.74964655412E+03  0.92192847690E+02 0.  0.
        254    2    1    2    0    0 -0.11166234640E+03 -0.77116293851E+02  0.51637801008E+03  0.99852204413E+03  0.84379181138E+03 0.  0.
        -24    2    4    4    0    0 -0.84323521332E+02 -0.42268988460E+03  0.46528204604E+03  0.63913521427E+03  0.78925565996E+02 0.  0.
         24    2    4    4    0    0 -0.27338825073E+02  0.34557359075E+03  0.51095964038E+02  0.35938682986E+03  0.79872260244E+02 0.  0.
         13    1    3    3    0    0  0.44678269380E+02  0.76163285008E+02 -0.29084498667E+03  0.30395361490E+03  0.00000000000E+00 0. -1.
        -13    1    3    3    0    0  0.66984077025E+02  0.95300884304E+00 -0.44062957376E+03  0.44569293923E+03  0.00000000000E+00 0.  1.
          2    1    6    6  502    0 -0.55839872093E+02  0.22208631219E+03  0.33667328690E+02  0.23146038624E+03  0.00000000000E+00 0. -1.
          3    1    5    5  503    0 -0.68221054646E+01 -0.20281644932E+03  0.18534934348E+03  0.27483710151E+03  0.00000000000E+00 0. -1.
         -4    1    5    5    0  503 -0.77501415867E+02 -0.21987343528E+03  0.27993270255E+03  0.36429811276E+03  0.00000000000E+00 0.  1.
         -1    1    6    6    0  502  0.28501047020E+02  0.12348727856E+03  0.17428635347E+02  0.12792644362E+03  0.00000000000E+00 0.  1.
<mgrwt>
<rscale>  0 0.17348853E+04</rscale>
<asrwt>0</asrwt>
<pdfrwt beam="1">  1        2 0.15102039E+00 0.17348853E+04</pdfrwt>
<pdfrwt beam="2">  1       -2 0.11792862E+00 0.17348853E+04</pdfrwt>
<totfact> 0.13620146E+01</totfact>
</mgrwt>
</event>
<event>
12    1  0.1114484E-007  0.1783792E+04  0.7818608E-02  0.8714967E-01
          2   -1    0    0  501    0  0.00000000000E+00  0.00000000000E+00  0.14194132485E+04  0.14194132485E+04  0.00000000000E+00 0.  1.
         -2   -1    0    0    0  501 -0.00000000000E+00 -0.00000000000E+00 -0.56042752990E+03  0.56042752990E+03  0.00000000000E+00 0. -1.
         23    2    1    2    0    0  0.32340991218E+03  0.17419662560E+03 -0.28588402090E+03  0.47379236288E+03  0.88380394045E+02 0.  0.
        254    2    1    2    0    0 -0.32340991218E+03 -0.17419662560E+03  0.11448697395E+04  0.15060484155E+04  0.90692704988E+03 0.  0.
        -24    2    4    4    0    0 -0.15640113595E+02 -0.51054136176E+03  0.61630566127E+03  0.80445162428E+03  0.80079038902E+02 0.  0.
         24    2    4    4    0    0 -0.30776979859E+03  0.33634473616E+03  0.52856407826E+03  0.70159679127E+03  0.70767522397E+02 0.  0.
         13    1    3    3    0    0  0.27465423294E+03  0.11277800782E+03 -0.20287347181E+03  0.35959904378E+03  0.00000000000E+00 0. -1.
        -13    1    3    3    0    0  0.48755679238E+02  0.61418617778E+02 -0.83010549088E+02  0.11419331910E+03  0.00000000000E+00 0.  1.
          2    1    6    6  502    0 -0.30540352251E+03  0.33980696412E+03  0.52583431917E+03  0.69659300574E+03  0.00000000000E+00 0. -1.
          1    1    5    5  503    0 -0.19711508373E+02 -0.50799939822E+03  0.61714944740E+03  0.79957824669E+03  0.00000000000E+00 0. -1.
         -2    1    5    5    0  503  0.40713947778E+01 -0.25419635420E+01 -0.84378613225E+00  0.48733775887E+01  0.00000000000E+00 0.  1.
         -1    1    6    6    0  502 -0.23662760804E+01 -0.34622279617E+01  0.27297590883E+01  0.50037855297E+01  0.00000000000E+00 0.  1.
<mgrwt>
<rscale>  0 0.17837918E+04</rscale>
<asrwt>0</asrwt>
<pdfrwt beam="1">  1        2 0.21837127E+00 0.17837918E+04</pdfrwt>
<pdfrwt beam="2">  1       -2 0.86219620E-01 0.17837918E+04</pdfrwt>
<totfact> 0.15552326E+01</totfact>
</mgrwt>
</event>
<event>
12    1  0.1114484E-007  0.1441970E+04  0.7818608E-02  0.8923987E-01
         -1   -1    0    0    0  501 -0.00000000000E+00  0.00000000000E+00  0.59181774960E+03  0.59181774960E+03  0.00000000000E+00 0.  1.
          1   -1    0    0  501    0  0.00000000000E+00 -0.00000000000E+00 -0.87834341785E+03  0.87834341785E+03  0.00000000000E+00 0. -1.
         23    2    1    2    0    0  0.12701062215E+03  0.28893793282E+02  0.34776168355E+03  0.38102362836E+03  0.85289315851E+02 0.  0.
        254    2    1    2    0    0 -0.12701062215E+03 -0.28893793282E+02 -0.63428735180E+03  0.10891375391E+04  0.87574744360E+03 0.  0.
        -24    2    4    4    0    0  0.25840397554E+02  0.37479350365E+03 -0.99004146789E+02  0.39685568966E+03  0.80961230271E+02 0.  0.
         24    2    4    4    0    0 -0.15285101970E+03 -0.40368729694E+03 -0.53528320501E+03  0.69228184943E+03  0.79994884493E+02 0.  0.
         13    1    3    3    0    0  0.10439630496E+03  0.51338999654E+02  0.31273759379E+03  0.33367511736E+03  0.00000000000E+00 0.  1.
        -13    1    3    3    0    0  0.22614317187E+02 -0.22445206372E+02  0.35024089756E+02  0.47348511003E+02  0.00000000000E+00 0. -1.
          4    1    6    6  502    0 -0.61261365637E+02 -0.21943952314E+03 -0.22678509970E+03  0.32146250276E+03  0.00000000000E+00 0. -1.
          3    1    5    5  503    0  0.15759733082E+02  0.31775490209E+03 -0.11237700471E+03  0.33740945182E+03  0.00000000000E+00 0. -1.
         -4    1    5    5    0  503  0.10080664472E+02  0.57038601559E+02  0.13372857920E+02  0.59446237837E+02  0.00000000000E+00 0.  1.
         -3    1    6    6    0  502 -0.91589654065E+02 -0.18424777380E+03 -0.30849810531E+03  0.37081934666E+03  0.00000000000E+00 0.  1.
<mgrwt>
<rscale>  0 0.14419698E+04</rscale>
<asrwt>0</asrwt>
<pdfrwt beam="1">  1        1 0.13512976E+00 0.14419698E+04</pdfrwt>
<pdfrwt beam="2">  1       -1 0.91048885E-01 0.14419698E+04</pdfrwt>
<totfact> 0.21703855E+01</totfact>
</mgrwt>
</event>
<event>
12    1  0.1114484E-007  0.1625998E+04  0.7818608E-02  0.8804734E-01
          1   -1    0    0  501    0  0.00000000000E+00  0.00000000000E+00  0.11688274977E+04  0.11688274977E+04  0.00000000000E+00 0. -1.
         -1   -1    0    0    0  501 -0.00000000000E+00 -0.00000000000E+00 -0.56549599668E+03  0.56549599668E+03  0.00000000000E+00 0.  1.
         23    2    1    2    0    0 -0.43740380748E+03 -0.20723449013E+03 -0.90195482981E+02  0.49811348773E+03  0.75588337808E+02 0.  0.
        254    2    1    2    0    0  0.43740380748E+03  0.20723449013E+03  0.69352698401E+03  0.12362100067E+04  0.90164698099E+03 0.  0.
        -24    2    4    4    0    0 -0.66773509295E+02 -0.25577076353E+03  0.30121569110E+02  0.27965110538E+03  0.86139693499E+02 0.  0.
         24    2    4    4    0    0  0.50417731677E+03  0.46300525366E+03  0.66340541490E+03  0.95655890128E+03  0.79558503262E+02 0.  0.
         13    1    3    3    0    0 -0.30704522456E+02 -0.10640686802E+02  0.12580874355E+02  0.34846381654E+02  0.00000000000E+00 0. -1.
        -13    1    3    3    0    0 -0.40669928502E+03 -0.19659380333E+03 -0.10277635734E+03  0.46326710608E+03  0.00000000000E+00 0.  1.
          4    1    6    6  502    0  0.21036061856E+03  0.24669347350E+03  0.31885414685E+03  0.45472764010E+03  0.00000000000E+00 0. -1.
          1    1    5    5  503    0 -0.51656593768E+02 -0.20914453150E+03 -0.10942999617E+02  0.21570718110E+03  0.00000000000E+00 0. -1.
         -2    1    5    5    0  503 -0.15116915527E+02 -0.46626232029E+02  0.41064568727E+02  0.63943924285E+02  0.00000000000E+00 0.  1.
         -3    1    6    6    0  502  0.29381669822E+03  0.21631178016E+03  0.34455126805E+03  0.50183126118E+03  0.00000000000E+00 0.  1.
<mgrwt>
<rscale>  0 0.16259979E+04</rscale>
<asrwt>0</asrwt>
<pdfrwt beam="1">  1        1 0.17981962E+00 0.16259979E+04</pdfrwt>
<pdfrwt beam="2">  1       -1 0.86999384E-01 0.16259979E+04</pdfrwt>
<totfact> 0.14038950E+01</totfact>
</mgrwt>
</event>
<event>
12    1  0.1114484E-007  0.1159386E+04  0.7818608E-02  0.9149168E-01
          1   -1    0    0  501    0  0.00000000000E+00  0.00000000000E+00  0.15417194660E+03  0.15417194660E+03  0.00000000000E+00 0. -1.
         -1   -1    0    0    0  501 -0.00000000000E+00 -0.00000000000E+00 -0.21796714723E+04  0.21796714723E+04  0.00000000000E+00 0.  1.
         23    2    1    2    0    0  0.78621396837E+01 -0.97236200389E+02 -0.31789597842E+02  0.14108422303E+03  0.96837428459E+02 0.  0.
        254    2    1    2    0    0 -0.78621396837E+01  0.97236200389E+02 -0.19937099279E+04  0.21927591959E+04  0.90763259237E+03 0.  0.
        -24    2    4    4    0    0 -0.30422662937E+03  0.20116078123E+03 -0.17445211930E+04  0.17840090724E+04  0.79464932852E+02 0.  0.
         24    2    4    4    0    0  0.29636448969E+03 -0.10392458084E+03 -0.24918873486E+03  0.40875012350E+03  0.79683176580E+02 0.  0.
         13    1    3    3    0    0  0.23465770377E+02 -0.24939017363E+02 -0.53926967316E+02  0.63880472528E+02  0.00000000000E+00 0.  1.
        -13    1    3    3    0    0 -0.15603630693E+02 -0.72297183026E+02  0.22137369475E+02  0.77203750502E+02  0.00000000000E+00 0. -1.
          2    1    6    6  502    0  0.48706838058E+02 -0.51423493847E+02 -0.56286830174E+02  0.90470652943E+02  0.00000000000E+00 0. -1.
          1    1    5    5  503    0 -0.26343334550E+02  0.10693272881E+02 -0.63682389490E+02  0.69740691789E+02  0.00000000000E+00 0. -1.
         -2    1    5    5    0  503 -0.27788329482E+03  0.19046750835E+03 -0.16808388035E+04  0.17142683806E+04  0.00000000000E+00 0.  1.
         -1    1    6    6    0  502  0.24765765163E+03 -0.52501086993E+02 -0.19290190469E+03  0.31827947056E+03  0.00000000000E+00 0.  1.
<mgrwt>
<rscale>  0 0.11593864E+04</rscale>
<asrwt>0</asrwt>
<pdfrwt beam="1">  1        1 0.23718762E-01 0.11593864E+04</pdfrwt>
<pdfrwt beam="2">  1       -1 0.33533405E+00 0.11593864E+04</pdfrwt>
<totfact> 0.40807249E+00</totfact>
</mgrwt>
</event>
<event>
12    1  0.1114484E-007  0.1455194E+04  0.7818608E-02  0.8914807E-01
          1   -1    0    0  501    0  0.00000000000E+00  0.00000000000E+00  0.13984839461E+04  0.13984839461E+04  0.00000000000E+00 0. -1.
         -1   -1    0    0    0  501 -0.00000000000E+00 -0.00000000000E+00 -0.37855112646E+03  0.37855112646E+03  0.00000000000E+00 0.  1.
         23    2    1    2    0    0 -0.23929535485E+03  0.10802831908E+03 -0.10854697078E+03  0.29840196713E+03  0.91262832210E+02 0.  0.
        254    2    1    2    0    0  0.23929535485E+03 -0.10802831908E+03  0.11284797904E+04  0.14786331054E+04  0.91867123527E+03 0.  0.
        -24    2    4    4    0    0  0.35912358766E+03 -0.18324278309E+03  0.12244527503E+04  0.12916017417E+04  0.80017827495E+02 0.  0.
         24    2    4    4    0    0 -0.11982823281E+03  0.75214464006E+02 -0.95972959873E+02  0.18703136372E+03  0.75854472616E+02 0.  0.
         11    1    3    3    0    0 -0.20085439397E+03  0.12371988404E+03 -0.85520030308E+02  0.25092383877E+03  0.00000000000E+00 0.  1.
        -11    1    3    3    0    0 -0.38440960888E+02 -0.15691564954E+02 -0.23026940468E+02  0.47478128354E+02  0.00000000000E+00 0. -1.
          2    1    6    6  502    0 -0.23252070232E+02  0.11467856144E+02 -0.60782931708E+02  0.66081277845E+02  0.00000000000E+00 0. -1.
          3    1    5    5  503    0  0.17780583007E+03 -0.75988183610E+02  0.70553684074E+03  0.73155406560E+03  0.00000000000E+00 0. -1.
         -4    1    5    5    0  503  0.18131775759E+03 -0.10725459948E+03  0.51891590956E+03  0.56004767612E+03  0.00000000000E+00 0.  1.
         -1    1    6    6    0  502 -0.96576162576E+02  0.63746607862E+02 -0.35190028165E+02  0.12095008588E+03  0.00000000000E+00 0.  1.
<mgrwt>
<rscale>  0 0.14551944E+04</rscale>
<asrwt>0</asrwt>
<pdfrwt beam="1">  1        1 0.21515137E+00 0.14551944E+04</pdfrwt>
<pdfrwt beam="2">  1       -1 0.58238635E-01 0.14551944E+04</pdfrwt>
<totfact> 0.22334979E+01</totfact>
</mgrwt>
</event>
<event>
12    1  0.1114484E-007  0.3910664E+04  0.7818608E-02  0.8022815E-01
          1   -1    0    0  501    0  0.00000000000E+00  0.00000000000E+00  0.21095212393E+04  0.21095212393E+04  0.00000000000E+00 0. -1.
         -1   -1    0    0    0  501 -0.00000000000E+00 -0.00000000000E+00 -0.18124129365E+04  0.18124129365E+04  0.00000000000E+00 0.  1.
         23    2    1    2    0    0  0.10144454391E+04  0.14303554109E+04  0.74316333354E+03  0.19067463909E+04  0.91509063269E+02 0.  0.
        254    2    1    2    0    0 -0.10144454391E+04 -0.14303554109E+04 -0.44605503080E+03  0.20151877849E+04  0.88713052452E+03 0.  0.
        -24    2    4    4    0    0 -0.22508940464E+03 -0.70353642956E+03 -0.56396693660E+03  0.93277012971E+03  0.79828951543E+02 0.  0.
         24    2    4    4    0    0 -0.78935603444E+03 -0.72681898134E+03  0.11791190580E+03  0.10824176552E+04  0.79849746330E+02 0.  0.
         13    1    3    3    0    0  0.18341797363E+03  0.25924343429E+03  0.17352844823E+03  0.36188594006E+03  0.00000000000E+00 0.  1.
        -13    1    3    3    0    0  0.83102746545E+03  0.11711119766E+04  0.56963488531E+03  0.15448604509E+04  0.00000000000E+00 0. -1.
          4    1    6    6  502    0 -0.24073218786E+02 -0.12385531188E+02 -0.72528882168E+01  0.28027230205E+02  0.00000000000E+00 0. -1.
          3    1    5    5  503    0 -0.58564024628E+02 -0.22142774997E+03 -0.21988106884E+03  0.31750224861E+03  0.00000000000E+00 0. -1.
         -4    1    5    5    0  503 -0.16652538001E+03 -0.48210867958E+03 -0.34408586776E+03  0.61526788110E+03  0.00000000000E+00 0.  1.
         -3    1    6    6    0  502 -0.76528281565E+03 -0.71443345015E+03  0.12516479402E+03  0.10543904250E+04  0.00000000000E+00 0.  1.
<mgrwt>
<rscale>  0 0.39106642E+04</rscale>
<asrwt>0</asrwt>
<pdfrwt beam="1">  1        1 0.32454173E+00 0.39106642E+04</pdfrwt>
<pdfrwt beam="2">  1       -1 0.27883276E+00 0.39106642E+04</pdfrwt>
<totfact> 0.89648292E-02</totfact>
</mgrwt>
</event>
<event>
12    1  0.1114484E-007  0.3477652E+04  0.7818608E-02  0.8119107E-01
         -1   -1    0    0    0  501 -0.00000000000E+00  0.00000000000E+00  0.30721657057E+04  0.30721657057E+04  0.00000000000E+00 0.  1.
          1   -1    0    0  501    0  0.00000000000E+00 -0.00000000000E+00 -0.98416430626E+03  0.98416430626E+03  0.00000000000E+00 0. -1.
         23    2    1    2    0    0 -0.12796942925E+04 -0.98870743520E+03  0.10752682603E+04  0.19440813274E+04  0.89947212667E+02 0.  0.
        254    2    1    2    0    0  0.12796942925E+04  0.98870743520E+03  0.10127331392E+04  0.21122486846E+04  0.90598356483E+03 0.  0.
        -24    2    4    4    0    0 -0.33493217996E+02 -0.13978083241E+02 -0.90412246390E+02  0.12397787218E+03  0.76674350534E+02 0.  0.
         24    2    4    4    0    0  0.13131875105E+04  0.10026855184E+04  0.11031453856E+04  0.19882708124E+04  0.80320577821E+02 0.  0.
         13    1    3    3    0    0 -0.15819432867E+03 -0.15451324655E+03  0.12646671882E+03  0.25474226181E+03  0.00000000000E+00 0.  1.
        -13    1    3    3    0    0 -0.11214999639E+04 -0.83419418866E+03  0.94880154146E+03  0.16893390656E+04  0.00000000000E+00 0. -1.
          4    1    6    6  502    0  0.11537728974E+04  0.84790499563E+03  0.94571862604E+03  0.17159599354E+04  0.00000000000E+00 0. -1.
          3    1    5    5  503    0 -0.46960162875E+02  0.13004336443E+02 -0.76655406960E+02  0.90831828561E+02  0.00000000000E+00 0. -1.
         -4    1    5    5    0  503  0.13466944879E+02 -0.26982419684E+02 -0.13756839430E+02  0.33146043617E+02  0.00000000000E+00 0.  1.
         -3    1    6    6    0  502  0.15941461313E+03  0.15478052282E+03  0.15742675953E+03  0.27231087701E+03  0.00000000000E+00 0.  1.
<mgrwt>
<rscale>  0 0.34776520E+04</rscale>
<asrwt>0</asrwt>
<pdfrwt beam="1">  1        1 0.15140990E+00 0.34776520E+04</pdfrwt>
<pdfrwt beam="2">  1       -1 0.47264087E+00 0.34776520E+04</pdfrwt>
<totfact> 0.28793186E-02</totfact>
</mgrwt>
</event>
<event>
12    1  0.1114484E-007  0.1637786E+04  0.7818608E-02  0.8797665E-01
         -1   -1    0    0    0  501 -0.00000000000E+00  0.00000000000E+00  0.14348389920E+04  0.14348389920E+04  0.00000000000E+00 0.  1.
          1   -1    0    0  501    0  0.00000000000E+00 -0.00000000000E+00 -0.46735954812E+03  0.46735954812E+03  0.00000000000E+00 0. -1.
         23    2    1    2    0    0 -0.50912742595E+03 -0.59300117795E+02  0.51752076319E+02  0.52273452147E+03  0.88576874580E+02 0.  0.
        254    2    1    2    0    0  0.50912742595E+03  0.59300117795E+02  0.91572736758E+03  0.13794640187E+04  0.89534190522E+03 0.  0.
        -24    2    4    4    0    0  0.56243604879E+03  0.79150349296E+02  0.13102239752E+03  0.58858810737E+03  0.81670096830E+02 0.  0.
         24    2    4    4    0    0 -0.53308622836E+02 -0.19850231500E+02  0.78470497006E+03  0.79087591130E+03  0.80541766085E+02 0.  0.
         11    1    3    3    0    0 -0.84492688026E+02  0.14031196009E+02  0.31767287928E+02  0.91351241773E+02  0.00000000000E+00 0. -1.
        -11    1    3    3    0    0 -0.42463473793E+03 -0.73331313805E+02  0.19984788390E+02  0.43138327970E+03  0.00000000000E+00 0.  1.
          4    1    6    6  502    0  0.17073471287E+02  0.11495387216E+02  0.12442432598E+03  0.12611526571E+03  0.00000000000E+00 0. -1.
          1    1    5    5  503    0  0.38479132078E+02 -0.86984711481E+01  0.25400548366E+02  0.46920090186E+02  0.00000000000E+00 0. -1.
         -2    1    5    5    0  503  0.52395691671E+03  0.87848820444E+02  0.10562184915E+03  0.54166801718E+03  0.00000000000E+00 0.  1.
         -3    1    6    6    0  502 -0.70382094123E+02 -0.31345618717E+02  0.66028064407E+03  0.66476064559E+03  0.00000000000E+00 0.  1.
<mgrwt>
<rscale>  0 0.16377859E+04</rscale>
<asrwt>0</asrwt>
<pdfrwt beam="1">  1        1 0.71901469E-01 0.16377859E+04</pdfrwt>
<pdfrwt beam="2">  1       -1 0.22074446E+00 0.16377859E+04</pdfrwt>
<totfact> 0.50604922E+00</totfact>
</mgrwt>
</event>
<event>
12    1  0.1114484E-007  0.1587370E+04  0.7818608E-02  0.8828345E-01
         -3   -1    0    0    0  501 -0.00000000000E+00  0.00000000000E+00  0.23256785523E+04  0.23256785523E+04  0.00000000000E+00 0.  1.
          3   -1    0    0  501    0  0.00000000000E+00 -0.00000000000E+00 -0.27086097604E+03  0.27086097604E+03  0.00000000000E+00 0. -1.
         23    2    1    2    0    0 -0.32843758912E+03 -0.23797494923E+03  0.99092483695E+02  0.42731062005E+03  0.90948992689E+02 0.  0.
        254    2    1    2    0    0  0.32843758912E+03  0.23797494923E+03  0.19557250926E+04  0.21692289083E+04  0.84628015011E+03 0.  0.
        -24    2    4    4    0    0  0.51118332116E+03 -0.59684387926E+02  0.76348733834E+03  0.92429888506E+03  0.80900550762E+02 0.  0.
         24    2    4    4    0    0 -0.18274573205E+03  0.29765933716E+03  0.11922377542E+04  0.12449300232E+04  0.80142476668E+02 0.  0.
         13    1    3    3    0    0 -0.22670318011E+02 -0.31596268868E+02  0.36123180250E+02  0.53076846896E+02  0.00000000000E+00 0.  1.
        -13    1    3    3    0    0 -0.30576727111E+03 -0.20637868037E+03  0.62969303445E+02  0.37423377315E+03  0.00000000000E+00 0. -1.
          4    1    6    6  502    0 -0.17549947243E+03  0.23431349932E+03  0.92651769311E+03  0.97166759565E+03  0.00000000000E+00 0. -1.
          1    1    5    5  503    0  0.18811188300E+03  0.14994373654E+02  0.25453734139E+03  0.31685985850E+03  0.00000000000E+00 0. -1.
         -2    1    5    5    0  503  0.32307143816E+03 -0.74678761581E+02  0.50894999695E+03  0.60743902655E+03  0.00000000000E+00 0.  1.
         -3    1    6    6    0  502 -0.72462596144E+01  0.63345837839E+02  0.26572006113E+03  0.27326242760E+03  0.00000000000E+00 0.  1.
<mgrwt>
<rscale>  0 0.15873696E+04</rscale>
<asrwt>0</asrwt>
<pdfrwt beam="1">  1        3 0.41670921E-01 0.15873696E+04</pdfrwt>
<pdfrwt beam="2">  1       -3 0.35779669E+00 0.15873696E+04</pdfrwt>
<totfact> 0.26269220E-01</totfact>
</mgrwt>
</event>
<event>
12    1  0.1114484E-007  0.1294637E+04  0.7818608E-02  0.9033829E-01
         -2   -1    0    0    0  501 -0.00000000000E+00  0.00000000000E+00  0.42371682540E+03  0.42371682540E+03  0.00000000000E+00 0.  1.
          2   -1    0    0  501    0  0.00000000000E+00 -0.00000000000E+00 -0.98891869914E+03  0.98891869914E+03  0.00000000000E+00 0. -1.
         23    2    1    2    0    0  0.24563158144E+03 -0.16039695175E+03  0.93497724025E+01  0.30570690638E+03  0.85482386708E+02 0.  0.
        254    2    1    2    0    0 -0.24563158144E+03  0.16039695175E+03 -0.57455164614E+03  0.11069286182E+04  0.89951059788E+03 0.  0.
        -24    2    4    4    0    0 -0.32609418584E+03  0.38339075926E+03 -0.66630088117E+03  0.83894768270E+03  0.80934898173E+02 0.  0.
         24    2    4    4    0    0  0.80462604406E+02 -0.22299380751E+03  0.91749235033E+02  0.26798093545E+03  0.84825649080E+02 0.  0.
         13    1    3    3    0    0  0.16227334366E+03 -0.12292274418E+03  0.43447080438E+02  0.20815928492E+03  0.00000000000E+00 0.  1.
        -13    1    3    3    0    0  0.83358237770E+02 -0.37474207566E+02 -0.34097308036E+02  0.97547621458E+02  0.00000000000E+00 0. -1.
          4    1    6    6  502    0  0.22474669979E+02 -0.16218458550E+03  0.82800213370E+02  0.18347976973E+03  0.00000000000E+00 0. -1.
          3    1    5    5  503    0 -0.24589292448E+03  0.23760093032E+03 -0.47727127430E+03  0.58711617391E+03  0.00000000000E+00 0. -1.
         -4    1    5    5    0  503 -0.80201261359E+02  0.14578982895E+03 -0.18902960687E+03  0.25183150879E+03  0.00000000000E+00 0.  1.
         -3    1    6    6    0  502  0.57987934427E+02 -0.60809222007E+02  0.89490216624E+01  0.84501165725E+02  0.00000000000E+00 0.  1.
<mgrwt>
<rscale>  0 0.12946374E+04</rscale>
<asrwt>0</asrwt>
<pdfrwt beam="1">  1        2 0.15214134E+00 0.12946374E+04</pdfrwt>
<pdfrwt beam="2">  1       -2 0.65187204E-01 0.12946374E+04</pdfrwt>
<totfact> 0.54487895E+01</totfact>
</mgrwt>
</event>
<event>
12    1  0.1114484E-007  0.1236155E+04  0.7818608E-02  0.9081786E-01
          2   -1    0    0  501    0  0.00000000000E+00  0.00000000000E+00  0.72000516543E+03  0.72000516543E+03  0.00000000000E+00 0. -1.
         -2   -1    0    0    0  501 -0.00000000000E+00 -0.00000000000E+00 -0.53057896073E+03  0.53057896073E+03  0.00000000000E+00 0.  1.
         23    2    1    2    0    0 -0.13930494813E+03 -0.42454083257E+02  0.28135005750E+03  0.32979073848E+03  0.91628917780E+02 0.  0.
        254    2    1    2    0    0  0.13930494813E+03  0.42454083257E+02 -0.91923852792E+02  0.92079338768E+03  0.90454532796E+03 0.  0.
        -24    2    4    4    0    0 -0.14244348568E+03 -0.27005604323E+03 -0.30809868226E+03  0.44116823777E+03  0.80524548450E+02 0.  0.
         24    2    4    4    0    0  0.28174843380E+03  0.31251012649E+03  0.21617482947E+03  0.47962514992E+03  0.79145236300E+02 0.  0.
         11    1    3    3    0    0 -0.11221216698E+03 -0.35196122423E+02  0.27761252738E+03  0.30149469782E+03  0.00000000000E+00 0. -1.
        -11    1    3    3    0    0 -0.27092781146E+02 -0.72579608341E+01  0.37375301160E+01  0.28296040661E+02  0.00000000000E+00 0.  1.
          4    1    6    6  502    0  0.15156531195E+03  0.10951635157E+03  0.93619437516E+02  0.20911832566E+03  0.00000000000E+00 0. -1.
          3    1    5    5  503    0 -0.13253659553E+03 -0.19330944051E+03 -0.19932292981E+03  0.30767534723E+03  0.00000000000E+00 0. -1.
         -4    1    5    5    0  503 -0.99068901456E+01 -0.76746602722E+02 -0.10877575245E+03  0.13349289054E+03  0.00000000000E+00 0.  1.
         -3    1    6    6    0  502  0.13018312186E+03  0.20299377492E+03  0.12255539196E+03  0.27050682426E+03  0.00000000000E+00 0.  1.
<mgrwt>
<rscale>  0 0.12361547E+04</rscale>
<asrwt>0</asrwt>
<pdfrwt beam="1">  1        2 0.11077002E+00 0.12361547E+04</pdfrwt>
<pdfrwt beam="2">  1       -2 0.81627533E-01 0.12361547E+04</pdfrwt>
<totfact> 0.51422083E+01</totfact>
</mgrwt>
</event>
<event>
12    1  0.1155553E-007  0.2743738E+04  0.7818608E-02  0.8320951E-01
          1   -1    0    0  501    0  0.00000000000E+00  0.00000000000E+00  0.12204094133E+04  0.12204094133E+04  0.00000000000E+00 0. -1.
         -1   -1    0    0    0  501 -0.00000000000E+00 -0.00000000000E+00 -0.15421260272E+04  0.15421260272E+04  0.00000000000E+00 0.  1.
         23    2    1    2    0    0  0.10133795483E+04 -0.52469433825E+03 -0.58327984350E+03  0.12850363238E+04  0.94131398158E+02 0.  0.
        254    2    1    2    0    0 -0.10133795483E+04  0.52469433825E+03  0.26156322966E+03  0.14774991167E+04  0.90130242383E+03 0.  0.
        -24    2    4    4    0    0 -0.90776809030E+02  0.19614734572E+03  0.42286731973E+03  0.48144241107E+03  0.79093708913E+02 0.  0.
         24    2    4    4    0    0 -0.92260273931E+03  0.32854699253E+03 -0.16130409007E+03  0.99605670564E+03  0.83492577532E+02 0.  0.
         11    1    3    3    0    0  0.27006204816E+03 -0.12853241694E+03 -0.19883733836E+03  0.35915230639E+03  0.00000000000E+00 0. -1.
        -11    1    3    3    0    0  0.74331750018E+03 -0.39616192131E+03 -0.38444250514E+03  0.92588401743E+03  0.00000000000E+00 0.  1.
          2    1    6    6  502    0 -0.46270489070E+02 -0.81687118448E+00 -0.12797557057E+01  0.46295390829E+02  0.00000000000E+00 0. -1.
          3    1    5    5  503    0  0.52646046604E+01  0.50070128947E+01 -0.30992285200E+00  0.72720212137E+01  0.00000000000E+00 0. -1.
         -4    1    5    5    0  503 -0.96041413691E+02  0.19114033282E+03  0.42317724259E+03  0.47417038986E+03  0.00000000000E+00 0.  1.
         -1    1    6    6    0  502 -0.87633225024E+03  0.32936386372E+03 -0.16002433436E+03  0.94976131481E+03  0.00000000000E+00 0.  1.
<mgrwt>
<rscale>  0 0.27437384E+04</rscale>
<asrwt>0</asrwt>
<pdfrwt beam="1">  1        1 0.18775530E+00 0.27437384E+04</pdfrwt>
<pdfrwt beam="2">  1       -1 0.23725016E+00 0.27437384E+04</pdfrwt>
<totfact> 0.75916964E-01</totfact>
</mgrwt>
</event>
<event>
12    1  0.1114484E-007  0.1841144E+04  0.7818608E-02  0.8684720E-01
         -1   -1    0    0    0  501 -0.00000000000E+00  0.00000000000E+00  0.26014384452E+03  0.26014384452E+03  0.00000000000E+00 0.  1.
          1   -1    0    0  501    0  0.00000000000E+00 -0.00000000000E+00 -0.32576314357E+04  0.32576314357E+04  0.00000000000E+00 0. -1.
         23    2    1    2    0    0 -0.24614841731E+03 -0.60012397662E+03 -0.14926574653E+04  0.16307012615E+04  0.10209047503E+03 0.  0.
        254    2    1    2    0    0  0.24614841731E+03  0.60012397662E+03 -0.15048301260E+04  0.18870740187E+04  0.93584016451E+03 0.  0.
        -24    2    4    4    0    0 -0.11151836526E+03 -0.15001215023E+03 -0.49940211126E+02  0.20963161072E+03  0.80693224725E+02 0.  0.
         24    2    4    4    0    0  0.35766678258E+03  0.75013612685E+03 -0.14548899148E+04  0.16774424080E+04  0.80489948182E+02 0.  0.
         13    1    3    3    0    0 -0.18258894701E+03 -0.33855447230E+03 -0.95098297179E+03  0.10258296481E+04  0.00000000000E+00 0. -1.
        -13    1    3    3    0    0 -0.63559470300E+02 -0.26156950432E+03 -0.54167449348E+03  0.60487161343E+03  0.00000000000E+00 0.  1.
          4    1    6    6  502    0  0.27093525633E+03  0.50063261205E+03 -0.94541485248E+03  0.11035615835E+04  0.00000000000E+00 0. -1.
          3    1    5    5  503    0 -0.96799935007E+02 -0.14522546094E+03 -0.66679460663E+02  0.18683364899E+03  0.00000000000E+00 0. -1.
         -4    1    5    5    0  503 -0.14718430258E+02 -0.47866892900E+01  0.16739249537E+02  0.22797961722E+02  0.00000000000E+00 0.  1.
         -3    1    6    6    0  502  0.86731526248E+02  0.24950351480E+03 -0.50947506235E+03  0.57388082447E+03  0.00000000000E+00 0.  1.
<mgrwt>
<rscale>  0 0.18411440E+04</rscale>
<asrwt>0</asrwt>
<pdfrwt beam="1">  1        1 0.50117411E+00 0.18411440E+04</pdfrwt>
<pdfrwt beam="2">  1       -1 0.40022126E-01 0.18411440E+04</pdfrwt>
<totfact> 0.22099854E+00</totfact>
</mgrwt>
</event>
<event>
12    1  0.1114484E-007  0.1551837E+04  0.7818608E-02  0.8850695E-01
          2   -1    0    0  501    0  0.00000000000E+00  0.00000000000E+00  0.18423394173E+04  0.18423394173E+04  0.00000000000E+00 0. -1.
         -2   -1    0    0    0  501 -0.00000000000E+00 -0.00000000000E+00 -0.32678537182E+03  0.32678537182E+03  0.00000000000E+00 0.  1.
         23    2    1    2    0    0  0.49385002026E+03 -0.12540867975E+03  0.41381741503E+03  0.66226750719E+03  0.87967145152E+02 0.  0.
        254    2    1    2    0    0 -0.49385002026E+03  0.12540867975E+03  0.11017366305E+04  0.15068572820E+04  0.89284941943E+03 0.  0.
        -24    2    4    4    0    0 -0.20289602453E+03  0.16471473885E+03 -0.81050709800E+02  0.28508659199E+03  0.80046270390E+02 0.  0.
         24    2    4    4    0    0 -0.29095399572E+03 -0.39306059103E+02  0.11827873403E+04  0.12217706900E+04  0.86824723670E+02 0.  0.
         13    1    3    3    0    0  0.36507403051E+03 -0.10227378797E+03  0.35285572042E+03  0.51792483518E+03  0.00000000000E+00 0.  1.
        -13    1    3    3    0    0  0.12877598975E+03 -0.23134891781E+02  0.60961694609E+02  0.14434267201E+03  0.00000000000E+00 0. -1.
          4    1    6    6  502    0 -0.34076223678E+02  0.20045336665E+02  0.10473396508E+03  0.11194734469E+03  0.00000000000E+00 0. -1.
          3    1    5    5  503    0 -0.82994941337E+02  0.20485767799E+02 -0.19445198508E+02  0.87669508467E+02  0.00000000000E+00 0. -1.
         -4    1    5    5    0  503 -0.11990108320E+03  0.14422897105E+03 -0.61605511291E+02  0.19741708352E+03  0.00000000000E+00 0.  1.
         -3    1    6    6    0  502 -0.25687777204E+03 -0.59351395768E+02  0.10780533752E+04  0.11098233453E+04  0.00000000000E+00 0.  1.
<mgrwt>
<rscale>  0 0.15518371E+04</rscale>
<asrwt>0</asrwt>
<pdfrwt beam="1">  1        2 0.28343683E+00 0.15518371E+04</pdfrwt>
<pdfrwt beam="2">  1       -2 0.50274674E-01 0.15518371E+04</pdfrwt>
<totfact> 0.29439972E+01</totfact>
</mgrwt>
</event>
<event>
12    1  0.1114484E-007  0.1462994E+04  0.7818608E-02  0.8909441E-01
          2   -1    0    0  501    0  0.00000000000E+00  0.00000000000E+00  0.12087610312E+04  0.12087610312E+04  0.00000000000E+00 0. -1.
         -2   -1    0    0    0  501 -0.00000000000E+00 -0.00000000000E+00 -0.44267479526E+03  0.44267479526E+03  0.00000000000E+00 0.  1.
         23    2    1    2    0    0  0.41902400527E+03  0.11316716948E+03  0.32843795921E+03  0.55209942694E+03  0.92489777444E+02 0.  0.
        254    2    1    2    0    0 -0.41902400527E+03 -0.11316716948E+03  0.43764827672E+03  0.10993363995E+04  0.91028379089E+03 0.  0.
        -24    2    4    4    0    0  0.33707512118E+02 -0.14360363186E+02 -0.25030142273E+03  0.26610940855E+03  0.82589337649E+02 0.  0.
         24    2    4    4    0    0 -0.45273151739E+03 -0.98806806294E+02  0.68794969946E+03  0.83322699098E+03  0.79144284076E+02 0.  0.
         11    1    3    3    0    0  0.99272543215E+01  0.17315190727E+02  0.32597905190E+02  0.38222894069E+02  0.00000000000E+00 0.  1.
        -11    1    3    3    0    0  0.40909675095E+03  0.95851978754E+02  0.29584005402E+03  0.51387653287E+03  0.00000000000E+00 0. -1.
          4    1    6    6  502    0 -0.36846796178E+03 -0.80084112109E+02  0.49857193002E+03  0.62510484982E+03  0.00000000000E+00 0. -1.
          1    1    5    5  503    0  0.53567178980E+02 -0.59551510122E+01 -0.23088145758E+03  0.23708891569E+03  0.00000000000E+00 0. -1.
         -2    1    5    5    0  503 -0.19859666862E+02 -0.84052121742E+01 -0.19419965153E+02  0.29020492865E+02  0.00000000000E+00 0.  1.
         -3    1    6    6    0  502 -0.84263555615E+02 -0.18722694185E+02  0.18937776943E+03  0.20812214115E+03  0.00000000000E+00 0.  1.
<mgrwt>
<rscale>  0 0.14629942E+04</rscale>
<asrwt>0</asrwt>
<pdfrwt beam="1">  1        2 0.18596323E+00 0.14629942E+04</pdfrwt>
<pdfrwt beam="2">  1       -2 0.68103815E-01 0.14629942E+04</pdfrwt>
<totfact> 0.35785825E+01</totfact>
</mgrwt>
</event>
<event>
12    1  0.1114484E-007  0.2126814E+04  0.7818608E-02  0.8549523E-01
         -2   -1    0    0    0  501 -0.00000000000E+00  0.00000000000E+00  0.10769336602E+04  0.10769336602E+04  0.00000000000E+00 0.  1.
          2   -1    0    0  501    0  0.00000000000E+00 -0.00000000000E+00 -0.10500500668E+04  0.10500500668E+04  0.00000000000E+00 0. -1.
         23    2    1    2    0    0  0.45715923348E+03  0.32863990591E+03 -0.65685905256E+03  0.86982598811E+03  0.90192472845E+02 0.  0.
        254    2    1    2    0    0 -0.45715923348E+03 -0.32863990591E+03  0.68374264598E+03  0.12571577388E+04  0.89215627660E+03 0.  0.
        -24    2    4    4    0    0 -0.55457022678E+03 -0.53646518262E+03  0.64842298046E+03  0.10110152063E+04  0.79726766196E+02 0.  0.
         24    2    4    4    0    0  0.97410993305E+02  0.20782527672E+03  0.35319665517E+02  0.24614253250E+03  0.81599143836E+02 0.  0.
         13    1    3    3    0    0  0.17616480012E+03  0.15524543764E+03 -0.21616993498E+03  0.31916237795E+03  0.00000000000E+00 0. -1.
        -13    1    3    3    0    0  0.28099443336E+03  0.17339446826E+03 -0.44068911758E+03  0.55066361016E+03  0.00000000000E+00 0.  1.
          2    1    6    6  502    0  0.15086219065E+02  0.10754454274E+02 -0.18192483570E+02  0.25965722614E+02  0.00000000000E+00 0. -1.
          3    1    5    5  503    0 -0.21191630781E+03 -0.16028901939E+03  0.24878036642E+03  0.36399555213E+03  0.00000000000E+00 0. -1.
         -4    1    5    5    0  503 -0.34265391897E+03 -0.37617616323E+03  0.39964261404E+03  0.64701965420E+03  0.00000000000E+00 0.  1.
         -1    1    6    6    0  502  0.82324774240E+02  0.19707082244E+03  0.53512149087E+02  0.22017680989E+03  0.00000000000E+00 0.  1.
<mgrwt>
<rscale>  0 0.21268138E+04</rscale>
<asrwt>0</asrwt>
<pdfrwt beam="1">  1        2 0.16154616E+00 0.21268138E+04</pdfrwt>
<pdfrwt beam="2">  1       -2 0.16568210E+00 0.21268138E+04</pdfrwt>
<totfact> 0.49261085E+00</totfact>
</mgrwt>
</event>
<event>
12    1  0.1114484E-007  0.1557006E+04  0.7818608E-02  0.8847405E-01
         -1   -1    0    0    0  501 -0.00000000000E+00  0.00000000000E+00  0.21003124721E+03  0.21003124721E+03  0.00000000000E+00 0.  1.
          1   -1    0    0  501    0  0.00000000000E+00 -0.00000000000E+00 -0.28856026314E+04  0.28856026314E+04  0.00000000000E+00 0. -1.
         23    2    1    2    0    0  0.52287516323E+03  0.62546231128E+02 -0.62409809652E+03  0.82179142741E+03  0.92370172373E+02 0.  0.
        254    2    1    2    0    0 -0.52287516323E+03 -0.62546231128E+02 -0.20514732877E+04  0.22738424512E+04  0.82734900465E+03 0.  0.
        -24    2    4    4    0    0  0.40869096401E+02 -0.27667443217E+03 -0.11514802817E+04  0.11875383232E+04  0.78239411662E+02 0.  0.
         24    2    4    4    0    0 -0.56374425963E+03  0.21412820104E+03 -0.89999300594E+03  0.10863041279E+04  0.80067289816E+02 0.  0.
         13    1    3    3    0    0  0.34103631369E+03  0.19093878801E+02 -0.34194370244E+03  0.48331753444E+03  0.00000000000E+00 0. -1.
        -13    1    3    3    0    0  0.18183884954E+03  0.43452352327E+02 -0.28215439408E+03  0.33847389297E+03  0.00000000000E+00 0.  1.
          4    1    6    6  502    0 -0.52991078956E+02  0.30760403473E+02 -0.13628416861E+03  0.14942433364E+03  0.00000000000E+00 0. -1.
          1    1    5    5  503    0  0.12394256828E+02 -0.99448345703E+02 -0.27074942637E+03  0.28870199678E+03  0.00000000000E+00 0. -1.
         -2    1    5    5    0  503  0.28474839573E+02 -0.17722608647E+03 -0.88073085534E+03  0.89883632646E+03  0.00000000000E+00 0.  1.
         -3    1    6    6    0  502 -0.51075318067E+03  0.18336779757E+03 -0.76370883734E+03  0.93687979430E+03  0.00000000000E+00 0.  1.
<mgrwt>
<rscale>  0 0.15570057E+04</rscale>
<asrwt>0</asrwt>
<pdfrwt beam="1">  1        1 0.44393883E+00 0.15570057E+04</pdfrwt>
<pdfrwt beam="2">  1       -1 0.32312502E-01 0.15570057E+04</pdfrwt>
<totfact> 0.62640394E+00</totfact>
</mgrwt>
</event>
<event>
12    1  0.1114484E-007  0.1436614E+04  0.7818608E-02  0.8927734E-01
         -2   -1    0    0    0  501 -0.00000000000E+00  0.00000000000E+00  0.12760887394E+03  0.12760887394E+03  0.00000000000E+00 0.  1.
          2   -1    0    0  501    0  0.00000000000E+00 -0.00000000000E+00 -0.40433300547E+04  0.40433300547E+04  0.00000000000E+00 0. -1.
         23    2    1    2    0    0  0.35956078324E+03 -0.22559687107E+03 -0.13508236877E+04  0.14189473066E+04  0.92243799917E+02 0.  0.
        254    2    1    2    0    0 -0.35956078324E+03  0.22559687107E+03 -0.25648974931E+04  0.27519916221E+04  0.90254131911E+03 0.  0.
        -24    2    4    4    0    0 -0.65319929713E+03  0.21348448224E+03 -0.17630711897E+04  0.18939530343E+04  0.79957052238E+02 0.  0.
         24    2    4    4    0    0  0.29363851389E+03  0.12112388821E+02 -0.80182630339E+03  0.85803858776E+03  0.83273708199E+02 0.  0.
         13    1    3    3    0    0  0.24750561362E+03 -0.11030745423E+03 -0.92118311655E+03  0.96021096507E+03  0.00000000000E+00 0.  1.
        -13    1    3    3    0    0  0.11205516961E+03 -0.11528941684E+03 -0.42964057114E+03  0.45873634153E+03  0.00000000000E+00 0. -1.
          4    1    6    6  502    0  0.10622564116E+03 -0.14783478663E+02 -0.19741533123E+03  0.22466697819E+03  0.00000000000E+00 0. -1.
          3    1    5    5  503    0 -0.38263071915E+03  0.15046469617E+03 -0.11353432429E+04  0.12074974829E+04  0.00000000000E+00 0. -1.
         -4    1    5    5    0  503 -0.27056857798E+03  0.63019786077E+02 -0.62772794688E+03  0.68645555145E+03  0.00000000000E+00 0.  1.
         -3    1    6    6    0  502  0.18741287273E+03  0.26895867484E+02 -0.60441097215E+03  0.63337160957E+03  0.00000000000E+00 0.  1.
<mgrwt>
<rscale>  0 0.14366138E+04</rscale>
<asrwt>0</asrwt>
<pdfrwt beam="1">  1        2 0.62205082E+00 0.14366138E+04</pdfrwt>
<pdfrwt beam="2">  1       -2 0.19632133E-01 0.14366138E+04</pdfrwt>
<totfact> 0.69493230E+00</totfact>
</mgrwt>
</event>
<event>
12    1  0.1114484E-007  0.2357433E+04  0.7818608E-02  0.8455614E-01
          2   -1    0    0  501    0  0.00000000000E+00  0.00000000000E+00  0.20533623952E+04  0.20533623952E+04  0.00000000000E+00 0. -1.
         -2   -1    0    0    0  501 -0.00000000000E+00 -0.00000000000E+00 -0.67663272553E+03  0.67663272553E+03  0.00000000000E+00 0.  1.
         23    2    1    2    0    0 -0.67722386912E+03  0.19525213031E+03 -0.23743900721E+03  0.74897190775E+03  0.88465095660E+02 0.  0.
        254    2    1    2    0    0  0.67722386912E+03 -0.19525213031E+03  0.16141686769E+04  0.19810232130E+04  0.90672867475E+03 0.  0.
        -24    2    4    4    0    0  0.84590634160E+03  0.11036257941E+02  0.13617025449E+04  0.16051328376E+04  0.80859554431E+02 0.  0.
         24    2    4    4    0    0 -0.16868247248E+03 -0.20628838825E+03  0.25246613192E+03  0.37589037540E+03  0.80905815004E+02 0.  0.
         13    1    3    3    0    0 -0.81721763973E+02  0.52407190758E+02 -0.45393823207E+02  0.10717070278E+03  0.00000000000E+00 0. -1.
        -13    1    3    3    0    0 -0.59550210515E+03  0.14284493955E+03 -0.19204518401E+03  0.64180120496E+03  0.00000000000E+00 0.  1.
          2    1    6    6  502    0 -0.66159393405E+02 -0.65127298411E+02  0.14113567598E+03  0.16893167070E+03  0.00000000000E+00 0. -1.
          3    1    5    5  503    0  0.55285689421E+03  0.17729985404E+02  0.81835868972E+03  0.98776315121E+03  0.00000000000E+00 0. -1.
         -4    1    5    5    0  503  0.29304944740E+03 -0.66937274628E+01  0.54334385522E+03  0.61736968634E+03  0.00000000000E+00 0.  1.
         -1    1    6    6    0  502 -0.10252307908E+03 -0.14116108984E+03  0.11133045594E+03  0.20695870469E+03  0.00000000000E+00 0.  1.
<mgrwt>
<rscale>  0 0.23574327E+04</rscale>
<asrwt>0</asrwt>
<pdfrwt beam="1">  1        2 0.31590190E+00 0.23574327E+04</pdfrwt>
<pdfrwt beam="2">  1       -2 0.10409734E+00 0.23574327E+04</pdfrwt>
<totfact> 0.42248538E+00</totfact>
</mgrwt>
</event>
<event>
12    1  0.1114484E-007  0.1182942E+04  0.7818608E-02  0.9127920E-01
          2   -1    0    0  501    0  0.00000000000E+00  0.00000000000E+00  0.13846396734E+04  0.13846396734E+04  0.00000000000E+00 0. -1.
         -2   -1    0    0    0  501 -0.00000000000E+00 -0.00000000000E+00 -0.25265635947E+03  0.25265635947E+03  0.00000000000E+00 0.  1.
         23    2    1    2    0    0  0.25840669014E+02 -0.14739401638E+03 -0.14222165431E+02  0.17395345861E+03  0.87548840843E+02 0.  0.
        254    2    1    2    0    0 -0.25840669014E+02  0.14739401638E+03  0.11462054794E+04  0.14633425743E+04  0.89732477539E+03 0.  0.
        -24    2    4    4    0    0 -0.17907141957E+03  0.25968656572E+03  0.28453916112E+02  0.32672893855E+03  0.80240190801E+02 0.  0.
         24    2    4    4    0    0  0.15323075056E+03 -0.11229254934E+03  0.11177515633E+04  0.11366136357E+04  0.80204240551E+02 0.  0.
         11    1    3    3    0    0  0.66683247709E+01  0.10835543467E+02 -0.67234713106E+01  0.14390296173E+02  0.00000000000E+00 0. -1.
        -11    1    3    3    0    0  0.19172344243E+02 -0.15822955985E+03 -0.74986941203E+01  0.15956316244E+03  0.00000000000E+00 0.  1.
          4    1    6    6  502    0  0.34010905929E+02 -0.26724994038E+02  0.49143199822E+03  0.49333191252E+03  0.00000000000E+00 0. -1.
          3    1    5    5  503    0 -0.51092769035E+02  0.40785039632E+02  0.32762325459E+02  0.73124964785E+02  0.00000000000E+00 0. -1.
         -4    1    5    5    0  503 -0.12797865054E+03  0.21890152609E+03 -0.43084093468E+01  0.25360397376E+03  0.00000000000E+00 0.  1.
         -3    1    6    6    0  502  0.11921984463E+03 -0.85567555305E+02  0.62631956505E+03  0.64328172323E+03  0.00000000000E+00 0.  1.
<mgrwt>
<rscale>  0 0.11829421E+04</rscale>
<asrwt>0</asrwt>
<pdfrwt beam="1">  1        2 0.21302148E+00 0.11829421E+04</pdfrwt>
<pdfrwt beam="2">  1       -2 0.38870210E-01 0.11829421E+04</pdfrwt>
<totfact> 0.91185785E+01</totfact>
</mgrwt>
</event>
<event>
12    1  0.1114484E-007  0.1983685E+04  0.7818608E-02  0.8614287E-01
          1   -1    0    0  501    0  0.00000000000E+00  0.00000000000E+00  0.66666580800E+03  0.66666580800E+03  0.00000000000E+00 0. -1.
         -1   -1    0    0    0  501 -0.00000000000E+00 -0.00000000000E+00 -0.14756293915E+04  0.14756293915E+04  0.00000000000E+00 0.  1.
         23    2    1    2    0    0 -0.24624886441E+03  0.74549747213E+03 -0.33262526765E+03  0.85750307882E+03  0.90922919667E+02 0.  0.
        254    2    1    2    0    0  0.24624886441E+03 -0.74549747213E+03 -0.47633831590E+03  0.12847921207E+04  0.89854750465E+03 0.  0.
        -24    2    4    4    0    0 -0.31650021616E+03 -0.20782181838E+03 -0.27915306295E+03  0.47732571353E+03  0.80938922749E+02 0.  0.
         24    2    4    4    0    0  0.56274908057E+03 -0.53767565375E+03 -0.19718525296E+03  0.80746640721E+03  0.85664102517E+02 0.  0.
         13    1    3    3    0    0 -0.34777857091E+02  0.14711099200E+03 -0.10146590320E+03  0.18206172806E+03  0.00000000000E+00 0. -1.
        -13    1    3    3    0    0 -0.21147100732E+03  0.59838648013E+03 -0.23115936445E+03  0.67544135076E+03  0.00000000000E+00 0.  1.
          2    1    6    6  502    0  0.76542126387E+02 -0.86981920420E+02 -0.23089294579E+00  0.11586459728E+03  0.00000000000E+00 0. -1.
          1    1    5    5  503    0 -0.13756223153E+03 -0.85224451765E+02 -0.16925520363E+03  0.23416639101E+03  0.00000000000E+00 0. -1.
         -2    1    5    5    0  503 -0.17893798463E+03 -0.12259736662E+03 -0.10989785932E+03  0.24315932252E+03  0.00000000000E+00 0.  1.
         -3    1    6    6    0  502  0.48620695418E+03 -0.45069373333E+03 -0.19695436001E+03  0.69160180992E+03  0.00000000000E+00 0.  1.
<mgrwt>
<rscale>  0 0.19836851E+04</rscale>
<asrwt>0</asrwt>
<pdfrwt beam="1">  1        1 0.10256397E+00 0.19836851E+04</pdfrwt>
<pdfrwt beam="2">  1       -1 0.22701990E+00 0.19836851E+04</pdfrwt>
<totfact> 0.26912088E+00</totfact>
</mgrwt>
</event>
<event>
12    1  0.1114484E-007  0.1174346E+04  0.7818608E-02  0.9135613E-01
          2   -1    0    0  501    0  0.00000000000E+00  0.00000000000E+00  0.21037005380E+04  0.21037005380E+04  0.00000000000E+00 0.  1.
         -2   -1    0    0    0  501 -0.00000000000E+00 -0.00000000000E+00 -0.16388827080E+03  0.16388827080E+03  0.00000000000E+00 0. -1.
         23    2    1    2    0    0  0.12546028986E+03  0.18001133731E+03  0.54500368952E+03  0.59453187211E+03  0.91075570110E+02 0.  0.
        254    2    1    2    0    0 -0.12546028986E+03 -0.18001133731E+03  0.13948085777E+04  0.16730569367E+04  0.89748770418E+03 0.  0.
        -24    2    4    4    0    0  0.37134311336E+03  0.21085272719E+02  0.61432275629E+03  0.72297931685E+03  0.83464646012E+02 0.  0.
         24    2    4    4    0    0 -0.49680340322E+03 -0.20109661003E+03  0.78048582144E+03  0.95007761988E+03  0.78967704308E+02 0.  0.
         13    1    3    3    0    0 -0.77496029953E+01 -0.52627814533E+01  0.22574271414E+02  0.24440764004E+02  0.00000000000E+00 0. -1.
        -13    1    3    3    0    0  0.13320989286E+03  0.18527411876E+03  0.52242941810E+03  0.57009110810E+03  0.00000000000E+00 0.  1.
          4    1    6    6  502    0 -0.44595568996E+02 -0.23881285311E+01  0.97055592521E+02  0.10683752137E+03  0.00000000000E+00 0. -1.
          3    1    5    5  503    0  0.93535605566E+02  0.40532608791E+02  0.14491782753E+03  0.17718063839E+03  0.00000000000E+00 0. -1.
         -4    1    5    5    0  503  0.27780750779E+03 -0.19447336072E+02  0.46940492876E+03  0.54579867846E+03  0.00000000000E+00 0.  1.
         -3    1    6    6    0  502 -0.45220783422E+03 -0.19870848149E+03  0.68343022891E+03  0.84324009851E+03  0.00000000000E+00 0.  1.
<mgrwt>
<rscale>  0 0.11743455E+04</rscale>
<asrwt>0</asrwt>
<pdfrwt beam="1">  1        2 0.32364622E+00 0.11743455E+04</pdfrwt>
<pdfrwt beam="2">  1       -2 0.25213582E-01 0.11743455E+04</pdfrwt>
<totfact> 0.81841467E+01</totfact>
</mgrwt>
</event>
<event>
12    1  0.1114484E-007  0.1345147E+04  0.7818608E-02  0.8994510E-01
         -1   -1    0    0    0  501 -0.00000000000E+00  0.00000000000E+00  0.45866402876E+03  0.45866402876E+03  0.00000000000E+00 0.  1.
          1   -1    0    0  501    0  0.00000000000E+00 -0.00000000000E+00 -0.98624517076E+03  0.98624517076E+03  0.00000000000E+00 0. -1.
         23    2    1    2    0    0  0.25485004007E+03 -0.11172167512E+03  0.96711097702E+02  0.30846127705E+03  0.91460633087E+02 0.  0.
        254    2    1    2    0    0 -0.25485004007E+03  0.11172167512E+03 -0.62429223970E+03  0.11364479225E+04  0.90793325984E+03 0.  0.
        -24    2    4    4    0    0  0.43663247050E+02  0.69333611128E+02  0.21386289747E+03  0.24239238823E+03  0.79392078839E+02 0.  0.
         24    2    4    4    0    0 -0.29851328712E+03  0.42388063988E+02 -0.83815513716E+03  0.89405553425E+03  0.76969694091E+02 0.  0.
         11    1    3    3    0    0  0.35554000277E+02 -0.20918667113E+02  0.52928212753E+02  0.67104942253E+02  0.00000000000E+00 0. -1.
        -11    1    3    3    0    0  0.21929603979E+03 -0.90803008003E+02  0.43782884949E+02  0.24135633480E+03  0.00000000000E+00 0.  1.
          4    1    6    6  502    0 -0.23691544172E+03  0.52355228365E+02 -0.72908364921E+03  0.76839635867E+03  0.00000000000E+00 0. -1.
          1    1    5    5  503    0  0.45194401828E+01 -0.81260681261E+01  0.93725822000E+02  0.94185922687E+02  0.00000000000E+00 0. -1.
         -2    1    5    5    0  503  0.39143806867E+02  0.77459679254E+02  0.12013707547E+03  0.14820646554E+03  0.00000000000E+00 0.  1.
         -3    1    6    6    0  502 -0.61597845403E+02 -0.99671643760E+01 -0.10907148795E+03  0.12565917558E+03  0.00000000000E+00 0.  1.
<mgrwt>
<rscale>  0 0.13451471E+04</rscale>
<asrwt>0</asrwt>
<pdfrwt beam="1">  1        1 0.15173002E+00 0.13451471E+04</pdfrwt>
<pdfrwt beam="2">  1       -1 0.70563698E-01 0.13451471E+04</pdfrwt>
<totfact> 0.30831071E+01</totfact>
</mgrwt>
</event>
<event>
12    1  0.1114484E-007  0.2429892E+04  0.7818608E-02  0.8428396E-01
         -2   -1    0    0    0  501 -0.00000000000E+00  0.00000000000E+00  0.18158850789E+04  0.18158850789E+04  0.00000000000E+00 0. -1.
          2   -1    0    0  501    0  0.00000000000E+00 -0.00000000000E+00 -0.81287860457E+03  0.81287860457E+03  0.00000000000E+00 0.  1.
         23    2    1    2    0    0  0.54023769276E+02 -0.67699458651E+03 -0.42618970236E+03  0.80702991629E+03  0.91757209929E+02 0.  0.
        254    2    1    2    0    0 -0.54023769276E+02  0.67699458651E+03  0.14291961767E+04  0.18217337672E+04  0.90270259181E+03 0.  0.
        -24    2    4    4    0    0 -0.24330613031E+03  0.65457865726E+03  0.14544552991E+04  0.16153985737E+04  0.80007770785E+02 0.  0.
         24    2    4    4    0    0  0.18928236103E+03  0.22415929245E+02 -0.25259122355E+02  0.20633519350E+03  0.74872576622E+02 0.  0.
         13    1    3    3    0    0 -0.36614115094E+01 -0.47827673268E+03 -0.30395658667E+03  0.56670243121E+03  0.00000000000E+00 0.  1.
        -13    1    3    3    0    0  0.57685180785E+02 -0.19871785383E+03 -0.12223311569E+03  0.24032748508E+03  0.00000000000E+00 0. -1.
          4    1    6    6  502    0  0.45089016993E+02 -0.26763223987E+02 -0.63126036105E+01  0.52812295689E+02  0.00000000000E+00 0. -1.
          1    1    5    5  503    0  0.12740011076E+01  0.29658398912E+01  0.27592677337E+00  0.32396636656E+01  0.00000000000E+00 0. -1.
         -2    1    5    5    0  503 -0.24458013142E+03  0.65161281737E+03  0.14541793723E+04  0.16121589100E+04  0.00000000000E+00 0.  1.
         -3    1    6    6    0  502  0.14419334404E+03  0.49179153232E+02 -0.18946518744E+02  0.15352289781E+03  0.00000000000E+00 0.  1.
<mgrwt>
<rscale>  0 0.24298923E+04</rscale>
<asrwt>0</asrwt>
<pdfrwt beam="1">  1        2 0.12505825E+00 0.24298923E+04</pdfrwt>
<pdfrwt beam="2">  1       -2 0.27936693E+00 0.24298923E+04</pdfrwt>
<totfact> 0.12851820E+00</totfact>
</mgrwt>
</event>
<event>
12    1  0.1114484E-007  0.1488010E+04  0.7818608E-02  0.8892465E-01
         -1   -1    0    0    0  501 -0.00000000000E+00  0.00000000000E+00  0.11121787394E+04  0.11121787394E+04  0.00000000000E+00 0.  1.
          1   -1    0    0  501    0  0.00000000000E+00 -0.00000000000E+00 -0.49771107495E+03  0.49771107495E+03  0.00000000000E+00 0. -1.
         23    2    1    2    0    0 -0.11949185062E+03 -0.10071108730E+03  0.66792785374E+03  0.69110365152E+03  0.84116668281E+02 0.  0.
        254    2    1    2    0    0  0.11949185062E+03  0.10071108730E+03 -0.53460189250E+02  0.91878616286E+03  0.90381911672E+03 0.  0.
        -24    2    4    4    0    0 -0.14709139917E+03  0.38280555934E+03  0.18463628980E+03  0.45670202606E+03  0.79436799561E+02 0.  0.
         24    2    4    4    0    0  0.26658324980E+03 -0.28209447205E+03 -0.23809647904E+03  0.46208413680E+03  0.78663180175E+02 0.  0.
         13    1    3    3    0    0 -0.23061145622E+02 -0.45046400883E+02  0.36246324883E+03  0.36597896309E+03  0.00000000000E+00 0. -1.
        -13    1    3    3    0    0 -0.96430704998E+02 -0.55664686412E+02  0.30546460490E+03  0.32512468843E+03  0.00000000000E+00 0.  1.
          4    1    6    6  502    0  0.10701434155E+03 -0.66486071402E+02 -0.55943712162E+02  0.13784834391E+03  0.00000000000E+00 0. -1.
          1    1    5    5  503    0 -0.14733002897E+03  0.29507083748E+03  0.15115055367E+03  0.36279391732E+03  0.00000000000E+00 0. -1.
         -2    1    5    5    0  503  0.23862979128E+00  0.87734721859E+02  0.33485736126E+02  0.93908108743E+02  0.00000000000E+00 0.  1.
         -3    1    6    6    0  502  0.15956890825E+03 -0.21560840064E+03 -0.18215276688E+03  0.32423579289E+03  0.00000000000E+00 0.  1.
<mgrwt>
<rscale>  0 0.14880103E+04</rscale>
<asrwt>0</asrwt>
<pdfrwt beam="1">  1        1 0.76570935E-01 0.14880103E+04</pdfrwt>
<pdfrwt beam="2">  1       -1 0.17110442E+00 0.14880103E+04</pdfrwt>
<totfact> 0.10429675E+01</totfact>
</mgrwt>
</event>
<event>
12    1  0.1114484E-007  0.3438449E+04  0.7818608E-02  0.8128534E-01
          1   -1    0    0  501    0  0.00000000000E+00  0.00000000000E+00  0.20596926996E+04  0.20596926996E+04  0.00000000000E+00 0. -1.
         -1   -1    0    0    0  501 -0.00000000000E+00 -0.00000000000E+00 -0.14350359849E+04  0.14350359849E+04  0.00000000000E+00 0.  1.
         23    2    1    2    0    0  0.74090661597E+03 -0.85219575876E+02 -0.11349789274E+04  0.13610868340E+04  0.90416891726E+02 0.  0.
        254    2    1    2    0    0 -0.74090661597E+03  0.85219575876E+02  0.17596356421E+04  0.21336418505E+04  0.94863320814E+03 0.  0.
        -24    2    4    4    0    0 -0.96315897330E+03  0.52072065230E+02  0.14134180842E+04  0.17130205433E+04  0.79385094069E+02 0.  0.
         24    2    4    4    0    0  0.22225235733E+03  0.33147510646E+02  0.34621755795E+03  0.42062130726E+03  0.80998882022E+02 0.  0.
         11    1    3    3    0    0  0.11351048985E+03 -0.44149835434E+02 -0.20688677316E+03  0.24007493868E+03  0.00000000000E+00 0. -1.
        -11    1    3    3    0    0  0.62739612613E+03 -0.41069740442E+02 -0.92809215419E+03  0.11210118953E+04  0.00000000000E+00 0.  1.
          4    1    6    6  502    0  0.10441508084E+03  0.22889348472E+01  0.22844172898E+03  0.25118394031E+03  0.00000000000E+00 0. -1.
          1    1    5    5  503    0 -0.13302208456E+02  0.92433676879E+01  0.15735247804E+02  0.22582883330E+02  0.00000000000E+00 0. -1.
         -2    1    5    5    0  503 -0.94985676485E+03  0.42828697542E+02  0.13976828364E+04  0.16904376599E+04  0.00000000000E+00 0.  1.
         -3    1    6    6    0  502  0.11783727648E+03  0.30858575799E+02  0.11777582897E+03  0.16943736695E+03  0.00000000000E+00 0.  1.
<mgrwt>
<rscale>  0 0.34384492E+04</rscale>
<asrwt>0</asrwt>
<pdfrwt beam="1">  1        1 0.31687580E+00 0.34384492E+04</pdfrwt>
<pdfrwt beam="2">  1       -1 0.22077477E+00 0.34384492E+04</pdfrwt>
<totfact> 0.24207365E-01</totfact>
</mgrwt>
</event>
<event>
12    1  0.1114484E-007  0.1481215E+04  0.7818608E-02  0.8897042E-01
         -2   -1    0    0    0  501 -0.00000000000E+00  0.00000000000E+00  0.70037432135E+03  0.70037432135E+03  0.00000000000E+00 0.  1.
          2   -1    0    0  501    0  0.00000000000E+00 -0.00000000000E+00 -0.78315137105E+03  0.78315137105E+03  0.00000000000E+00 0. -1.
         23    2    1    2    0    0 -0.36234840977E+03  0.20541389594E+03  0.18292523593E+03  0.46391393814E+03  0.90902482624E+02 0.  0.
        254    2    1    2    0    0  0.36234840977E+03 -0.20541389594E+03 -0.26570228564E+03  0.10196117543E+04  0.89191882262E+03 0.  0.
        -24    2    4    4    0    0  0.11648302000E+03 -0.36005907101E+03  0.22218225809E+03  0.44599802115E+03  0.79614386241E+02 0.  0.
         24    2    4    4    0    0  0.24586538977E+03  0.15464517507E+03 -0.48788454372E+03  0.57361373312E+03  0.81464512285E+02 0.  0.
         13    1    3    3    0    0 -0.21176206744E+03  0.74172489024E+02  0.73227546854E+02  0.23602331443E+03  0.00000000000E+00 0.  1.
        -13    1    3    3    0    0 -0.15058634233E+03  0.13124140692E+03  0.10969768908E+03  0.22789062371E+03  0.00000000000E+00 0. -1.
          4    1    6    6  502    0  0.16524460546E+03  0.62152940025E+02 -0.32281738120E+03  0.36793998042E+03  0.00000000000E+00 0. -1.
          3    1    5    5  503    0  0.12379428651E+03 -0.35832925937E+03  0.21916233592E+03  0.43790068849E+03  0.00000000000E+00 0. -1.
         -4    1    5    5    0  503 -0.73112665113E+01 -0.17298116375E+01  0.30199221689E+01  0.80973326600E+01  0.00000000000E+00 0.  1.
         -3    1    6    6    0  502  0.80620784316E+02  0.92492235043E+02 -0.16506716252E+03  0.20567375270E+03  0.00000000000E+00 0.  1.
<mgrwt>
<rscale>  0 0.14812145E+04</rscale>
<asrwt>0</asrwt>
<pdfrwt beam="1">  1        2 0.12048483E+00 0.14812145E+04</pdfrwt>
<pdfrwt beam="2">  1       -2 0.10774990E+00 0.14812145E+04</pdfrwt>
<totfact> 0.23682585E+01</totfact>
</mgrwt>
</event>
<event>
12    1  0.1114484E-007  0.1954436E+04  0.7818608E-02  0.8628224E-01
         -2   -1    0    0    0  501 -0.00000000000E+00  0.00000000000E+00  0.10647281508E+04  0.10647281508E+04  0.00000000000E+00 0.  1.
          2   -1    0    0  501    0  0.00000000000E+00 -0.00000000000E+00 -0.89690074510E+03  0.89690074510E+03  0.00000000000E+00 0. -1.
         23    2    1    2    0    0  0.25364907925E+03 -0.35675579032E+03 -0.57114251419E+03  0.72541675471E+03  0.91723209554E+02 0.  0.
        254    2    1    2    0    0 -0.25364907925E+03  0.35675579032E+03  0.73896991990E+03  0.12362121412E+04  0.88911830834E+03 0.  0.
        -24    2    4    4    0    0 -0.35115759801E+03  0.20310667336E+03  0.89353360899E+03  0.98448764490E+03  0.79054621339E+02 0.  0.
         24    2    4    4    0    0  0.97508518764E+02  0.15364911696E+03 -0.15456368908E+03  0.25172449632E+03  0.79745380360E+02 0.  0.
         11    1    3    3    0    0  0.19140119121E+03 -0.21074075225E+03 -0.41073614804E+03  0.49975020157E+03  0.00000000000E+00 0.  1.
        -11    1    3    3    0    0  0.62247888037E+02 -0.14601503807E+03 -0.16040636614E+03  0.22566655315E+03  0.00000000000E+00 0. -1.
          4    1    6    6  502    0  0.76281276412E+02  0.46414492813E+02 -0.72960651437E+02  0.11530999494E+03  0.00000000000E+00 0. -1.
          1    1    5    5  503    0 -0.12671922916E+03  0.84460949178E+02  0.25054835886E+03  0.29319941184E+03  0.00000000000E+00 0. -1.
         -2    1    5    5    0  503 -0.22443836885E+03  0.11864572418E+03  0.64298525013E+03  0.69128823306E+03  0.00000000000E+00 0.  1.
         -3    1    6    6    0  502  0.21227242352E+02  0.10723462415E+03 -0.81603037646E+02  0.13641450138E+03  0.00000000000E+00 0.  1.
<mgrwt>
<rscale>  0 0.19544365E+04</rscale>
<asrwt>0</asrwt>
<pdfrwt beam="1">  1        2 0.13798473E+00 0.19544365E+04</pdfrwt>
<pdfrwt beam="2">  1       -2 0.16380433E+00 0.19544365E+04</pdfrwt>
<totfact> 0.64874396E+00</totfact>
</mgrwt>
</event>
<event>
12    1  0.1114484E-007  0.1406795E+04  0.7818608E-02  0.8948914E-01
         -2   -1    0    0    0  501 -0.00000000000E+00  0.00000000000E+00  0.31286518869E+03  0.31286518869E+03  0.00000000000E+00 0. -1.
          2   -1    0    0  501    0  0.00000000000E+00 -0.00000000000E+00 -0.15814101473E+04  0.15814101473E+04  0.00000000000E+00 0.  1.
         23    2    1    2    0    0  0.30655872765E+03 -0.39926509926E+02 -0.66942072577E+03  0.74364669612E+03  0.96508656919E+02 0.  0.
        254    2    1    2    0    0 -0.30655872765E+03  0.39926509926E+02 -0.59912423279E+03  0.11506286398E+04  0.93242910764E+03 0.  0.
        -24    2    4    4    0    0 -0.62647057765E+02  0.43966371229E+03 -0.10119244573E+03  0.46254403617E+03  0.80487518103E+02 0.  0.
         24    2    4    4    0    0 -0.24391166988E+03 -0.39973720236E+03 -0.49793178706E+03  0.68808460366E+03  0.79003946523E+02 0.  0.
         13    1    3    3    0    0  0.17322899499E+03  0.12301021597E+02 -0.44208129612E+03  0.47496891711E+03  0.00000000000E+00 0.  1.
        -13    1    3    3    0    0  0.13332973266E+03 -0.52227531523E+02 -0.22733942965E+03  0.26867777901E+03  0.00000000000E+00 0. -1.
          4    1    6    6  502    0  0.18015487953E+01 -0.28784397914E+02 -0.20031829230E+02  0.35114972926E+02  0.00000000000E+00 0. -1.
          1    1    5    5  503    0  0.12997770707E+02  0.28908052543E+02 -0.18736739046E+02  0.36819599879E+02  0.00000000000E+00 0. -1.
         -2    1    5    5    0  503 -0.75644828472E+02  0.41075565975E+03 -0.82455706684E+02  0.42572443629E+03  0.00000000000E+00 0.  1.
         -3    1    6    6    0  502 -0.24571321868E+03 -0.37095280445E+03 -0.47789995783E+03  0.65296963073E+03  0.00000000000E+00 0.  1.
<mgrwt>
<rscale>  0 0.14067952E+04</rscale>
<asrwt>0</asrwt>
<pdfrwt beam="1">  1        2 0.24329387E+00 0.14067952E+04</pdfrwt>
<pdfrwt beam="2">  1       -2 0.48133105E-01 0.14067952E+04</pdfrwt>
<totfact> 0.45429108E+01</totfact>
</mgrwt>
</event>
<event>
12    1  0.1114484E-007  0.1313955E+04  0.7818608E-02  0.9018571E-01
         -2   -1    0    0    0  501 -0.00000000000E+00  0.00000000000E+00  0.46873647666E+03  0.46873647666E+03  0.00000000000E+00 0. -1.
          2   -1    0    0  501    0  0.00000000000E+00 -0.00000000000E+00 -0.92081476933E+03  0.92081476933E+03  0.00000000000E+00 0.  1.
         23    2    1    2    0    0  0.21503666326E+03  0.24671528632E+03 -0.23086025656E+03  0.41107188678E+03  0.92598266638E+02 0.  0.
        254    2    1    2    0    0 -0.21503666326E+03 -0.24671528632E+03 -0.22121803611E+03  0.97847935922E+03  0.89519564223E+03 0.  0.
        -24    2    4    4    0    0 -0.39765342760E+03  0.12478855782E+03  0.11429473640E+03  0.43954023282E+03  0.80199107578E+02 0.  0.
         24    2    4    4    0    0  0.18261676434E+03 -0.37150384414E+03 -0.33551277252E+03  0.53893912639E+03  0.80762445521E+02 0.  0.
         11    1    3    3    0    0  0.50279067253E+01  0.49964381950E+02 -0.51753202449E+02  0.72111810915E+02  0.00000000000E+00 0.  1.
        -11    1    3    3    0    0  0.21000875654E+03  0.19675090437E+03 -0.17910705411E+03  0.33896007586E+03  0.00000000000E+00 0. -1.
          2    1    6    6  502    0  0.11717378925E+03 -0.31042539774E+03 -0.27415348226E+03  0.43041114795E+03  0.00000000000E+00 0. -1.
          1    1    5    5  503    0 -0.32364600321E+03  0.12186641183E+03  0.11793468538E+03  0.36538575198E+03  0.00000000000E+00 0. -1.
         -2    1    5    5    0  503 -0.74007424385E+02  0.29221459846E+01 -0.36399489789E+01  0.74154480848E+02  0.00000000000E+00 0.  1.
         -1    1    6    6    0  502  0.65442975088E+02 -0.61078446407E+02 -0.61359290261E+02  0.10852797844E+03  0.00000000000E+00 0.  1.
<mgrwt>
<rscale>  0 0.13139551E+04</rscale>
<asrwt>0</asrwt>
<pdfrwt beam="1">  1        2 0.14166381E+00 0.13139551E+04</pdfrwt>
<pdfrwt beam="2">  1       -2 0.72113305E-01 0.13139551E+04</pdfrwt>
<totfact> 0.48429945E+01</totfact>
</mgrwt>
</event>
<event>
12    1  0.1114484E-007  0.1460211E+04  0.7818608E-02  0.8911352E-01
         -1   -1    0    0    0  501 -0.00000000000E+00  0.00000000000E+00  0.28350606160E+03  0.28350606160E+03  0.00000000000E+00 0.  1.
          1   -1    0    0  501    0  0.00000000000E+00 -0.00000000000E+00 -0.18802211104E+04  0.18802211104E+04  0.00000000000E+00 0. -1.
         23    2    1    2    0    0  0.32108576241E+03 -0.27907152148E+03 -0.68912345076E+03  0.81482754760E+03  0.89865571852E+02 0.  0.
        254    2    1    2    0    0 -0.32108576241E+03  0.27907152148E+03 -0.90759159801E+03  0.13488996244E+04  0.90267973664E+03 0.  0.
        -24    2    4    4    0    0 -0.71824925036E+02 -0.12985619213E+03  0.12446506988E+03  0.20843925865E+03  0.77031944259E+02 0.  0.
         24    2    4    4    0    0 -0.24926083738E+03  0.40892771362E+03 -0.10320566679E+04  0.11404603657E+04  0.78460436158E+02 0.  0.
         13    1    3    3    0    0  0.30537337822E+03 -0.26351117961E+03 -0.68057048681E+03  0.79111770895E+03  0.00000000000E+00 0. -1.
        -13    1    3    3    0    0  0.15712384190E+02 -0.15560341870E+02 -0.85529639563E+01  0.23709838643E+02  0.00000000000E+00 0.  1.
          4    1    6    6  502    0 -0.48134592219E+01  0.53474901099E+02 -0.10411902964E+03  0.11714737202E+03  0.00000000000E+00 0. -1.
          1    1    5    5  503    0  0.96306414388E+01 -0.39443628425E+02  0.54842625702E+02  0.68236813171E+02  0.00000000000E+00 0. -1.
         -2    1    5    5    0  503 -0.81455566475E+02 -0.90412563708E+02  0.69622444175E+02  0.14020244548E+03  0.00000000000E+00 0.  1.
         -3    1    6    6    0  502 -0.24444737815E+03  0.35545281252E+03 -0.92793763825E+03  0.10233129937E+04  0.00000000000E+00 0.  1.
<mgrwt>
<rscale>  0 0.14602111E+04</rscale>
<asrwt>0</asrwt>
<pdfrwt beam="1">  1        1 0.28926479E+00 0.14602111E+04</pdfrwt>
<pdfrwt beam="2">  1       -1 0.43616316E-01 0.14602111E+04</pdfrwt>
<totfact> 0.18110875E+01</totfact>
</mgrwt>
</event>
<event>
12    1  0.1114484E-007  0.2318640E+04  0.7818608E-02  0.8470608E-01
          3   -1    0    0  501    0  0.00000000000E+00  0.00000000000E+00  0.11062212189E+04  0.11062212189E+04  0.00000000000E+00 0. -1.
         -3   -1    0    0    0  501 -0.00000000000E+00 -0.00000000000E+00 -0.12149679857E+04  0.12149679857E+04  0.00000000000E+00 0.  1.
         23    2    1    2    0    0  0.91906145174E+03  0.19850827936E+02  0.28412680215E+03  0.96652561550E+03  0.91518950307E+02 0.  0.
        254    2    1    2    0    0 -0.91906145174E+03 -0.19850827936E+02 -0.39287356895E+03  0.13546635892E+04  0.91416398486E+03 0.  0.
        -24    2    4    4    0    0 -0.43983422848E+03 -0.38997057347E+03 -0.44574740188E+03  0.74165866007E+03  0.76391262926E+02 0.  0.
         24    2    4    4    0    0 -0.47922722326E+03  0.37011974553E+03  0.52873832928E+02  0.61300492911E+03  0.79574137551E+02 0.  0.
         11    1    3    3    0    0  0.59025524373E+03  0.29495829158E+02  0.22462279236E+03  0.63223939733E+03  0.00000000000E+00 0.  1.
        -11    1    3    3    0    0  0.32880620801E+03 -0.96450012217E+01  0.59504009788E+02  0.33428621816E+03  0.00000000000E+00 0. -1.
          4    1    6    6  502    0 -0.87379718466E+02  0.46771433109E+02 -0.15761932117E+02  0.10035547149E+03  0.00000000000E+00 0. -1.
          1    1    5    5  503    0 -0.18118930263E+03 -0.11248182754E+03 -0.16871181965E+03  0.27192904038E+03  0.00000000000E+00 0. -1.
         -2    1    5    5    0  503 -0.25864492586E+03 -0.27748874592E+03 -0.27703558223E+03  0.46972961968E+03  0.00000000000E+00 0.  1.
         -3    1    6    6    0  502 -0.39184750479E+03  0.32334831242E+03  0.68635765045E+02  0.51264945762E+03  0.00000000000E+00 0.  1.
<mgrwt>
<rscale>  0 0.23186404E+04</rscale>
<asrwt>0</asrwt>
<pdfrwt beam="1">  1        3 0.17018788E+00 0.23186404E+04</pdfrwt>
<pdfrwt beam="2">  1       -3 0.18691815E+00 0.23186404E+04</pdfrwt>
<totfact> 0.97195275E-02</totfact>
</mgrwt>
</event>
<event>
12    1  0.1114484E-007  0.1132810E+04  0.7818608E-02  0.9173790E-01
         -2   -1    0    0    0  501 -0.00000000000E+00  0.00000000000E+00  0.39280436357E+03  0.39280436357E+03  0.00000000000E+00 0.  1.
          2   -1    0    0  501    0  0.00000000000E+00 -0.00000000000E+00 -0.81672879245E+03  0.81672879245E+03  0.00000000000E+00 0. -1.
         23    2    1    2    0    0 -0.53046802091E+02  0.11996241944E+03  0.71282765010E+02  0.17606844680E+03  0.93348380181E+02 0.  0.
        254    2    1    2    0    0  0.53046802091E+02 -0.11996241944E+03 -0.49520719389E+03  0.10334647092E+04  0.89756013449E+03 0.  0.
        -24    2    4    4    0    0 -0.10473214993E+03  0.36068312317E+03 -0.13333612492E+03  0.40651670516E+03  0.80101003713E+02 0.  0.
         24    2    4    4    0    0  0.15777895202E+03 -0.48064554261E+03 -0.36187106897E+03  0.62694800405E+03  0.78732419591E+02 0.  0.
         13    1    3    3    0    0  0.24890181339E+02  0.15380147695E+02  0.22130838291E+02  0.36685747555E+02  0.00000000000E+00 0. -1.
        -13    1    3    3    0    0 -0.77936983431E+02  0.10458227175E+03  0.49151926719E+02  0.13938269925E+03  0.00000000000E+00 0.  1.
          4    1    6    6  502    0  0.15828822401E+03 -0.46249005236E+03 -0.32849233381E+03  0.58894772583E+03  0.00000000000E+00 0. -1.
          3    1    5    5  503    0 -0.91832462103E+02  0.30237104834E+03 -0.78902628155E+02  0.32571011145E+03  0.00000000000E+00 0. -1.
         -4    1    5    5    0  503 -0.12899687829E+02  0.58312074834E+02 -0.54433496767E+02  0.80806593715E+02  0.00000000000E+00 0.  1.
         -3    1    6    6    0  502 -0.50927198273E+00 -0.18155490257E+02 -0.33378735155E+02  0.38000278222E+02  0.00000000000E+00 0.  1.
<mgrwt>
<rscale>  0 0.11328100E+04</rscale>
<asrwt>0</asrwt>
<pdfrwt beam="1">  1        2 0.12565058E+00 0.11328100E+04</pdfrwt>
<pdfrwt beam="2">  1       -2 0.60431440E-01 0.11328100E+04</pdfrwt>
<totfact> 0.84719161E+01</totfact>
</mgrwt>
</event>
<event>
12    1  0.1114484E-007  0.2118041E+04  0.7818608E-02  0.8553338E-01
         -2   -1    0    0    0  501 -0.00000000000E+00  0.00000000000E+00  0.33199157315E+03  0.33199157315E+03  0.00000000000E+00 0. -1.
          2   -1    0    0  501    0  0.00000000000E+00 -0.00000000000E+00 -0.33781705845E+04  0.33781705845E+04  0.00000000000E+00 0.  1.
         23    2    1    2    0    0  0.80695621965E+03  0.25689796095E+03 -0.15597182344E+04  0.17771919710E+04  0.92279078968E+02 0.  0.
        254    2    1    2    0    0 -0.80695621965E+03 -0.25689796095E+03 -0.14864607769E+04  0.19329701866E+04  0.89979619811E+03 0.  0.
        -24    2    4    4    0    0 -0.94087742791E+03 -0.26214596885E+02 -0.10229561273E+04  0.13924175419E+04  0.80310853029E+02 0.  0.
         24    2    4    4    0    0  0.13392120827E+03 -0.23068336406E+03 -0.46350464961E+03  0.54055264470E+03  0.78809244342E+02 0.  0.
         11    1    3    3    0    0  0.51304351027E+03  0.14773111705E+03 -0.89288075166E+03  0.10403240664E+04  0.00000000000E+00 0.  1.
        -11    1    3    3    0    0  0.29391270938E+03  0.10916684390E+03 -0.66683748275E+03  0.73686790468E+03  0.00000000000E+00 0. -1.
          2    1    6    6  502    0 -0.10642657744E+02 -0.19398521441E+02 -0.36120334766E+02  0.42358557359E+02  0.00000000000E+00 0. -1.
          3    1    5    5  503    0 -0.32657262167E+02 -0.54916901468E+01 -0.17927168958E+02  0.37656856212E+02  0.00000000000E+00 0. -1.
         -4    1    5    5    0  503 -0.90822016574E+03 -0.20722906738E+02 -0.10050289583E+04  0.13547606857E+04  0.00000000000E+00 0.  1.
         -1    1    6    6    0  502  0.14456386601E+03 -0.21128484262E+03 -0.42738431485E+03  0.49819408734E+03  0.00000000000E+00 0.  1.
<mgrwt>
<rscale>  0 0.21180408E+04</rscale>
<asrwt>0</asrwt>
<pdfrwt beam="1">  1        2 0.51971854E+00 0.21180408E+04</pdfrwt>
<pdfrwt beam="2">  1       -2 0.51075628E-01 0.21180408E+04</pdfrwt>
<totfact> 0.33009854E+00</totfact>
</mgrwt>
</event>
<event>
12    1  0.1114484E-007  0.1644114E+04  0.7818608E-02  0.8793896E-01
         -2   -1    0    0    0  501 -0.00000000000E+00  0.00000000000E+00  0.39469742513E+03  0.39469742513E+03  0.00000000000E+00 0.  1.
          2   -1    0    0  501    0  0.00000000000E+00 -0.00000000000E+00 -0.17121404809E+04  0.17121404809E+04  0.00000000000E+00 0. -1.
         23    2    1    2    0    0 -0.24413668956E+03  0.41895553113E+03 -0.81443278315E+02  0.50011454741E+03  0.91406196111E+02 0.  0.
        254    2    1    2    0    0  0.24413668956E+03 -0.41895553113E+03 -0.12359997775E+04  0.16067233586E+04  0.90484144523E+03 0.  0.
        -24    2    4    4    0    0  0.41394334957E+03 -0.39063446765E+03 -0.29354832600E+03  0.64536632840E+03  0.79891765306E+02 0.  0.
         24    2    4    4    0    0 -0.16980666001E+03 -0.28321063486E+02 -0.94245145146E+03  0.96135703022E+03  0.79725885250E+02 0.  0.
         11    1    3    3    0    0 -0.14609602572E+03  0.18523476937E+03 -0.72464967463E+01  0.23602643969E+03  0.00000000000E+00 0. -1.
        -11    1    3    3    0    0 -0.98040663844E+02  0.23372076176E+03 -0.74196781569E+02  0.26408810772E+03  0.00000000000E+00 0.  1.
          4    1    6    6  502    0 -0.12318311854E+03 -0.10653846616E+02 -0.45969204545E+03  0.47602979087E+03  0.00000000000E+00 0. -1.
          1    1    5    5  503    0  0.24535664692E+03 -0.22876324811E+03 -0.21659252795E+03  0.39930543577E+03  0.00000000000E+00 0. -1.
         -2    1    5    5    0  503  0.16858670265E+03 -0.16187121954E+03 -0.76955798045E+02  0.24606089263E+03  0.00000000000E+00 0.  1.
         -3    1    6    6    0  502 -0.46623541469E+02 -0.17667216870E+02 -0.48275940601E+03  0.48532723936E+03  0.00000000000E+00 0.  1.
<mgrwt>
<rscale>  0 0.16441137E+04</rscale>
<asrwt>0</asrwt>
<pdfrwt beam="1">  1        2 0.26340622E+00 0.16441137E+04</pdfrwt>
<pdfrwt beam="2">  1       -2 0.60722683E-01 0.16441137E+04</pdfrwt>
<totfact> 0.23297630E+01</totfact>
</mgrwt>
</event>
<event>
12    1  0.1114484E-007  0.1759730E+04  0.7818608E-02  0.8728013E-01
          1   -1    0    0  501    0  0.00000000000E+00  0.00000000000E+00  0.68751595592E+03  0.68751595592E+03  0.00000000000E+00 0. -1.
         -1   -1    0    0    0  501 -0.00000000000E+00 -0.00000000000E+00 -0.11260279873E+04  0.11260279873E+04  0.00000000000E+00 0.  1.
         23    2    1    2    0    0  0.35750974215E+03  0.85274204157E+02 -0.74628007780E+03  0.83679615046E+03  0.90603185776E+02 0.  0.
        254    2    1    2    0    0 -0.35750974215E+03 -0.85274204157E+02  0.30776804642E+03  0.97674779276E+03  0.85101714122E+03 0.  0.
        -24    2    4    4    0    0  0.10410630454E+03 -0.25517390810E+03 -0.12883010386E+03  0.31474446779E+03  0.80715787345E+02 0.  0.
         24    2    4    4    0    0 -0.46161604669E+03  0.16989970394E+03  0.43659815028E+03  0.66200332497E+03  0.75333747269E+02 0.  0.
         11    1    3    3    0    0  0.23253083437E+02  0.57450720535E+00 -0.11646571484E+03  0.11876573024E+03  0.00000000000E+00 0. -1.
        -11    1    3    3    0    0  0.33425665871E+03  0.84699696951E+02 -0.62981436296E+03  0.71803042021E+03  0.00000000000E+00 0.  1.
          4    1    6    6  502    0 -0.42847650351E+03  0.17626501478E+03  0.41448159015E+03  0.62165622177E+03  0.00000000000E+00 0. -1.
          1    1    5    5  503    0  0.92197542404E+02 -0.12129982813E+03 -0.60086232192E+02  0.16378153262E+03  0.00000000000E+00 0. -1.
         -2    1    5    5    0  503  0.11908762138E+02 -0.13387407997E+03 -0.68743871668E+02  0.15096293517E+03  0.00000000000E+00 0.  1.
         -3    1    6    6    0  502 -0.33139543183E+02 -0.63653108346E+01  0.22116560130E+02  0.40347103197E+02  0.00000000000E+00 0.  1.
<mgrwt>
<rscale>  0 0.17597298E+04</rscale>
<asrwt>0</asrwt>
<pdfrwt beam="1">  1        1 0.10577169E+00 0.17597298E+04</pdfrwt>
<pdfrwt beam="2">  1       -1 0.17323507E+00 0.17597298E+04</pdfrwt>
<totfact> 0.61763326E+00</totfact>
</mgrwt>
</event>
<event>
12    1  0.1114484E-007  0.2780539E+04  0.7818608E-02  0.8309336E-01
         -2   -1    0    0    0  501 -0.00000000000E+00  0.00000000000E+00  0.49440499654E+03  0.49440499654E+03  0.00000000000E+00 0.  1.
          2   -1    0    0  501    0  0.00000000000E+00 -0.00000000000E+00 -0.39094465431E+04  0.39094465431E+04  0.00000000000E+00 0. -1.
         23    2    1    2    0    0  0.79799003721E+01  0.16523947382E+03 -0.34819798673E+04  0.34869755735E+04  0.86296531165E+02 0.  0.
        254    2    1    2    0    0 -0.79799003721E+01 -0.16523947382E+03  0.66938320688E+02  0.91687596621E+03  0.89934033387E+03 0.  0.
        -24    2    4    4    0    0  0.43006364589E+03 -0.26066597015E+01  0.69906714198E+02  0.44291286227E+03  0.79519310108E+02 0.  0.
         24    2    4    4    0    0 -0.43804354626E+03 -0.16263281412E+03 -0.29683935102E+01  0.47396310394E+03  0.79376519766E+02 0.  0.
         11    1    3    3    0    0 -0.36474486590E+01  0.16472890036E+03 -0.27673134168E+04  0.27722143606E+04  0.00000000000E+00 0. -1.
        -11    1    3    3    0    0  0.11627349031E+02  0.51057346429E+00 -0.71466645050E+03  0.71476121285E+03  0.00000000000E+00 0.  1.
          2    1    6    6  502    0 -0.38691299515E+03 -0.16040033841E+03 -0.21846997617E+02  0.41941295365E+03  0.00000000000E+00 0. -1.
          1    1    5    5  503    0  0.32735215963E+02  0.20685086126E+02  0.13044182143E+02  0.40860957403E+02  0.00000000000E+00 0. -1.
         -2    1    5    5    0  503  0.39732842993E+03 -0.23291745827E+02  0.56862532056E+02  0.40205190486E+03  0.00000000000E+00 0.  1.
         -1    1    6    6    0  502 -0.51130551107E+02 -0.22324757057E+01  0.18878604107E+02  0.54550150296E+02  0.00000000000E+00 0.  1.
<mgrwt>
<rscale>  0 0.27805394E+04</rscale>
<asrwt>0</asrwt>
<pdfrwt beam="1">  1        2 0.60145334E+00 0.27805394E+04</pdfrwt>
<pdfrwt beam="2">  1       -2 0.76062304E-01 0.27805394E+04</pdfrwt>
<totfact> 0.54542305E-01</totfact>
</mgrwt>
</event>
<event>
12    1  0.1114484E-007  0.1497593E+04  0.7818608E-02  0.8886055E-01
         -2   -1    0    0    0  501 -0.00000000000E+00  0.00000000000E+00  0.29853056360E+03  0.29853056360E+03  0.00000000000E+00 0. -1.
          2   -1    0    0  501    0  0.00000000000E+00 -0.00000000000E+00 -0.18781872341E+04  0.18781872341E+04  0.00000000000E+00 0.  1.
         23    2    1    2    0    0  0.60380031619E+01  0.40034295635E+03 -0.87337226279E+03  0.96504720857E+03  0.90697658098E+02 0.  0.
        254    2    1    2    0    0 -0.60380031619E+01 -0.40034295635E+03 -0.70628440770E+03  0.12116705891E+04  0.89944261172E+03 0.  0.
        -24    2    4    4    0    0  0.22944275033E+01 -0.21709112684E+03 -0.90246917025E+03  0.93171859840E+03  0.80716303178E+02 0.  0.
         24    2    4    4    0    0 -0.83324306652E+01 -0.18325182951E+03  0.19618476256E+03  0.27995199071E+03  0.78955643407E+02 0.  0.
         13    1    3    3    0    0  0.45770335062E+02  0.26762913802E+03 -0.55581150218E+03  0.61858443647E+03  0.00000000000E+00 0.  1.
        -13    1    3    3    0    0 -0.39732331900E+02  0.13271381833E+03 -0.31756076061E+03  0.34646277210E+03  0.00000000000E+00 0. -1.
          2    1    6    6  502    0  0.17117684376E+01  0.68539032574E+00 -0.60922182279E+01  0.63651421051E+01  0.00000000000E+00 0. -1.
          3    1    5    5  503    0  0.27401374978E+02 -0.24943412209E+02 -0.11868897454E+03  0.12433857745E+03  0.00000000000E+00 0. -1.
         -4    1    5    5    0  503 -0.25106947474E+02 -0.19214771463E+03 -0.78378019571E+03  0.80738002096E+03  0.00000000000E+00 0.  1.
         -1    1    6    6    0  502 -0.10044199103E+02 -0.18393721983E+03  0.20227698078E+03  0.27358684861E+03  0.00000000000E+00 0.  1.
<mgrwt>
<rscale>  0 0.14975931E+04</rscale>
<asrwt>0</asrwt>
<pdfrwt beam="1">  1        2 0.28895188E+00 0.14975931E+04</pdfrwt>
<pdfrwt beam="2">  1       -2 0.45927780E-01 0.14975931E+04</pdfrwt>
<totfact> 0.33922691E+01</totfact>
</mgrwt>
</event>
<event>
12    1  0.1114484E-007  0.2028799E+04  0.7818608E-02  0.8593273E-01
          1   -1    0    0  501    0  0.00000000000E+00  0.00000000000E+00  0.89088662394E+03  0.89088662394E+03  0.00000000000E+00 0. -1.
         -1   -1    0    0    0  501 -0.00000000000E+00 -0.00000000000E+00 -0.11550363819E+04  0.11550363819E+04  0.00000000000E+00 0.  1.
         23    2    1    2    0    0  0.46447202475E+03 -0.32958690818E+03 -0.68558796861E+03  0.89771364159E+03  0.10722466032E+03 0.  0.
        254    2    1    2    0    0 -0.46447202475E+03  0.32958690818E+03  0.42143821069E+03  0.11482093642E+04  0.90355563569E+03 0.  0.
        -24    2    4    4    0    0 -0.24095487170E+01  0.49978007167E+03  0.16785058196E+02  0.50604899434E+03  0.77575257172E+02 0.  0.
         24    2    4    4    0    0 -0.46206247603E+03 -0.17019316349E+03  0.40465315250E+03  0.64216036986E+03  0.78474977799E+02 0.  0.
         11    1    3    3    0    0  0.36281866407E+03 -0.19962778369E+03 -0.47446193273E+03  0.62976405156E+03  0.00000000000E+00 0.  1.
        -11    1    3    3    0    0  0.10165336067E+03 -0.12995912449E+03 -0.21112603587E+03  0.26794959003E+03  0.00000000000E+00 0. -1.
          2    1    6    6  502    0 -0.27314555879E+03 -0.12634947328E+03  0.20712287479E+03  0.36533898087E+03  0.00000000000E+00 0. -1.
          1    1    5    5  503    0 -0.34312644566E+02  0.30666728772E+03  0.28982618495E+02  0.30993898611E+03  0.00000000000E+00 0. -1.
         -2    1    5    5    0  503  0.31903095849E+02  0.19311278395E+03 -0.12197560299E+02  0.19611000822E+03  0.00000000000E+00 0.  1.
         -1    1    6    6    0  502 -0.18891691725E+03 -0.43843690215E+02  0.19753027770E+03  0.27682138899E+03  0.00000000000E+00 0.  1.
<mgrwt>
<rscale>  0 0.20287991E+04</rscale>
<asrwt>0</asrwt>
<pdfrwt beam="1">  1        1 0.13705948E+00 0.20287991E+04</pdfrwt>
<pdfrwt beam="2">  1       -1 0.17769791E+00 0.20287991E+04</pdfrwt>
<totfact> 0.37041430E+00</totfact>
</mgrwt>
</event>
<event>
12    1  0.1114484E-007  0.1328918E+04  0.7818608E-02  0.9006942E-01
          2   -1    0    0  501    0  0.00000000000E+00  0.00000000000E+00  0.15277798312E+04  0.15277798312E+04  0.00000000000E+00 0. -1.
         -2   -1    0    0    0  501 -0.00000000000E+00 -0.00000000000E+00 -0.28898520133E+03  0.28898520133E+03  0.00000000000E+00 0.  1.
         23    2    1    2    0    0  0.20775456929E+03 -0.25532815037E+02 -0.43509946387E+02  0.23237153165E+03  0.91046842797E+02 0.  0.
        254    2    1    2    0    0 -0.20775456929E+03  0.25532815037E+02  0.12823045762E+04  0.15843935009E+04  0.90674354347E+03 0.  0.
        -24    2    4    4    0    0 -0.28147443185E+03  0.20884617247E+03  0.86425320873E+02  0.36966036041E+03  0.79591874164E+02 0.  0.
         24    2    4    4    0    0  0.73719862560E+02 -0.18331335743E+03  0.11958792554E+04  0.12147331404E+04  0.80068745027E+02 0.  0.
         11    1    3    3    0    0  0.75346581008E+02 -0.47519312114E+02 -0.41161878076E+02  0.98129977581E+02  0.00000000000E+00 0. -1.
        -11    1    3    3    0    0  0.13240798828E+03  0.21986497077E+02 -0.23480683117E+01  0.13424155407E+03  0.00000000000E+00 0.  1.
          2    1    6    6  502    0  0.18215403001E+02 -0.12841637423E+03  0.87111297096E+03  0.88071583059E+03  0.00000000000E+00 0. -1.
          3    1    5    5  503    0 -0.27953518430E+03  0.21231746960E+03  0.91936111898E+02  0.36286481757E+03  0.00000000000E+00 0. -1.
         -4    1    5    5    0  503 -0.19392475542E+01 -0.34712971320E+01 -0.55107910252E+01  0.67955428465E+01  0.00000000000E+00 0.  1.
         -1    1    6    6    0  502  0.55504459558E+02 -0.54896983200E+02  0.32476628441E+03  0.33401730985E+03  0.00000000000E+00 0.  1.
<mgrwt>
<rscale>  0 0.13289180E+04</rscale>
<asrwt>0</asrwt>
<pdfrwt beam="1">  1        2 0.23504305E+00 0.13289180E+04</pdfrwt>
<pdfrwt beam="2">  1       -2 0.44459263E-01 0.13289180E+04</pdfrwt>
<totfact> 0.57445504E+01</totfact>
</mgrwt>
</event>
<event>
12    1  0.1114484E-007  0.1272237E+04  0.7818608E-02  0.9051876E-01
         -2   -1    0    0    0  501 -0.00000000000E+00  0.00000000000E+00  0.78634359510E+03  0.78634359510E+03  0.00000000000E+00 0.  1.
          2   -1    0    0  501    0  0.00000000000E+00 -0.00000000000E+00 -0.51459289890E+03  0.51459289890E+03  0.00000000000E+00 0. -1.
         23    2    1    2    0    0 -0.15170027180E+03  0.10527697203E+02 -0.25512562778E+03  0.31034812181E+03  0.90017031099E+02 0.  0.
        254    2    1    2    0    0  0.15170027180E+03 -0.10527697203E+02  0.52687632397E+03  0.99058837220E+03  0.82495021516E+03 0.  0.
        -24    2    4    4    0    0  0.37544823055E+03  0.24689328636E+03  0.16390543230E+03  0.48593249221E+03  0.85718886899E+02 0.  0.
         24    2    4    4    0    0 -0.22374795875E+03 -0.25742098357E+03  0.36297089167E+03  0.50465587999E+03  0.81246397965E+02 0.  0.
         11    1    3    3    0    0 -0.77383910854E+02 -0.32245888245E+02 -0.16987145675E+03  0.18943172592E+03  0.00000000000E+00 0. -1.
        -11    1    3    3    0    0 -0.74316360945E+02  0.42773585448E+02 -0.85254171030E+02  0.12091639589E+03  0.00000000000E+00 0.  1.
          2    1    6    6  502    0 -0.16677104173E+03 -0.19986776539E+03  0.22217624350E+03  0.34223089746E+03  0.00000000000E+00 0. -1.
          1    1    5    5  503    0  0.20408239032E+03  0.15535883589E+03  0.13394204759E+03  0.28935525231E+03  0.00000000000E+00 0. -1.
         -2    1    5    5    0  503  0.17136584023E+03  0.91534450471E+02  0.29963384707E+02  0.19657723989E+03  0.00000000000E+00 0.  1.
         -1    1    6    6    0  502 -0.56976917024E+02 -0.57553218177E+02  0.14079464817E+03  0.16242498253E+03  0.00000000000E+00 0.  1.
<mgrwt>
<rscale>  0 0.12722371E+04</rscale>
<asrwt>0</asrwt>
<pdfrwt beam="1">  1        2 0.79168138E-01 0.12722371E+04</pdfrwt>
<pdfrwt beam="2">  1       -2 0.12097594E+00 0.12722371E+04</pdfrwt>
<totfact> 0.30420824E+01</totfact>
</mgrwt>
</event>
<event>
12    1  0.1114484E-007  0.2079818E+04  0.7818608E-02  0.8570186E-01
          1   -1    0    0  501    0  0.00000000000E+00  0.00000000000E+00  0.52867712160E+03  0.52867712160E+03  0.00000000000E+00 0. -1.
         -1   -1    0    0    0  501 -0.00000000000E+00 -0.00000000000E+00 -0.20455040568E+04  0.20455040568E+04  0.00000000000E+00 0.  1.
         23    2    1    2    0    0 -0.87154230605E+02 -0.62605790694E+03 -0.13000131521E+04  0.14485030180E+04  0.92641432288E+02 0.  0.
        254    2    1    2    0    0  0.87154230605E+02  0.62605790694E+03 -0.21681378314E+03  0.11256781604E+04  0.90586905312E+03 0.  0.
        -24    2    4    4    0    0 -0.27482525501E+03  0.40380008184E+03  0.19074106936E+03  0.53114816846E+03  0.84574194852E+02 0.  0.
         24    2    4    4    0    0  0.36197948562E+03  0.22225782510E+03 -0.40755485250E+03  0.59452999190E+03  0.83290243429E+02 0.  0.
         11    1    3    3    0    0 -0.61049397255E+01 -0.90090367800E+02 -0.26782900561E+03  0.28264097528E+03  0.00000000000E+00 0. -1.
        -11    1    3    3    0    0 -0.81049290879E+02 -0.53596753914E+03 -0.10321841464E+04  0.11658620428E+04  0.00000000000E+00 0.  1.
          4    1    6    6  502    0  0.79040653731E+01  0.44273068415E+01 -0.35498201068E+02  0.36636014717E+02  0.00000000000E+00 0. -1.
          1    1    5    5  503    0 -0.90175186331E+02  0.17389524009E+03  0.39810016381E+02  0.19988986008E+03  0.00000000000E+00 0. -1.
         -2    1    5    5    0  503 -0.18465006868E+03  0.22990484174E+03  0.15093105297E+03  0.33125830838E+03  0.00000000000E+00 0.  1.
         -3    1    6    6    0  502  0.35407542024E+03  0.21783051826E+03 -0.37205665143E+03  0.55789397718E+03  0.00000000000E+00 0.  1.
<mgrwt>
<rscale>  0 0.20798185E+04</rscale>
<asrwt>0</asrwt>
<pdfrwt beam="1">  1        1 0.81334941E-01 0.20798185E+04</pdfrwt>
<pdfrwt beam="2">  1       -1 0.31469293E+00 0.20798185E+04</pdfrwt>
<totfact> 0.10022316E+00</totfact>
</mgrwt>
</event>
<event>
12    1  0.1114484E-007  0.1786149E+04  0.7818608E-02  0.8713700E-01
          1   -1    0    0  501    0  0.00000000000E+00  0.00000000000E+00  0.11576563693E+04  0.11576563693E+04  0.00000000000E+00 0. -1.
         -1   -1    0    0    0  501 -0.00000000000E+00 -0.00000000000E+00 -0.68896299496E+03  0.68896299496E+03  0.00000000000E+00 0.  1.
         23    2    1    2    0    0  0.48090094028E+03 -0.54006529826E+02  0.64903966234E+03  0.81481813038E+03  0.92161177708E+02 0.  0.
        254    2    1    2    0    0 -0.48090094028E+03  0.54006529826E+02 -0.18034628796E+03  0.10318012339E+04  0.89325616882E+03 0.  0.
        -24    2    4    4    0    0 -0.68232832973E+03 -0.62103662687E+02  0.54826390699E+02  0.69193122054E+03  0.79586847920E+02 0.  0.
         24    2    4    4    0    0  0.20142738945E+03  0.11611019251E+03 -0.23517267866E+03  0.33987001339E+03  0.78427464513E+02 0.  0.
         11    1    3    3    0    0  0.48012920753E+03 -0.57816322737E+02  0.65058582035E+03  0.81063474681E+03  0.00000000000E+00 0.  1.
        -11    1    3    3    0    0  0.77173275352E+00  0.38097929105E+01 -0.15461580125E+01  0.41833835664E+01  0.00000000000E+00 0. -1.
          4    1    6    6  502    0  0.16291057054E+03  0.11409642181E+03 -0.22433540625E+03  0.29980697451E+03  0.00000000000E+00 0. -1.
          1    1    5    5  503    0 -0.55599412159E+03 -0.19193709909E+02  0.42927068909E+02  0.55797902737E+03  0.00000000000E+00 0. -1.
         -2    1    5    5    0  503 -0.12633420814E+03 -0.42909952778E+02  0.11899321790E+02  0.13395219317E+03  0.00000000000E+00 0.  1.
         -3    1    6    6    0  502  0.38516818912E+02  0.20137706987E+01 -0.10837272403E+02  0.40063038885E+02  0.00000000000E+00 0.  1.
<mgrwt>
<rscale>  0 0.17861494E+04</rscale>
<asrwt>0</asrwt>
<pdfrwt beam="1">  1        1 0.17810098E+00 0.17861494E+04</pdfrwt>
<pdfrwt beam="2">  1       -1 0.10599431E+00 0.17861494E+04</pdfrwt>
<totfact> 0.90343665E+00</totfact>
</mgrwt>
</event>
<event>
12    1  0.1114484E-007  0.2637089E+04  0.7818608E-02  0.8355711E-01
          1   -1    0    0  501    0  0.00000000000E+00  0.00000000000E+00  0.34405464575E+04  0.34405464575E+04  0.00000000000E+00 0. -1.
         -1   -1    0    0    0  501 -0.00000000000E+00 -0.00000000000E+00 -0.50531483109E+03  0.50531483109E+03  0.00000000000E+00 0.  1.
         23    2    1    2    0    0  0.12482869534E+03 -0.50429381096E+03 -0.25757661236E+03  0.58666011396E+03  0.89050138283E+02 0.  0.
        254    2    1    2    0    0 -0.12482869534E+03  0.50429381096E+03  0.31928082387E+04  0.33592011746E+04  0.90571167107E+03 0.  0.
        -24    2    4    4    0    0  0.24496521021E+03  0.45404977595E+03  0.26102343975E+04  0.26619054360E+04  0.79042944765E+02 0.  0.
         24    2    4    4    0    0 -0.36979390555E+03  0.50244035003E+02  0.58257384126E+03  0.69729573860E+03  0.86931415070E+02 0.  0.
         11    1    3    3    0    0  0.17246322282E+02 -0.20825546019E+03 -0.13436530035E+03  0.24843873746E+03  0.00000000000E+00 0.  1.
        -11    1    3    3    0    0  0.10758237306E+03 -0.29603835076E+03 -0.12321131202E+03  0.33822137650E+03  0.00000000000E+00 0. -1.
          2    1    6    6  502    0 -0.20812658163E+02  0.15113081883E+02  0.82964842242E+02  0.86860445728E+02  0.00000000000E+00 0. -1.
          3    1    5    5  503    0  0.59375702217E+02  0.14164101552E+03  0.61763516408E+03  0.63644390734E+03  0.00000000000E+00 0. -1.
         -4    1    5    5    0  503  0.18558950799E+03  0.31240876044E+03  0.19925992334E+04  0.20254615286E+04  0.00000000000E+00 0.  1.
         -1    1    6    6    0  502 -0.34898124738E+03  0.35130953119E+02  0.49960899901E+03  0.61043529288E+03  0.00000000000E+00 0.  1.
<mgrwt>
<rscale>  0 0.26370887E+04</rscale>
<asrwt>0</asrwt>
<pdfrwt beam="1">  1        1 0.52931482E+00 0.26370887E+04</pdfrwt>
<pdfrwt beam="2">  1       -1 0.77740746E-01 0.26370887E+04</pdfrwt>
<totfact> 0.40500540E-01</totfact>
</mgrwt>
</event>
<event>
12    1  0.1114484E-007  0.1599896E+04  0.7818608E-02  0.8820612E-01
          1   -1    0    0  501    0  0.00000000000E+00  0.00000000000E+00  0.93275091479E+03  0.93275091479E+03  0.00000000000E+00 0. -1.
         -1   -1    0    0    0  501 -0.00000000000E+00 -0.00000000000E+00 -0.68605318652E+03  0.68605318652E+03  0.00000000000E+00 0.  1.
         23    2    1    2    0    0 -0.33411507052E+03 -0.42129546305E+03  0.15327489965E+03  0.56699911899E+03  0.94191605452E+02 0.  0.
        254    2    1    2    0    0  0.33411507052E+03  0.42129546305E+03  0.93422828622E+02  0.10518049823E+04  0.89913466643E+03 0.  0.
        -24    2    4    4    0    0 -0.40897093434E+02  0.53013724292E+02  0.41662385057E+03  0.42936872015E+03  0.79366477544E+02 0.  0.
         24    2    4    4    0    0  0.37501216396E+03  0.36828173876E+03 -0.32320102195E+03  0.62243626217E+03  0.81868416741E+02 0.  0.
         13    1    3    3    0    0 -0.10889081969E+02 -0.12241470326E+01 -0.73119239143E+01  0.13173263583E+02  0.00000000000E+00 0. -1.
        -13    1    3    3    0    0 -0.32322598855E+03 -0.42007131602E+03  0.16058682356E+03  0.55382585541E+03  0.00000000000E+00 0.  1.
          4    1    6    6  502    0  0.83848962928E+02  0.11351526780E+03 -0.53984542513E+02  0.15109829727E+03  0.00000000000E+00 0. -1.
          3    1    5    5  503    0 -0.13515493929E+02 -0.12805648715E+02  0.20939194059E+03  0.21021807248E+03  0.00000000000E+00 0. -1.
         -4    1    5    5    0  503 -0.27381599506E+02  0.65819373007E+02  0.20723190998E+03  0.21915064766E+03  0.00000000000E+00 0.  1.
         -3    1    6    6    0  502  0.29116320103E+03  0.25476647096E+03 -0.26921647944E+03  0.47133796490E+03  0.00000000000E+00 0.  1.
<mgrwt>
<rscale>  0 0.15998959E+04</rscale>
<asrwt>0</asrwt>
<pdfrwt beam="1">  1        1 0.14350014E+00 0.15998959E+04</pdfrwt>
<pdfrwt beam="2">  1       -1 0.10554664E+00 0.15998959E+04</pdfrwt>
<totfact> 0.13814816E+01</totfact>
</mgrwt>
</event>
<event>
12    1  0.1114484E-007  0.1267010E+04  0.7818608E-02  0.9056143E-01
          4   -1    0    0  501    0  0.00000000000E+00  0.00000000000E+00  0.14833130129E+04  0.14833130129E+04  0.00000000000E+00 0. -1.
         -4   -1    0    0    0  501 -0.00000000000E+00 -0.00000000000E+00 -0.27056237294E+03  0.27056237294E+03  0.00000000000E+00 0.  1.
         23    2    1    2    0    0 -0.94241658871E+02  0.26765693521E+03  0.43932736357E+03  0.52942135708E+03  0.82199244042E+02 0.  0.
        254    2    1    2    0    0  0.94241658871E+02 -0.26765693521E+03  0.77342327636E+03  0.12244540287E+04  0.90586002166E+03 0.  0.
        -24    2    4    4    0    0  0.45562286846E+03  0.38937834698E+02  0.32206173137E+03  0.56465988015E+03  0.77515599776E+02 0.  0.
         24    2    4    4    0    0 -0.36138120959E+03 -0.30659476990E+03  0.45136154499E+03  0.65979414858E+03  0.83691950773E+02 0.  0.
         11    1    3    3    0    0 -0.10421549225E+01  0.12268044625E+03  0.19627355653E+03  0.23146249582E+03  0.00000000000E+00 0.  1.
        -11    1    3    3    0    0 -0.93199503949E+02  0.14497648896E+03  0.24305380704E+03  0.29795886126E+03  0.00000000000E+00 0. -1.
          4    1    6    6  502    0 -0.26512046909E+03 -0.19149689563E+03  0.26773534498E+03  0.42266078493E+03  0.00000000000E+00 0. -1.
          1    1    5    5  503    0  0.35508316309E+03  0.22705118344E+02  0.28640173731E+03  0.45675543811E+03  0.00000000000E+00 0. -1.
         -2    1    5    5    0  503  0.10053970537E+03  0.16232716354E+02  0.35659994051E+02  0.10790444204E+03  0.00000000000E+00 0.  1.
         -3    1    6    6    0  502 -0.96260740497E+02 -0.11509787428E+03  0.18362620001E+03  0.23713336365E+03  0.00000000000E+00 0.  1.
<mgrwt>
<rscale>  0 0.12670102E+04</rscale>
<asrwt>0</asrwt>
<pdfrwt beam="1">  1        4 0.22820200E+00 0.12670102E+04</pdfrwt>
<pdfrwt beam="2">  1       -4 0.41624982E-01 0.12670102E+04</pdfrwt>
<totfact> 0.95782838E-01</totfact>
</mgrwt>
</event>
<event>
12    1  0.1114484E-007  0.1719099E+04  0.7818608E-02  0.8750546E-01
          1   -1    0    0  501    0  0.00000000000E+00  0.00000000000E+00  0.61504682742E+03  0.61504682742E+03  0.00000000000E+00 0. -1.
         -1   -1    0    0    0  501 -0.00000000000E+00 -0.00000000000E+00 -0.12012500664E+04  0.12012500664E+04  0.00000000000E+00 0.  1.
         23    2    1    2    0    0  0.45633361516E+03 -0.36354639470E+03 -0.43265785752E+03  0.73249246189E+03  0.94583485022E+02 0.  0.
        254    2    1    2    0    0 -0.45633361516E+03  0.36354639470E+03 -0.15354538143E+03  0.10838044319E+04  0.90036076825E+03 0.  0.
        -24    2    4    4    0    0 -0.43717974447E+03  0.64292401939E+03 -0.11424793339E+03  0.78981405599E+03  0.79222655045E+02 0.  0.
         24    2    4    4    0    0 -0.19153870688E+02 -0.27937762469E+03 -0.39297448041E+02  0.29399037590E+03  0.80419672717E+02 0.  0.
         11    1    3    3    0    0  0.12000010095E+03 -0.13013613859E+03 -0.17411571409E+03  0.24829764535E+03  0.00000000000E+00 0. -1.
        -11    1    3    3    0    0  0.33633351421E+03 -0.23341025611E+03 -0.25854214343E+03  0.48419481654E+03  0.00000000000E+00 0.  1.
          4    1    6    6  502    0  0.18674826306E+02 -0.14776176565E+03 -0.48769950824E+02  0.15671884580E+03  0.00000000000E+00 0. -1.
          1    1    5    5  503    0 -0.20144137321E+03  0.32937010697E+03 -0.92001029560E+02  0.39689732129E+03  0.00000000000E+00 0. -1.
         -2    1    5    5    0  503 -0.23573837126E+03  0.31355391241E+03 -0.22246903829E+02  0.39291673469E+03  0.00000000000E+00 0.  1.
         -3    1    6    6    0  502 -0.37828696994E+02 -0.13161585905E+03  0.94725027832E+01  0.13727153011E+03  0.00000000000E+00 0.  1.
<mgrwt>
<rscale>  0 0.17190987E+04</rscale>
<asrwt>0</asrwt>
<pdfrwt beam="1">  1        1 0.94622590E-01 0.17190987E+04</pdfrwt>
<pdfrwt beam="2">  1       -1 0.18480770E+00 0.17190987E+04</pdfrwt>
<totfact> 0.60343648E+00</totfact>
</mgrwt>
</event>
<event>
12    1  0.1114484E-007  0.2492257E+04  0.7818608E-02  0.8405749E-01
         -2   -1    0    0    0  501 -0.00000000000E+00  0.00000000000E+00  0.64922420845E+03  0.64922420845E+03  0.00000000000E+00 0. -1.
          2   -1    0    0  501    0  0.00000000000E+00 -0.00000000000E+00 -0.23918338699E+04  0.23918338699E+04  0.00000000000E+00 0.  1.
         23    2    1    2    0    0  0.99666167492E+03 -0.18042013436E+03 -0.28290789261E+03  0.10554518666E+04  0.89754374955E+02 0.  0.
        254    2    1    2    0    0 -0.99666167492E+03  0.18042013436E+03 -0.14597017688E+04  0.19856062117E+04  0.88657591614E+03 0.  0.
        -24    2    4    4    0    0 -0.29350728649E+03  0.95559271940E+02 -0.11757536245E+04  0.12182701128E+04  0.80668337117E+02 0.  0.
         24    2    4    4    0    0 -0.70315438844E+03  0.84860862416E+02 -0.28394814428E+03  0.76733609888E+03  0.80936271614E+02 0.  0.
         11    1    3    3    0    0  0.47105403861E+03 -0.10276083551E+03 -0.91673216035E+02  0.49077049132E+03  0.00000000000E+00 0.  1.
        -11    1    3    3    0    0  0.52560763631E+03 -0.77659298845E+02 -0.19123467657E+03  0.56468137526E+03  0.00000000000E+00 0. -1.
          4    1    6    6  502    0 -0.57878837300E+03  0.52332335945E+02 -0.20380290123E+03  0.61584923208E+03  0.00000000000E+00 0. -1.
          3    1    5    5  503    0 -0.20115892614E+03  0.87392323993E+02 -0.69952017968E+03  0.73309672871E+03  0.00000000000E+00 0. -1.
         -4    1    5    5    0  503 -0.92348360353E+02  0.81669479472E+01 -0.47623344483E+03  0.48517338413E+03  0.00000000000E+00 0.  1.
         -3    1    6    6    0  502 -0.12436601543E+03  0.32528526471E+02 -0.80145243052E+02  0.15148686680E+03  0.00000000000E+00 0.  1.
<mgrwt>
<rscale>  0 0.24922572E+04</rscale>
<asrwt>0</asrwt>
<pdfrwt beam="1">  1        2 0.36797445E+00 0.24922572E+04</pdfrwt>
<pdfrwt beam="2">  1       -2 0.99880646E-01 0.24922572E+04</pdfrwt>
<totfact> 0.29702957E+00</totfact>
</mgrwt>
</event>
<event>
12    1  0.1114484E-007  0.1424481E+04  0.7818608E-02  0.8936286E-01
         -1   -1    0    0    0  501 -0.00000000000E+00  0.00000000000E+00  0.61824600783E+03  0.61824600783E+03  0.00000000000E+00 0.  1.
          1   -1    0    0  501    0  0.00000000000E+00 -0.00000000000E+00 -0.82052579999E+03  0.82052579999E+03  0.00000000000E+00 0. -1.
         23    2    1    2    0    0 -0.95125822916E+02 -0.19503164346E+03 -0.42397250774E+03  0.48497396391E+03  0.91437378625E+02 0.  0.
        254    2    1    2    0    0  0.95125822916E+02  0.19503164346E+03  0.22169271558E+03  0.95379784391E+03  0.90194035433E+03 0.  0.
        -24    2    4    4    0    0  0.29476940934E+03  0.46230478405E+03  0.25333421134E+03  0.60936048323E+03  0.80791446633E+02 0.  0.
         24    2    4    4    0    0 -0.19964358642E+03 -0.26727314059E+03 -0.31641495757E+02  0.34443736068E+03  0.79645576779E+02 0.  0.
         11    1    3    3    0    0 -0.10367253493E+03 -0.17334837302E+03 -0.41182582423E+03  0.45869179460E+03  0.00000000000E+00 0. -1.
        -11    1    3    3    0    0  0.85467120119E+01 -0.21683270445E+02 -0.12146683512E+02  0.26282169312E+02  0.00000000000E+00 0.  1.
          2    1    6    6  502    0 -0.50579387394E+02 -0.78428352784E+02  0.26324093306E+02  0.96965142386E+02  0.00000000000E+00 0. -1.
          1    1    5    5  503    0  0.23028458419E+03  0.40399555239E+03  0.19269503215E+03  0.50336345862E+03  0.00000000000E+00 0. -1.
         -2    1    5    5    0  503  0.64484825153E+02  0.58309231660E+02  0.60639179196E+02  0.10599702461E+03  0.00000000000E+00 0.  1.
         -1    1    6    6    0  502 -0.14906419903E+03 -0.18884478780E+03 -0.57965589063E+02  0.24747221830E+03  0.00000000000E+00 0.  1.
<mgrwt>
<rscale>  0 0.14244814E+04</rscale>
<asrwt>0</asrwt>
<pdfrwt beam="1">  1        1 0.12623474E+00 0.14244814E+04</pdfrwt>
<pdfrwt beam="2">  1       -1 0.95114771E-01 0.14244814E+04</pdfrwt>
<totfact> 0.22062681E+01</totfact>
</mgrwt>
</event>
<event>
12    1  0.1114484E-007  0.1214499E+04  0.7818608E-02  0.9100259E-01
          2   -1    0    0  501    0  0.00000000000E+00  0.00000000000E+00  0.30607546320E+03  0.30607546320E+03  0.00000000000E+00 0. -1.
         -2   -1    0    0    0  501 -0.00000000000E+00 -0.00000000000E+00 -0.12047754060E+04  0.12047754060E+04  0.00000000000E+00 0.  1.
         23    2    1    2    0    0  0.18700395412E+03  0.13569620551E+03 -0.34104237392E+03  0.42510455206E+03  0.10497637986E+03 0.  0.
        254    2    1    2    0    0 -0.18700395412E+03 -0.13569620551E+03 -0.55765756889E+03  0.10857463171E+04  0.90248499268E+03 0.  0.
        -24    2    4    4    0    0  0.19827189343E+03 -0.38812602333E+03 -0.15773135258E+03  0.47042684782E+03  0.80428140946E+02 0.  0.
         24    2    4    4    0    0 -0.38527584755E+03  0.25242981782E+03 -0.39992621631E+03  0.61531946932E+03  0.80738957165E+02 0.  0.
         11    1    3    3    0    0 -0.12922732083E+02  0.45067026435E+01 -0.28132064838E+02  0.31284508071E+02  0.00000000000E+00 0. -1.
        -11    1    3    3    0    0  0.19992668621E+03  0.13118950287E+03 -0.31291030908E+03  0.39382004399E+03  0.00000000000E+00 0.  1.
          4    1    6    6  502    0 -0.21102282503E+03  0.16154987841E+03 -0.18337886800E+03  0.32288822389E+03  0.00000000000E+00 0. -1.
          3    1    5    5  503    0  0.11467610737E+03 -0.27171832701E+03 -0.13850062864E+03  0.32582799598E+03  0.00000000000E+00 0. -1.
         -4    1    5    5    0  503  0.83595786058E+02 -0.11640769633E+03 -0.19230723939E+02  0.14459885184E+03  0.00000000000E+00 0.  1.
         -3    1    6    6    0  502 -0.17425302252E+03  0.90879939412E+02 -0.21654734831E+03  0.29243124543E+03  0.00000000000E+00 0.  1.
<mgrwt>
<rscale>  0 0.12144994E+04</rscale>
<asrwt>0</asrwt>
<pdfrwt beam="1">  1        2 0.47088533E-01 0.12144994E+04</pdfrwt>
<pdfrwt beam="2">  1       -2 0.18535006E+00 0.12144994E+04</pdfrwt>
<totfact> 0.17618218E+01</totfact>
</mgrwt>
</event>
<event>
12    1  0.1114484E-007  0.1455598E+04  0.7818608E-02  0.8914529E-01
         -2   -1    0    0    0  501 -0.00000000000E+00  0.00000000000E+00  0.27124852325E+03  0.27124852325E+03  0.00000000000E+00 0.  1.
          2   -1    0    0  501    0  0.00000000000E+00 -0.00000000000E+00 -0.19527887330E+04  0.19527887330E+04  0.00000000000E+00 0. -1.
         23    2    1    2    0    0 -0.25844449515E+03  0.14275700372E+03 -0.39159477177E+01  0.30888870264E+03  0.90685041695E+02 0.  0.
        254    2    1    2    0    0  0.25844449515E+03 -0.14275700372E+03 -0.16776242620E+04  0.19151485536E+04  0.87532719518E+03 0.  0.
        -24    2    4    4    0    0 -0.17460751864E+03 -0.34057133281E+03 -0.44904578074E+03  0.59518601926E+03  0.78279409933E+02 0.  0.
         24    2    4    4    0    0  0.43305201379E+03  0.19781432909E+03 -0.12285784813E+04  0.13199625343E+04  0.78939546089E+02 0.  0.
         13    1    3    3    0    0 -0.61131811409E+02  0.62878355018E+02 -0.33695097547E+02  0.93947567795E+02  0.00000000000E+00 0. -1.
        -13    1    3    3    0    0 -0.19731268374E+03  0.79878648702E+02  0.29779149829E+02  0.21494113485E+03  0.00000000000E+00 0.  1.
          2    1    6    6  502    0  0.66722521195E+02  0.14112458937E+01 -0.15728390916E+03  0.17085700024E+03  0.00000000000E+00 0. -1.
          3    1    5    5  503    0 -0.91167257211E+02 -0.14896088564E+03 -0.26104830018E+03  0.31408124628E+03  0.00000000000E+00 0. -1.
         -2    1    5    5    0  503 -0.83440261429E+02 -0.19161044718E+03 -0.18799748056E+03  0.28110477298E+03  0.00000000000E+00 0.  1.
         -1    1    6    6    0  502  0.36632949260E+03  0.19640308320E+03 -0.10712945721E+04  0.11491055341E+04  0.00000000000E+00 0.  1.
<mgrwt>
<rscale>  0 0.14555976E+04</rscale>
<asrwt>0</asrwt>
<pdfrwt beam="1">  1        2 0.30042903E+00 0.14555976E+04</pdfrwt>
<pdfrwt beam="2">  1       -2 0.41730542E-01 0.14555976E+04</pdfrwt>
<totfact> 0.37450277E+01</totfact>
</mgrwt>
</event>
<event>
12    1  0.1114484E-007  0.1529044E+04  0.7818608E-02  0.8865365E-01
          2   -1    0    0  501    0  0.00000000000E+00  0.00000000000E+00  0.12417895528E+04  0.12417895528E+04  0.00000000000E+00 0. -1.
         -2   -1    0    0    0  501 -0.00000000000E+00 -0.00000000000E+00 -0.47068688591E+03  0.47068688591E+03  0.00000000000E+00 0.  1.
         23    2    1    2    0    0  0.41592107489E+03  0.27631126854E+03  0.22695877452E+03  0.55590303357E+03  0.90441360768E+02 0.  0.
        254    2    1    2    0    0 -0.41592107489E+03 -0.27631126854E+03  0.54414389239E+03  0.11565734052E+04  0.89007370944E+03 0.  0.
        -24    2    4    4    0    0 -0.21951946554E+03 -0.53868651520E+03  0.93577277554E+02  0.59464397730E+03  0.80453685178E+02 0.  0.
         24    2    4    4    0    0 -0.19640160935E+03  0.26237524665E+03  0.45056661483E+03  0.56192942786E+03  0.73075613432E+02 0.  0.
         13    1    3    3    0    0  0.17011341450E+03  0.13826149091E+03  0.56210258078E+02  0.22630600252E+03  0.00000000000E+00 0. -1.
        -13    1    3    3    0    0  0.24580766040E+03  0.13804977763E+03  0.17074851644E+03  0.32959703105E+03  0.00000000000E+00 0.  1.
          2    1    6    6  502    0 -0.57697759178E+02  0.46743617324E+02  0.63805873039E+02  0.97903966258E+02  0.00000000000E+00 0. -1.
          3    1    5    5  503    0 -0.21068892124E+02 -0.11671219039E+02  0.32131402542E+01  0.24298967869E+02  0.00000000000E+00 0. -1.
         -4    1    5    5    0  503 -0.19845057342E+03 -0.52701529616E+03  0.90364137300E+02  0.57034500943E+03  0.00000000000E+00 0.  1.
         -1    1    6    6    0  502 -0.13870385017E+03  0.21563162933E+03  0.38676074179E+03  0.46402546160E+03  0.00000000000E+00 0.  1.
<mgrwt>
<rscale>  0 0.15290442E+04</rscale>
<asrwt>0</asrwt>
<pdfrwt beam="1">  1        2 0.19104455E+00 0.15290442E+04</pdfrwt>
<pdfrwt beam="2">  1       -2 0.72413367E-01 0.15290442E+04</pdfrwt>
<totfact> 0.29759804E+01</totfact>
</mgrwt>
</event>
<event>
12    1  0.1114484E-007  0.2151456E+04  0.7818608E-02  0.8538909E-01
         -2   -1    0    0    0  501 -0.00000000000E+00  0.00000000000E+00  0.25947555386E+03  0.25947555386E+03  0.00000000000E+00 0. -1.
          2   -1    0    0  501    0  0.00000000000E+00 -0.00000000000E+00 -0.44597288764E+04  0.44597288764E+04  0.00000000000E+00 0.  1.
         23    2    1    2    0    0 -0.27541007133E+03 -0.28807987842E+03 -0.67745076023E+01  0.41122357115E+03  0.10108515114E+03 0.  0.
        254    2    1    2    0    0  0.27541007133E+03  0.28807987842E+03 -0.41934788150E+04  0.43079808591E+04  0.90254849581E+03 0.  0.
        -24    2    4    4    0    0  0.20066483726E+03  0.42530940550E+03 -0.98177459591E+03  0.10914691538E+04  0.79177580377E+02 0.  0.
         24    2    4    4    0    0  0.74745234065E+02 -0.13722952708E+03 -0.32117042190E+04  0.32165117053E+04  0.80528048485E+02 0.  0.
         11    1    3    3    0    0 -0.15934129916E+03 -0.22107497904E+03  0.24465252181E+02  0.27360983999E+03  0.00000000000E+00 0. -1.
        -11    1    3    3    0    0 -0.11606877217E+03 -0.67004899379E+02 -0.31239759783E+02  0.13761373116E+03  0.00000000000E+00 0.  1.
          4    1    6    6  502    0  0.12854016193E+01 -0.81565013638E+02 -0.17547406282E+04  0.17566357550E+04  0.00000000000E+00 0. -1.
          3    1    5    5  503    0  0.20565427109E+03  0.39681926337E+03 -0.90307419751E+03  0.10076220587E+04  0.00000000000E+00 0. -1.
         -4    1    5    5    0  503 -0.49894338255E+01  0.28490142127E+02 -0.78700398404E+02  0.83847095103E+02  0.00000000000E+00 0.  1.
         -3    1    6    6    0  502  0.73459832446E+02 -0.55664513446E+02 -0.14569635909E+04  0.14598759503E+04  0.00000000000E+00 0.  1.
<mgrwt>
<rscale>  0 0.21514559E+04</rscale>
<asrwt>0</asrwt>
<pdfrwt beam="1">  1        2 0.68611207E+00 0.21514559E+04</pdfrwt>
<pdfrwt beam="2">  1       -2 0.39919320E-01 0.21514559E+04</pdfrwt>
<totfact> 0.74292512E-01</totfact>
</mgrwt>
</event>
<event>
12    1  0.1114484E-007  0.1999927E+04  0.7818608E-02  0.8606655E-01
          1   -1    0    0  501    0  0.00000000000E+00  0.00000000000E+00  0.25786144725E+04  0.25786144725E+04  0.00000000000E+00 0.  1.
         -1   -1    0    0    0  501 -0.00000000000E+00 -0.00000000000E+00 -0.38777693622E+03  0.38777693622E+03  0.00000000000E+00 0. -1.
         23    2    1    2    0    0 -0.72389958854E+03  0.31311103010E+03  0.97867076757E+03  0.12602491747E+04  0.91446047311E+02 0.  0.
        254    2    1    2    0    0  0.72389958854E+03 -0.31311103010E+03  0.12121667687E+04  0.17061422340E+04  0.90526455585E+03 0.  0.
        -24    2    4    4    0    0  0.23330631433E+03  0.25687670004E+03  0.11633561964E+03  0.37453499304E+03  0.79529926985E+02 0.  0.
         24    2    4    4    0    0  0.49059327421E+03 -0.56998773014E+03  0.10958311491E+04  0.13316072410E+04  0.82244536156E+02 0.  0.
         11    1    3    3    0    0 -0.42520905008E+03  0.15025223102E+03  0.60988105358E+03  0.75850732938E+03  0.00000000000E+00 0. -1.
        -11    1    3    3    0    0 -0.29869053846E+03  0.16285879909E+03  0.36878971399E+03  0.50174184533E+03  0.00000000000E+00 0.  1.
          4    1    6    6  502    0  0.17167804410E+03 -0.24730449466E+03  0.39283823076E+03  0.49492902466E+03  0.00000000000E+00 0. -1.
          3    1    5    5  503    0  0.11198962899E+03  0.95999485953E+02  0.86077553900E+02  0.17078326496E+03  0.00000000000E+00 0. -1.
         -2    1    5    5    0  503  0.12131668534E+03  0.16087721409E+03  0.30258065736E+02  0.20375172808E+03  0.00000000000E+00 0.  1.
         -3    1    6    6    0  502  0.31891523011E+03 -0.32268323548E+03  0.70299291830E+03  0.83667821631E+03  0.00000000000E+00 0.  1.
<mgrwt>
<rscale>  0 0.19999272E+04</rscale>
<asrwt>0</asrwt>
<pdfrwt beam="1">  1        1 0.39670991E+00 0.19999272E+04</pdfrwt>
<pdfrwt beam="2">  1       -1 0.59657992E-01 0.19999272E+04</pdfrwt>
<totfact> 0.31579255E+00</totfact>
</mgrwt>
</event>
<event>
12    1  0.1114484E-007  0.2049799E+04  0.7818608E-02  0.8583685E-01
          1   -1    0    0  501    0  0.00000000000E+00  0.00000000000E+00  0.17822344223E+04  0.17822344223E+04  0.00000000000E+00 0. -1.
         -1   -1    0    0    0  501 -0.00000000000E+00 -0.00000000000E+00 -0.58938338192E+03  0.58938338192E+03  0.00000000000E+00 0.  1.
         23    2    1    2    0    0  0.34039437716E+03  0.38579174185E+03 -0.25636747309E+03  0.58786622542E+03  0.12312115030E+03 0.  0.
        254    2    1    2    0    0 -0.34039437716E+03 -0.38579174185E+03  0.14492185134E+04  0.17837515788E+04  0.90378747225E+03 0.  0.
        -24    2    4    4    0    0 -0.27551394885E+03 -0.97028227703E+02  0.27642655778E+00  0.30276076307E+03  0.79634102362E+02 0.  0.
         24    2    4    4    0    0 -0.64880428310E+02 -0.28876351415E+03  0.14489420869E+04  0.14809908157E+04  0.79415288110E+02 0.  0.
         13    1    3    3    0    0  0.78548302372E+02  0.10176894738E+03 -0.84147812815E+01  0.12883152952E+03  0.00000000000E+00 0. -1.
        -13    1    3    3    0    0  0.26184607479E+03  0.28402279447E+03 -0.24795269180E+03  0.45903469590E+03  0.00000000000E+00 0.  1.
          4    1    6    6  502    0 -0.58216791273E+02 -0.25129723926E+03  0.10932942610E+04  0.11233128853E+04  0.00000000000E+00 0. -1.
          1    1    5    5  503    0 -0.23505317659E+03 -0.76727110017E+02 -0.28842872943E+02  0.24893564742E+03  0.00000000000E+00 0. -1.
         -2    1    5    5    0  503 -0.40460772268E+02 -0.20301117686E+02  0.29119299500E+02  0.53825115654E+02  0.00000000000E+00 0.  1.
         -3    1    6    6    0  502 -0.66636370368E+01 -0.37466274882E+02  0.35564782586E+03  0.35767793033E+03  0.00000000000E+00 0.  1.
<mgrwt>
<rscale>  0 0.20497994E+04</rscale>
<asrwt>0</asrwt>
<pdfrwt beam="1">  1        1 0.27418991E+00 0.20497994E+04</pdfrwt>
<pdfrwt beam="2">  1       -1 0.90674367E-01 0.20497994E+04</pdfrwt>
<totfact> 0.45967454E+00</totfact>
</mgrwt>
</event>
<event>
12    1  0.1114484E-007  0.1780395E+04  0.7818608E-02  0.8716795E-01
          1   -1    0    0  501    0  0.00000000000E+00  0.00000000000E+00  0.57227852323E+03  0.57227852323E+03  0.00000000000E+00 0. -1.
         -1   -1    0    0    0  501 -0.00000000000E+00 -0.00000000000E+00 -0.13847313803E+04  0.13847313803E+04  0.00000000000E+00 0.  1.
         23    2    1    2    0    0 -0.27561364812E+03  0.25752722509E+02  0.35162724323E+03  0.45714981373E+03  0.93371024750E+02 0.  0.
        254    2    1    2    0    0  0.27561364812E+03 -0.25752722509E+02 -0.11640801003E+04  0.14998600898E+04  0.90436260608E+03 0.  0.
        -24    2    4    4    0    0 -0.20406209128E+03  0.19673107014E+03 -0.10358980787E+03  0.31199182340E+03  0.79142899339E+02 0.  0.
         24    2    4    4    0    0  0.47967573941E+03 -0.22248379265E+03 -0.10604902924E+04  0.11878682664E+04  0.82483361860E+02 0.  0.
         11    1    3    3    0    0 -0.27690496419E+03  0.29927925651E+02  0.35529145876E+03  0.45144663095E+03  0.00000000000E+00 0. -1.
        -11    1    3    3    0    0  0.12913160621E+01 -0.41752031428E+01 -0.36642155275E+01  0.57031827858E+01  0.00000000000E+00 0.  1.
          2    1    6    6  502    0  0.17252902728E+03 -0.99155824564E+02 -0.48063131686E+03  0.52019669890E+03  0.00000000000E+00 0. -1.
          3    1    5    5  503    0 -0.16577021900E+03  0.18945766759E+03 -0.72040975074E+02  0.26184704582E+03  0.00000000000E+00 0. -1.
         -4    1    5    5    0  503 -0.38291872286E+02  0.72734025539E+01 -0.31548832797E+02  0.50144777582E+02  0.00000000000E+00 0.  1.
         -1    1    6    6    0  502  0.30714671212E+03 -0.12332796809E+03 -0.57985897555E+03  0.66767156747E+03  0.00000000000E+00 0.  1.
<mgrwt>
<rscale>  0 0.17803955E+04</rscale>
<asrwt>0</asrwt>
<pdfrwt beam="1">  1        1 0.88042849E-01 0.17803955E+04</pdfrwt>
<pdfrwt beam="2">  1       -1 0.21303560E+00 0.17803955E+04</pdfrwt>
<totfact> 0.42476988E+00</totfact>
</mgrwt>
</event>
<event>
12    1  0.1114484E-007  0.2043237E+04  0.7818608E-02  0.8586669E-01
          2   -1    0    0  501    0  0.00000000000E+00  0.00000000000E+00  0.12144054827E+04  0.12144054827E+04  0.00000000000E+00 0. -1.
         -2   -1    0    0    0  501 -0.00000000000E+00 -0.00000000000E+00 -0.85943653314E+03  0.85943653314E+03  0.00000000000E+00 0.  1.
         23    2    1    2    0    0  0.33474797351E+03  0.42552876111E+03  0.76954495643E+03  0.94496267252E+03  0.87315979018E+02 0.  0.
        254    2    1    2    0    0 -0.33474797351E+03 -0.42552876111E+03 -0.41457600683E+03  0.11288793434E+04  0.89964680520E+03 0.  0.
        -24    2    4    4    0    0 -0.87724780338E+02  0.27149989417E+03 -0.18870051331E+03  0.35159456429E+03  0.81258995167E+02 0.  0.
         24    2    4    4    0    0 -0.24702319318E+03 -0.69702865527E+03 -0.22587549352E+03  0.77728477907E+03  0.79262128158E+02 0.  0.
         11    1    3    3    0    0  0.29301377177E+03  0.31731885708E+03  0.62303858962E+03  0.75810646460E+03  0.00000000000E+00 0. -1.
        -11    1    3    3    0    0  0.41734201745E+02  0.10820990403E+03  0.14650636681E+03  0.18685620793E+03  0.00000000000E+00 0.  1.
          2    1    6    6  502    0 -0.24322984765E+03 -0.66433619924E+03 -0.23046451530E+03  0.74405459290E+03  0.00000000000E+00 0. -1.
          3    1    5    5  503    0 -0.45403053015E+02  0.20353663570E+03 -0.17079296344E+03  0.26955302939E+03  0.00000000000E+00 0. -1.
         -4    1    5    5    0  503 -0.42321727323E+02  0.67963258468E+02 -0.17907549864E+02  0.82041534891E+02  0.00000000000E+00 0.  1.
         -1    1    6    6    0  502 -0.37933455275E+01 -0.32692456037E+02  0.45890217769E+01  0.33230186170E+02  0.00000000000E+00 0.  1.
<mgrwt>
<rscale>  0 0.20432371E+04</rscale>
<asrwt>0</asrwt>
<pdfrwt beam="1">  1        2 0.18683161E+00 0.20432371E+04</pdfrwt>
<pdfrwt beam="2">  1       -2 0.13222101E+00 0.20432371E+04</pdfrwt>
<totfact> 0.71529415E+00</totfact>
</mgrwt>
</event>
<event>
12    1  0.1114484E-007  0.2265751E+04  0.7818608E-02  0.8491549E-01
          1   -1    0    0  501    0  0.00000000000E+00  0.00000000000E+00  0.85246181571E+03  0.85246181571E+03  0.00000000000E+00 0. -1.
         -1   -1    0    0    0  501 -0.00000000000E+00 -0.00000000000E+00 -0.15055295888E+04  0.15055295888E+04  0.00000000000E+00 0.  1.
         23    2    1    2    0    0  0.27765843997E+03 -0.89981589901E+03 -0.15495902088E+03  0.95856048159E+03  0.89794417010E+02 0.  0.
        254    2    1    2    0    0 -0.27765843997E+03  0.89981589901E+03 -0.49810875222E+03  0.13994309229E+04  0.90748648344E+03 0.  0.
        -24    2    4    4    0    0  0.14245419568E+03 -0.87650167378E+02 -0.21950007807E+03  0.28723991398E+03  0.79691493916E+02 0.  0.
         24    2    4    4    0    0 -0.42011263565E+03  0.98746606638E+03 -0.27860867415E+03  0.11121910089E+04  0.88103281340E+02 0.  0.
         11    1    3    3    0    0  0.99383998415E+02 -0.29505650064E+03 -0.93939556577E+01  0.31148637869E+03  0.00000000000E+00 0.  1.
        -11    1    3    3    0    0  0.17827444155E+03 -0.60475939837E+03 -0.14556506522E+03  0.64707410289E+03  0.00000000000E+00 0. -1.
          2    1    6    6  502    0 -0.30101252081E+03  0.59853330001E+03 -0.17521000174E+03  0.69249490512E+03  0.00000000000E+00 0. -1.
          3    1    5    5  503    0  0.15158669503E+03 -0.88929499377E+02 -0.21184499107E+03  0.27525494040E+03  0.00000000000E+00 0. -1.
         -4    1    5    5    0  503 -0.91324993548E+01  0.12793319987E+01 -0.76550869956E+01  0.11984973581E+02  0.00000000000E+00 0.  1.
         -1    1    6    6    0  502 -0.11910011484E+03  0.38893276638E+03 -0.10339867242E+03  0.41969610383E+03  0.00000000000E+00 0.  1.
<mgrwt>
<rscale>  0 0.22657506E+04</rscale>
<asrwt>0</asrwt>
<pdfrwt beam="1">  1        1 0.13114797E+00 0.22657506E+04</pdfrwt>
<pdfrwt beam="2">  1       -1 0.23161993E+00 0.22657506E+04</pdfrwt>
<totfact> 0.16638264E+00</totfact>
</mgrwt>
</event>
<event>
12    1  0.1114484E-007  0.2252253E+04  0.7818608E-02  0.8496989E-01
         -2   -1    0    0    0  501 -0.00000000000E+00  0.00000000000E+00  0.16964399798E+04  0.16964399798E+04  0.00000000000E+00 0.  1.
          2   -1    0    0  501    0  0.00000000000E+00 -0.00000000000E+00 -0.74754253262E+03  0.74754253262E+03  0.00000000000E+00 0. -1.
         23    2    1    2    0    0  0.76422299035E+03  0.25938290120E+03  0.93217953539E+03  0.12363189874E+04  0.90607306733E+02 0.  0.
        254    2    1    2    0    0 -0.76422299035E+03 -0.25938290120E+03  0.16717911817E+02  0.12076635250E+04  0.89825131933E+03 0.  0.
        -24    2    4    4    0    0 -0.63611602797E+03 -0.20112597025E+03 -0.38515347459E+03  0.77438239241E+03  0.78928028827E+02 0.  0.
         24    2    4    4    0    0 -0.12810696238E+03 -0.58256930951E+02  0.40187138640E+03  0.43328113262E+03  0.80166482146E+02 0.  0.
         11    1    3    3    0    0  0.29641279184E+03  0.97843961271E+02  0.29476512014E+03  0.42932558738E+03  0.00000000000E+00 0.  1.
        -11    1    3    3    0    0  0.46781019851E+03  0.16153893993E+03  0.63741441525E+03  0.80699340004E+03  0.00000000000E+00 0. -1.
          4    1    6    6  502    0 -0.52519112680E+02  0.16117957681E+02  0.11530337963E+03  0.12772202281E+03  0.00000000000E+00 0. -1.
          3    1    5    5  503    0 -0.28282032013E+03 -0.12565081389E+03 -0.19946562285E+03  0.36818744575E+03  0.00000000000E+00 0. -1.
         -4    1    5    5    0  503 -0.35329570784E+03 -0.75475156355E+02 -0.18568785174E+03  0.40619494666E+03  0.00000000000E+00 0.  1.
         -3    1    6    6    0  502 -0.75587849701E+02 -0.74374888632E+02  0.28656800677E+03  0.30555910981E+03  0.00000000000E+00 0.  1.
<mgrwt>
<rscale>  0 0.22522531E+04</rscale>
<asrwt>0</asrwt>
<pdfrwt beam="1">  1        2 0.11500654E+00 0.22522531E+04</pdfrwt>
<pdfrwt beam="2">  1       -2 0.26099077E+00 0.22522531E+04</pdfrwt>
<totfact> 0.18856960E+00</totfact>
</mgrwt>
</event>
<event>
12    1  0.1114484E-007  0.1435513E+04  0.7818608E-02  0.8928506E-01
          1   -1    0    0  501    0  0.00000000000E+00  0.00000000000E+00  0.96606298531E+03  0.96606298531E+03  0.00000000000E+00 0. -1.
         -1   -1    0    0    0  501 -0.00000000000E+00 -0.00000000000E+00 -0.53327198025E+03  0.53327198025E+03  0.00000000000E+00 0.  1.
         23    2    1    2    0    0  0.13665734203E+03 -0.26912320341E+03 -0.18672313569E+03  0.36511741727E+03  0.85689388181E+02 0.  0.
        254    2    1    2    0    0 -0.13665734203E+03  0.26912320341E+03  0.61951414075E+03  0.11342175483E+04  0.90086022694E+03 0.  0.
        -24    2    4    4    0    0  0.43131922673E+02 -0.24076605446E+02  0.75148317516E+03  0.75731367175E+03  0.79730729280E+02 0.  0.
         24    2    4    4    0    0 -0.17978926471E+03  0.29319980885E+03 -0.13196903440E+03  0.37690387653E+03  0.79689387543E+02 0.  0.
         13    1    3    3    0    0  0.14263951021E+03 -0.21556086246E+03 -0.14098665570E+03  0.29443123541E+03  0.00000000000E+00 0.  1.
        -13    1    3    3    0    0 -0.59821681810E+01 -0.53562340948E+02 -0.45736479996E+02  0.70686181863E+02  0.00000000000E+00 0. -1.
          2    1    6    6  502    0  0.58808318427E+01  0.15894731561E+02 -0.16807907185E+02  0.23869068237E+02  0.00000000000E+00 0. -1.
          3    1    5    5  503    0  0.52217544251E+01 -0.39477813251E+02  0.17928389218E+03  0.18365314714E+03  0.00000000000E+00 0. -1.
         -4    1    5    5    0  503  0.37910168248E+02  0.15401207806E+02  0.57219928298E+03  0.57366052461E+03  0.00000000000E+00 0.  1.
         -1    1    6    6    0  502 -0.18567009655E+03  0.27730507729E+03 -0.11516112722E+03  0.35303480829E+03  0.00000000000E+00 0.  1.
<mgrwt>
<rscale>  0 0.14355129E+04</rscale>
<asrwt>0</asrwt>
<pdfrwt beam="1">  1        1 0.14862507E+00 0.14355129E+04</pdfrwt>
<pdfrwt beam="2">  1       -1 0.82041843E-01 0.14355129E+04</pdfrwt>
<totfact> 0.23133177E+01</totfact>
</mgrwt>
</event>
<event>
12    1  0.1114484E-007  0.1285380E+04  0.7818608E-02  0.9041240E-01
         -1   -1    0    0    0  501 -0.00000000000E+00  0.00000000000E+00  0.34719945330E+03  0.34719945330E+03  0.00000000000E+00 0.  1.
          1   -1    0    0  501    0  0.00000000000E+00 -0.00000000000E+00 -0.11896630143E+04  0.11896630143E+04  0.00000000000E+00 0. -1.
         23    2    1    2    0    0 -0.24018902370E+03  0.16428044220E+03 -0.67002829511E+02  0.31297932706E+03  0.93743528871E+02 0.  0.
        254    2    1    2    0    0  0.24018902370E+03 -0.16428044220E+03 -0.77546073149E+03  0.12238831405E+04  0.90103926931E+03 0.  0.
        -24    2    4    4    0    0  0.53663264038E+03 -0.18324148927E+03 -0.27202714524E+03  0.63399512141E+03  0.79993825463E+02 0.  0.
         24    2    4    4    0    0 -0.29644361668E+03  0.18961047069E+02 -0.50343358625E+03  0.58988801914E+03  0.79272695076E+02 0.  0.
         13    1    3    3    0    0 -0.21873622803E+03  0.15549820282E+03 -0.31000448697E+02  0.27015968676E+03  0.00000000000E+00 0.  1.
        -13    1    3    3    0    0 -0.21452795675E+02  0.87822393872E+01 -0.36002380814E+02  0.42819640297E+02  0.00000000000E+00 0. -1.
          4    1    6    6  502    0 -0.30700729817E+02 -0.22536353347E+02 -0.72830134164E+02  0.82186680647E+02  0.00000000000E+00 0. -1.
          1    1    5    5  503    0  0.15803778605E+03 -0.16970225311E+02 -0.67597938946E+02  0.17272351234E+03  0.00000000000E+00 0. -1.
         -2    1    5    5    0  503  0.37859485433E+03 -0.16627126396E+03 -0.20442920629E+03  0.46127160907E+03  0.00000000000E+00 0.  1.
         -3    1    6    6    0  502 -0.26574288686E+03  0.41497400416E+02 -0.43060345208E+03  0.50770133849E+03  0.00000000000E+00 0.  1.
<mgrwt>
<rscale>  0 0.12853799E+04</rscale>
<asrwt>0</asrwt>
<pdfrwt beam="1">  1        1 0.18302508E+00 0.12853799E+04</pdfrwt>
<pdfrwt beam="2">  1       -1 0.53415301E-01 0.12853799E+04</pdfrwt>
<totfact> 0.37810692E+01</totfact>
</mgrwt>
</event>
<event>
12    1  0.1114484E-007  0.1789382E+04  0.7818608E-02  0.8711967E-01
         -1   -1    0    0    0  501 -0.00000000000E+00  0.00000000000E+00  0.57499092411E+03  0.57499092411E+03  0.00000000000E+00 0.  1.
          1   -1    0    0  501    0  0.00000000000E+00 -0.00000000000E+00 -0.13921470270E+04  0.13921470270E+04  0.00000000000E+00 0. -1.
         23    2    1    2    0    0 -0.27723835684E+03 -0.60403244143E+03 -0.33432732966E+03  0.74957575263E+03  0.91502725503E+02 0.  0.
        254    2    1    2    0    0  0.27723835684E+03  0.60403244143E+03 -0.48282877325E+03  0.12175621985E+04  0.89867557334E+03 0.  0.
        -24    2    4    4    0    0  0.30348376206E+03 -0.35421304145E+02 -0.47706255168E+03  0.57217503431E+03  0.80240445208E+02 0.  0.
         24    2    4    4    0    0 -0.26245405221E+02  0.63945374557E+03 -0.57662215628E+01  0.64538716418E+03  0.83074835880E+02 0.  0.
         11    1    3    3    0    0 -0.24263934514E+03 -0.44365434133E+03 -0.27099800793E+03  0.57370981053E+03  0.00000000000E+00 0.  1.
        -11    1    3    3    0    0 -0.34599011695E+02 -0.16037810009E+03 -0.63329321722E+02  0.17586594210E+03  0.00000000000E+00 0. -1.
          4    1    6    6  502    0 -0.42944744293E+02  0.51069591713E+03 -0.29721692501E+02  0.51335947429E+03  0.00000000000E+00 0. -1.
          3    1    5    5  503    0  0.81331575363E+02 -0.13640697903E+02 -0.71073955024E+02  0.10886873230E+03  0.00000000000E+00 0. -1.
         -4    1    5    5    0  503  0.22215218669E+03 -0.21780606243E+02 -0.40598859666E+03  0.46330630201E+03  0.00000000000E+00 0.  1.
         -3    1    6    6    0  502  0.16699339073E+02  0.12875782844E+03  0.23955470938E+02  0.13202768989E+03  0.00000000000E+00 0.  1.
<mgrwt>
<rscale>  0 0.17893819E+04</rscale>
<asrwt>0</asrwt>
<pdfrwt beam="1">  1        1 0.21417646E+00 0.17893819E+04</pdfrwt>
<pdfrwt beam="2">  1       -1 0.88460143E-01 0.17893819E+04</pdfrwt>
<totfact> 0.92215036E+00</totfact>
</mgrwt>
</event>
<event>
12    1  0.1114484E-007  0.1597186E+04  0.7818608E-02  0.8822278E-01
         -2   -1    0    0    0  501 -0.00000000000E+00  0.00000000000E+00  0.44930983186E+03  0.44930983186E+03  0.00000000000E+00 0.  1.
          2   -1    0    0  501    0  0.00000000000E+00 -0.00000000000E+00 -0.14194013740E+04  0.14194013740E+04  0.00000000000E+00 0. -1.
         23    2    1    2    0    0  0.23520447129E+03  0.45163886267E+03 -0.53040619693E+03  0.74089148723E+03  0.91053042326E+02 0.  0.
        254    2    1    2    0    0 -0.23520447129E+03 -0.45163886267E+03 -0.43968534522E+03  0.11278197186E+04  0.90518247297E+03 0.  0.
        -24    2    4    4    0    0 -0.38604322690E+03  0.12856990801E+03 -0.75672230955E+02  0.42197096793E+03  0.82301986336E+02 0.  0.
         24    2    4    4    0    0  0.15083875562E+03 -0.58020877068E+03 -0.36401311427E+03  0.70584875072E+03  0.79513292938E+02 0.  0.
         13    1    3    3    0    0  0.10190707658E+03  0.27624062132E+03 -0.26666104230E+03  0.39724305482E+03  0.00000000000E+00 0. -1.
        -13    1    3    3    0    0  0.13329739471E+03  0.17539824136E+03 -0.26374515463E+03  0.34364843241E+03  0.00000000000E+00 0.  1.
          4    1    6    6  502    0  0.13058606429E+03 -0.49019044055E+03 -0.27227961144E+03  0.57573915535E+03  0.00000000000E+00 0. -1.
          3    1    5    5  503    0 -0.34319911222E+03  0.11500132805E+03 -0.39159077837E+02  0.36406643550E+03  0.00000000000E+00 0. -1.
         -4    1    5    5    0  503 -0.42844114682E+02  0.13568579963E+02 -0.36513153119E+02  0.57904532428E+02  0.00000000000E+00 0.  1.
         -3    1    6    6    0  502  0.20252691329E+02 -0.90018330133E+02 -0.91733502829E+02  0.13010959537E+03  0.00000000000E+00 0.  1.
<mgrwt>
<rscale>  0 0.15971863E+04</rscale>
<asrwt>0</asrwt>
<pdfrwt beam="1">  1        2 0.21836944E+00 0.15971863E+04</pdfrwt>
<pdfrwt beam="2">  1       -2 0.69124589E-01 0.15971863E+04</pdfrwt>
<totfact> 0.25849028E+01</totfact>
</mgrwt>
</event>
<event>
12    1  0.1114484E-007  0.2060195E+04  0.7818608E-02  0.8578983E-01
          2   -1    0    0  501    0  0.00000000000E+00  0.00000000000E+00  0.26474842904E+04  0.26474842904E+04  0.00000000000E+00 0. -1.
         -2   -1    0    0    0  501 -0.00000000000E+00 -0.00000000000E+00 -0.40079598248E+03  0.40079598248E+03  0.00000000000E+00 0.  1.
         23    2    1    2    0    0 -0.47076561581E+03 -0.66424959622E+03  0.67679905462E+03  0.10629022073E+04  0.94108187166E+02 0.  0.
        254    2    1    2    0    0  0.47076561581E+03  0.66424959622E+03  0.15698892533E+04  0.19853780656E+04  0.90240013546E+03 0.  0.
        -24    2    4    4    0    0  0.97136658992E+02  0.79323008627E+03  0.11593821188E+04  0.14100516693E+04  0.73683867777E+02 0.  0.
         24    2    4    4    0    0  0.37362895682E+03 -0.12898049006E+03  0.41050713455E+03  0.57532639632E+03  0.79055617115E+02 0.  0.
         11    1    3    3    0    0 -0.21319780652E+03 -0.36826991552E+03  0.38611979587E+03  0.57459945365E+03  0.00000000000E+00 0.  1.
        -11    1    3    3    0    0 -0.25756780929E+03 -0.29597968070E+03  0.29067925875E+03  0.48830275367E+03  0.00000000000E+00 0. -1.
          2    1    6    6  502    0  0.36917995899E+03 -0.12654467381E+03  0.38107019620E+03  0.54545567283E+03  0.00000000000E+00 0. -1.
          3    1    5    5  503    0  0.29310945383E+02  0.46767418033E+03  0.63665807778E+03  0.79051361688E+03  0.00000000000E+00 0. -1.
         -4    1    5    5    0  503  0.67825713609E+02  0.32555590594E+03  0.52272404099E+03  0.61953805238E+03  0.00000000000E+00 0.  1.
         -1    1    6    6    0  502  0.44489978285E+01 -0.24358162484E+01  0.29436938350E+02  0.29870723491E+02  0.00000000000E+00 0.  1.
<mgrwt>
<rscale>  0 0.20601952E+04</rscale>
<asrwt>0</asrwt>
<pdfrwt beam="1">  1        2 0.40730526E+00 0.20601952E+04</pdfrwt>
<pdfrwt beam="2">  1       -2 0.61660922E-01 0.20601952E+04</pdfrwt>
<totfact> 0.64521233E+00</totfact>
</mgrwt>
</event>
<event>
12    1  0.1137979E-007  0.2359209E+04  0.7818608E-02  0.8454935E-01
         -1   -1    0    0    0  501 -0.00000000000E+00  0.00000000000E+00  0.72226817036E+03  0.72226817036E+03  0.00000000000E+00 0.  1.
          1   -1    0    0  501    0  0.00000000000E+00 -0.00000000000E+00 -0.19265229238E+04  0.19265229238E+04  0.00000000000E+00 0. -1.
         23    2    1    2    0    0  0.21102910249E+03 -0.53970062435E+03  0.40664146573E+03  0.71376382312E+03  0.91057495716E+02 0.  0.
        254    2    1    2    0    0 -0.21102910249E+03  0.53970062435E+03 -0.16108962191E+04  0.19350272710E+04  0.90196112149E+03 0.  0.
        -24    2    4    4    0    0 -0.62079720946E+02  0.52502705996E+03 -0.16716378210E+04  0.17550282303E+04  0.79017586455E+02 0.  0.
         24    2    4    4    0    0 -0.14894938155E+03  0.14673564387E+02  0.60741601875E+02  0.17999904073E+03  0.79428462847E+02 0.  0.
         11    1    3    3    0    0  0.18445765704E+03 -0.51363970116E+03  0.39824384776E+03  0.67560974839E+03  0.00000000000E+00 0.  1.
        -11    1    3    3    0    0  0.26571445452E+02 -0.26060923191E+02  0.83976179758E+01  0.38154074731E+02  0.00000000000E+00 0. -1.
          2    1    6    6  502    0 -0.14986049623E+03  0.55156177420E+00  0.67446555331E+02  0.16433961901E+03  0.00000000000E+00 0. -1.
          3    1    5    5  503    0 -0.55404925837E+02  0.52104478892E+03 -0.16620271193E+04  0.17426679325E+04  0.00000000000E+00 0. -1.
         -4    1    5    5    0  503 -0.66747951085E+01  0.39822710393E+01 -0.96107017440E+01  0.12360297747E+02  0.00000000000E+00 0.  1.
         -1    1    6    6    0  502  0.91111468117E+00  0.14122002613E+02 -0.67049534563E+01  0.15659421720E+02  0.00000000000E+00 0.  1.
<mgrwt>
<rscale>  0 0.23592085E+04</rscale>
<asrwt>0</asrwt>
<pdfrwt beam="1">  1        1 0.29638814E+00 0.23592085E+04</pdfrwt>
<pdfrwt beam="2">  1       -1 0.11111818E+00 0.23592085E+04</pdfrwt>
<totfact> 0.22393474E+00</totfact>
</mgrwt>
</event>
<event>
12    1  0.1114484E-007  0.2097922E+04  0.7818608E-02  0.8562159E-01
          2   -1    0    0  501    0  0.00000000000E+00  0.00000000000E+00  0.62994601468E+03  0.62994601468E+03  0.00000000000E+00 0. -1.
         -2   -1    0    0    0  501 -0.00000000000E+00 -0.00000000000E+00 -0.17466888342E+04  0.17466888342E+04  0.00000000000E+00 0.  1.
         23    2    1    2    0    0  0.55441442009E+03  0.94564642131E+01  0.26435961926E+03  0.62111593934E+03  0.91838052520E+02 0.  0.
        254    2    1    2    0    0 -0.55441442009E+03 -0.94564642131E+01 -0.13811024387E+04  0.17555189095E+04  0.93109501203E+03 0.  0.
        -24    2    4    4    0    0  0.12169522797E+03  0.27135957876E+03 -0.21315177798E+03  0.37474890122E+03  0.80977212921E+02 0.  0.
         24    2    4    4    0    0 -0.67610964806E+03 -0.28081604297E+03 -0.11679506608E+04  0.13807700083E+04  0.80219471692E+02 0.  0.
         11    1    3    3    0    0  0.65315885241E+02  0.24899535135E+02  0.13400860992E+02  0.71173975512E+02  0.00000000000E+00 0.  1.
        -11    1    3    3    0    0  0.48909853484E+03 -0.15443070922E+02  0.25095875826E+03  0.54994196382E+03  0.00000000000E+00 0. -1.
          2    1    6    6  502    0 -0.47103818092E+03 -0.17825535050E+03 -0.73751493073E+03  0.89307346334E+03  0.00000000000E+00 0. -1.
          3    1    5    5  503    0  0.55425149848E+02  0.20587075815E+03 -0.16673705528E+03  0.27065838598E+03  0.00000000000E+00 0. -1.
         -4    1    5    5    0  503  0.66270078124E+02  0.65488820607E+02 -0.46414722696E+02  0.10409051524E+03  0.00000000000E+00 0.  1.
         -1    1    6    6    0  502 -0.20507146714E+03 -0.10256069247E+03 -0.43043573002E+03  0.48769654494E+03  0.00000000000E+00 0.  1.
<mgrwt>
<rscale>  0 0.20979225E+04</rscale>
<asrwt>0</asrwt>
<pdfrwt beam="1">  1        2 0.96914772E-01 0.20979225E+04</pdfrwt>
<pdfrwt beam="2">  1       -2 0.26872136E+00 0.20979225E+04</pdfrwt>
<totfact> 0.21258652E+00</totfact>
</mgrwt>
</event>
<event>
12    1  0.1114484E-007  0.1868878E+04  0.7818608E-02  0.8670505E-01
         -1   -1    0    0    0  501 -0.00000000000E+00  0.00000000000E+00  0.11145902688E+04  0.11145902688E+04  0.00000000000E+00 0.  1.
          1   -1    0    0  501    0  0.00000000000E+00 -0.00000000000E+00 -0.78340593668E+03  0.78340593668E+03  0.00000000000E+00 0. -1.
         23    2    1    2    0    0 -0.42132215190E+03  0.30096622011E+03 -0.36507509454E+03  0.63984011363E+03  0.89568549344E+02 0.  0.
        254    2    1    2    0    0  0.42132215190E+03 -0.30096622011E+03  0.69625942664E+03  0.12581560918E+04  0.91109085217E+03 0.  0.
        -24    2    4    4    0    0 -0.18949207890E+03  0.10653937495E+03  0.40021091326E+03  0.46240000874E+03  0.79919375694E+02 0.  0.
         24    2    4    4    0    0  0.61081423080E+03 -0.40750559507E+03  0.29604851338E+03  0.79575608309E+03  0.80175974899E+02 0.  0.
         11    1    3    3    0    0 -0.17508509137E+03  0.16066143475E+03 -0.20808872986E+03  0.31586042064E+03  0.00000000000E+00 0.  1.
        -11    1    3    3    0    0 -0.24623706052E+03  0.14030478537E+03 -0.15698636468E+03  0.32397969299E+03  0.00000000000E+00 0. -1.
          4    1    6    6  502    0  0.55077471811E+03 -0.38916502450E+03  0.28440371208E+03  0.73190687785E+03  0.00000000000E+00 0. -1.
          1    1    5    5  503    0 -0.38872832390E+02  0.61402579588E+02  0.15364207906E+03  0.16996253215E+03  0.00000000000E+00 0. -1.
         -2    1    5    5    0  503 -0.15061924651E+03  0.45136795364E+02  0.24656883420E+03  0.29243747659E+03  0.00000000000E+00 0.  1.
         -3    1    6    6    0  502  0.60039512690E+02 -0.18340570563E+02  0.11644801301E+02  0.63849205241E+02  0.00000000000E+00 0.  1.
<mgrwt>
<rscale>  0 0.18688784E+04</rscale>
<asrwt>0</asrwt>
<pdfrwt beam="1">  1        1 0.12052399E+00 0.18688784E+04</pdfrwt>
<pdfrwt beam="2">  1       -1 0.17147543E+00 0.18688784E+04</pdfrwt>
<totfact> 0.51475477E+00</totfact>
</mgrwt>
</event>
<event>
12    1  0.1114484E-007  0.2886871E+04  0.7818608E-02  0.8276794E-01
          2   -1    0    0  501    0  0.00000000000E+00  0.00000000000E+00  0.93597541978E+03  0.93597541978E+03  0.00000000000E+00 0. -1.
         -2   -1    0    0    0  501 -0.00000000000E+00 -0.00000000000E+00 -0.22260270248E+04  0.22260270248E+04  0.00000000000E+00 0.  1.
         23    2    1    2    0    0 -0.63437982143E+03  0.28914840375E+03  0.62009089085E+03  0.93738589009E+03  0.90194438780E+02 0.  0.
        254    2    1    2    0    0  0.63437982143E+03 -0.28914840375E+03 -0.19101424959E+04  0.22246165545E+04  0.90234688606E+03 0.  0.
        -24    2    4    4    0    0  0.39359937326E+02 -0.48987475877E+03 -0.98077083302E+03  0.11003337080E+04  0.85418722635E+02 0.  0.
         24    2    4    4    0    0  0.59501988411E+03  0.20072635502E+03 -0.92937166289E+03  0.11242828465E+04  0.77074633136E+02 0.  0.
         13    1    3    3    0    0 -0.19307280728E+03  0.85288425147E+02  0.24497916844E+03  0.32336669177E+03  0.00000000000E+00 0.  1.
        -13    1    3    3    0    0 -0.44130701415E+03  0.20385997860E+03  0.37511172241E+03  0.61401919832E+03  0.00000000000E+00 0. -1.
          4    1    6    6  502    0  0.40558642055E+03  0.13052307480E+03 -0.69120913548E+03  0.81197702341E+03  0.00000000000E+00 0. -1.
          3    1    5    5  503    0  0.13214631448E+02 -0.45508588445E+03 -0.89202397043E+03  0.10014911645E+04  0.00000000000E+00 0. -1.
         -4    1    5    5    0  503  0.26145305877E+02 -0.34788874327E+02 -0.88746862585E+02  0.98842543548E+02  0.00000000000E+00 0.  1.
         -3    1    6    6    0  502  0.18943346356E+03  0.70203280227E+02 -0.23816252741E+03  0.31230582309E+03  0.00000000000E+00 0.  1.
<mgrwt>
<rscale>  0 0.28868714E+04</rscale>
<asrwt>0</asrwt>
<pdfrwt beam="1">  1        2 0.14399622E+00 0.28868714E+04</pdfrwt>
<pdfrwt beam="2">  1       -2 0.34246569E+00 0.28868714E+04</pdfrwt>
<totfact> 0.41578007E-01</totfact>
</mgrwt>
</event>
<event>
12    1  0.1114484E-007  0.3316543E+04  0.7818608E-02  0.8158699E-01
          2   -1    0    0  501    0  0.00000000000E+00  0.00000000000E+00  0.21496973467E+04  0.21496973467E+04  0.00000000000E+00 0. -1.
         -2   -1    0    0    0  501 -0.00000000000E+00 -0.00000000000E+00 -0.12791865903E+04  0.12791865903E+04  0.00000000000E+00 0.  1.
         23    2    1    2    0    0  0.17415468221E+03 -0.68496160686E+03  0.18128400223E+04  0.19477382467E+04  0.88278394968E+02 0.  0.
        254    2    1    2    0    0 -0.17415468221E+03  0.68496160686E+03 -0.94232926590E+03  0.14811456903E+04  0.89794535156E+03 0.  0.
        -24    2    4    4    0    0  0.24177550263E+03  0.22194814678E+02 -0.42726908651E+01  0.25691133882E+03  0.83887881453E+02 0.  0.
         24    2    4    4    0    0 -0.41593018485E+03  0.66276679219E+03 -0.93805657503E+03  0.12242343515E+04  0.80881827098E+02 0.  0.
         13    1    3    3    0    0  0.85741175531E+02 -0.45714803888E+03  0.11048455189E+04  0.11987574814E+04  0.00000000000E+00 0. -1.
        -13    1    3    3    0    0  0.88413506684E+02 -0.22781356798E+03  0.70799450338E+03  0.74898076527E+03  0.00000000000E+00 0.  1.
          2    1    6    6  502    0 -0.16734022556E+03  0.33992475138E+03 -0.43522176464E+03  0.57703515674E+03  0.00000000000E+00 0. -1.
          3    1    5    5  503    0  0.16301683363E+03 -0.24885918023E+02  0.22626119006E+01  0.16492093977E+03  0.00000000000E+00 0. -1.
         -4    1    5    5    0  503  0.78758669006E+02  0.47080732701E+02 -0.65353027657E+01  0.91990399050E+02  0.00000000000E+00 0.  1.
         -1    1    6    6    0  502 -0.24858995929E+03  0.32284204080E+03 -0.50283481039E+03  0.64719919477E+03  0.00000000000E+00 0.  1.
<mgrwt>
<rscale>  0 0.33165428E+04</rscale>
<asrwt>0</asrwt>
<pdfrwt beam="1">  1        2 0.33072267E+00 0.33165428E+04</pdfrwt>
<pdfrwt beam="2">  1       -2 0.19679794E+00 0.33165428E+04</pdfrwt>
<totfact> 0.64185681E-01</totfact>
</mgrwt>
</event>
<event>
12    1  0.1185011E-007  0.2934990E+04  0.7818608E-02  0.8262542E-01
          1   -1    0    0  501    0  0.00000000000E+00  0.00000000000E+00  0.17000149043E+04  0.17000149043E+04  0.00000000000E+00 0. -1.
         -1   -1    0    0    0  501 -0.00000000000E+00 -0.00000000000E+00 -0.12667781069E+04  0.12667781069E+04  0.00000000000E+00 0.  1.
         23    2    1    2    0    0  0.29990567987E+03 -0.11270763912E+04 -0.44507169727E+03  0.12515457882E+04  0.89629436680E+02 0.  0.
        254    2    1    2    0    0 -0.29990567987E+03  0.11270763912E+04  0.87830849461E+03  0.17152472230E+04  0.90022364774E+03 0.  0.
        -24    2    4    4    0    0 -0.30064892432E+01  0.75384322955E+03  0.96195843477E+03  0.12249457317E+04  0.82700432673E+02 0.  0.
         24    2    4    4    0    0 -0.29689919063E+03  0.37323316160E+03 -0.83649940164E+02  0.49030149133E+03  0.77111073094E+02 0.  0.
         11    1    3    3    0    0  0.54337145894E+02 -0.28796636718E+03 -0.14681061276E+03  0.32776593794E+03  0.00000000000E+00 0. -1.
        -11    1    3    3    0    0  0.24556853398E+03 -0.83911002397E+03 -0.29826108451E+03  0.92377985026E+03  0.00000000000E+00 0.  1.
          2    1    6    6  502    0 -0.27004099710E+03  0.33248653942E+03 -0.98063390387E+02  0.43941537018E+03  0.00000000000E+00 0. -1.
          3    1    5    5  503    0 -0.62346457608E+01  0.68537234784E+03  0.90835060887E+03  0.11379257246E+04  0.00000000000E+00 0. -1.
         -4    1    5    5    0  503  0.32281565175E+01  0.68470881716E+02  0.53607825905E+02  0.87020007100E+02  0.00000000000E+00 0.  1.
         -1    1    6    6    0  502 -0.26858193528E+02  0.40746622179E+02  0.14413450223E+02  0.50886121152E+02  0.00000000000E+00 0.  1.
<mgrwt>
<rscale>  0 0.29349901E+04</rscale>
<asrwt>0</asrwt>
<pdfrwt beam="1">  1        1 0.26154076E+00 0.29349901E+04</pdfrwt>
<pdfrwt beam="2">  1       -1 0.19488894E+00 0.29349901E+04</pdfrwt>
<totfact> 0.66611189E-01</totfact>
</mgrwt>
</event>
<event>
12    1  0.1114484E-007  0.1312027E+04  0.7818608E-02  0.9020082E-01
         -2   -1    0    0    0  501 -0.00000000000E+00  0.00000000000E+00  0.39911086228E+03  0.39911086228E+03  0.00000000000E+00 0.  1.
          2   -1    0    0  501    0  0.00000000000E+00 -0.00000000000E+00 -0.10782812584E+04  0.10782812584E+04  0.00000000000E+00 0. -1.
         23    2    1    2    0    0 -0.15983603537E+03  0.25249643117E+03 -0.35134576941E+03  0.47555201549E+03  0.11577505691E+03 0.  0.
        254    2    1    2    0    0  0.15983603537E+03 -0.25249643117E+03 -0.32782462675E+03  0.10018401052E+04  0.89828314278E+03 0.  0.
        -24    2    4    4    0    0 -0.29480176935E+02  0.19207238150E+03  0.19414040680E+03  0.28598835399E+03  0.79611308854E+02 0.  0.
         24    2    4    4    0    0  0.18931621230E+03 -0.44456881267E+03 -0.52196503355E+03  0.71585175124E+03  0.80710445865E+02 0.  0.
         13    1    3    3    0    0 -0.71087193487E+02  0.17895547698E+03 -0.28059084719E+03  0.34030820640E+03  0.00000000000E+00 0. -1.
        -13    1    3    3    0    0 -0.88748841883E+02  0.73540954190E+02 -0.70754922216E+02  0.13524380909E+03  0.00000000000E+00 0.  1.
          2    1    6    6  502    0  0.90232196891E+02 -0.29631650133E+03 -0.36050206081E+03  0.47529680639E+03  0.00000000000E+00 0. -1.
          3    1    5    5  503    0  0.17216046734E+02  0.13573274642E+03  0.12696290300E+03  0.18665301887E+03  0.00000000000E+00 0. -1.
         -4    1    5    5    0  503 -0.46696223669E+02  0.56339635079E+02  0.67177503803E+02  0.99335335118E+02  0.00000000000E+00 0.  1.
         -1    1    6    6    0  502  0.99084015414E+02 -0.14825231134E+03 -0.16146297274E+03  0.24055494485E+03  0.00000000000E+00 0.  1.
<mgrwt>
<rscale>  0 0.13120271E+04</rscale>
<asrwt>0</asrwt>
<pdfrwt beam="1">  1        2 0.16588942E+00 0.13120271E+04</pdfrwt>
<pdfrwt beam="2">  1       -2 0.61401671E-01 0.13120271E+04</pdfrwt>
<totfact> 0.54280560E+01</totfact>
</mgrwt>
</event>
<event>
12    1  0.1114484E-007  0.2394077E+04  0.7818608E-02  0.8441724E-01
         -2   -1    0    0    0  501 -0.00000000000E+00  0.00000000000E+00  0.43665975789E+03  0.43665975789E+03  0.00000000000E+00 0.  1.
          2   -1    0    0  501    0  0.00000000000E+00 -0.00000000000E+00 -0.32815059913E+04  0.32815059913E+04  0.00000000000E+00 0. -1.
         23    2    1    2    0    0 -0.78437325422E+03 -0.59979410969E+03 -0.16473210215E+04  0.19228216979E+04  0.92641017344E+02 0.  0.
        254    2    1    2    0    0  0.78437325422E+03  0.59979410969E+03 -0.11975252118E+04  0.17953440512E+04  0.90232990271E+03 0.  0.
        -24    2    4    4    0    0  0.96154825632E+03  0.38384290251E+03 -0.10168130658E+04  0.14532379622E+04  0.77982952556E+02 0.  0.
         24    2    4    4    0    0 -0.17717500209E+03  0.21595120717E+03 -0.18071214603E+03  0.34210608905E+03  0.79710671751E+02 0.  0.
         13    1    3    3    0    0 -0.65652777253E+03 -0.52468307993E+03 -0.14506739355E+04  0.16765368823E+04  0.00000000000E+00 0. -1.
        -13    1    3    3    0    0 -0.12784548170E+03 -0.75111029759E+02 -0.19664708603E+03  0.24628481566E+03  0.00000000000E+00 0.  1.
          2    1    6    6  502    0 -0.14689031629E+03  0.18714504923E+03 -0.11504056378E+03  0.26426192648E+03  0.00000000000E+00 0. -1.
          1    1    5    5  503    0  0.53172517233E+03  0.24066224955E+03 -0.61186492118E+03  0.84559367253E+03  0.00000000000E+00 0. -1.
         -2    1    5    5    0  503  0.42982308398E+03  0.14318065296E+03 -0.40494814463E+03  0.60764428965E+03  0.00000000000E+00 0.  1.
         -1    1    6    6    0  502 -0.30284685799E+02  0.28806157940E+02 -0.65671582255E+02  0.77844162562E+02  0.00000000000E+00 0.  1.
<mgrwt>
<rscale>  0 0.23940774E+04</rscale>
<asrwt>0</asrwt>
<pdfrwt beam="1">  1        2 0.50484708E+00 0.23940774E+04</pdfrwt>
<pdfrwt beam="2">  1       -2 0.67178424E-01 0.23940774E+04</pdfrwt>
<totfact> 0.20985487E+00</totfact>
</mgrwt>
</event>
<event>
12    1  0.1114484E-007  0.3815286E+04  0.7818608E-02  0.8042882E-01
         -2   -1    0    0    0  501 -0.00000000000E+00  0.00000000000E+00  0.12818357054E+04  0.12818357054E+04  0.00000000000E+00 0.  1.
          2   -1    0    0  501    0  0.00000000000E+00 -0.00000000000E+00 -0.28389769585E+04  0.28389769585E+04  0.00000000000E+00 0. -1.
         23    2    1    2    0    0  0.11678335583E+04 -0.11958693480E+04 -0.14599723127E+04  0.22211669513E+04  0.90137419361E+02 0.  0.
        254    2    1    2    0    0 -0.11678335583E+04  0.11958693480E+04 -0.97168940481E+02  0.18996457126E+04  0.89737022075E+03 0.  0.
        -24    2    4    4    0    0 -0.76492471554E+03  0.10472053261E+04 -0.40962993516E+03  0.13624426886E+04  0.81881502474E+02 0.  0.
         24    2    4    4    0    0 -0.40290884276E+03  0.14866402188E+03  0.31246099468E+03  0.53720302402E+03  0.80738397610E+02 0.  0.
         11    1    3    3    0    0  0.58089106993E+03 -0.65192506903E+03 -0.78950572881E+03  0.11771830897E+04  0.00000000000E+00 0.  1.
        -11    1    3    3    0    0  0.58694248836E+03 -0.54394427895E+03 -0.67046658389E+03  0.10439838616E+04  0.00000000000E+00 0. -1.
          4    1    6    6  502    0 -0.31256399220E+03  0.81923313583E+02  0.21159922679E+03  0.38624074268E+03  0.00000000000E+00 0. -1.
          1    1    5    5  503    0 -0.73716339610E+03  0.10245500454E+04 -0.38750674893E+03  0.13203310753E+04  0.00000000000E+00 0. -1.
         -2    1    5    5    0  503 -0.27761319441E+02  0.22655280722E+02 -0.22123186223E+02  0.42111613248E+02  0.00000000000E+00 0.  1.
         -3    1    6    6    0  502 -0.90344850561E+02  0.66740708300E+02  0.10086176788E+03  0.15096228134E+03  0.00000000000E+00 0.  1.
<mgrwt>
<rscale>  0 0.38152861E+04</rscale>
<asrwt>0</asrwt>
<pdfrwt beam="1">  1        2 0.43676568E+00 0.38152861E+04</pdfrwt>
<pdfrwt beam="2">  1       -2 0.19720550E+00 0.38152861E+04</pdfrwt>
<totfact> 0.24323470E-01</totfact>
</mgrwt>
</event>
<event>
12    1  0.1114484E-007  0.2072824E+04  0.7818608E-02  0.8573310E-01
         -2   -1    0    0    0  501 -0.00000000000E+00  0.00000000000E+00  0.85918227405E+03  0.85918227405E+03  0.00000000000E+00 0.  1.
          2   -1    0    0  501    0  0.00000000000E+00 -0.00000000000E+00 -0.12502001662E+04  0.12502001662E+04  0.00000000000E+00 0. -1.
         23    2    1    2    0    0 -0.79089200510E+03 -0.62094165014E+01 -0.46665332009E+03  0.92274737779E+03  0.90270047506E+02 0.  0.
        254    2    1    2    0    0  0.79089200510E+03  0.62094165014E+01  0.75635427946E+02  0.11866350625E+04  0.88138149113E+03 0.  0.
        -24    2    4    4    0    0  0.86457705670E+03 -0.24971827433E+03  0.26419376349E+02  0.90389579725E+03  0.80479347232E+02 0.  0.
         24    2    4    4    0    0 -0.73685051603E+02  0.25592769084E+03  0.49216051597E+02  0.28273926520E+03  0.81183758144E+02 0.  0.
         13    1    3    3    0    0 -0.76781482246E+03 -0.10938120992E+02 -0.43267067616E+03  0.88139841053E+03  0.00000000000E+00 0. -1.
        -13    1    3    3    0    0 -0.23077182645E+02  0.47287044901E+01 -0.33982643927E+02  0.41348967257E+02  0.00000000000E+00 0.  1.
          2    1    6    6  502    0 -0.62091554530E+02  0.10945133156E+03  0.51038446467E+02  0.13579351289E+03  0.00000000000E+00 0. -1.
          1    1    5    5  503    0  0.20243237352E+03 -0.29197323237E+02 -0.12518935935E+02  0.20490991507E+03  0.00000000000E+00 0. -1.
         -2    1    5    5    0  503  0.66214468318E+03 -0.22052095110E+03  0.38938312284E+02  0.69898588219E+03  0.00000000000E+00 0.  1.
         -1    1    6    6    0  502 -0.11593497073E+02  0.14647635927E+03 -0.18223948699E+01  0.14694575231E+03  0.00000000000E+00 0.  1.
<mgrwt>
<rscale>  0 0.20728240E+04</rscale>
<asrwt>0</asrwt>
<pdfrwt beam="1">  1        2 0.19233849E+00 0.20728240E+04</pdfrwt>
<pdfrwt beam="2">  1       -2 0.13218189E+00 0.20728240E+04</pdfrwt>
<totfact> 0.68003797E+00</totfact>
</mgrwt>
</event>
<event>
12    1  0.1114484E-007  0.1405310E+04  0.7818608E-02  0.8949983E-01
          2   -1    0    0  501    0  0.00000000000E+00  0.00000000000E+00  0.63150227660E+03  0.63150227660E+03  0.00000000000E+00 0. -1.
         -2   -1    0    0    0  501 -0.00000000000E+00 -0.00000000000E+00 -0.78182520847E+03  0.78182520847E+03  0.00000000000E+00 0.  1.
         23    2    1    2    0    0 -0.35067245897E+02 -0.16163157344E+03 -0.42011129419E+03  0.46055494304E+03  0.90900378338E+02 0.  0.
        254    2    1    2    0    0  0.35067245897E+02  0.16163157344E+03  0.26978836232E+03  0.95277254202E+03  0.89868530594E+03 0.  0.
        -24    2    4    4    0    0 -0.17904409867E+03  0.29470064285E+03 -0.20516093201E+03  0.40913741187E+03  0.79982220563E+02 0.  0.
         24    2    4    4    0    0  0.21411134456E+03 -0.13306906940E+03  0.47494929433E+03  0.54363513016E+03  0.80070453049E+02 0.  0.
         13    1    3    3    0    0  0.32037315944E+01 -0.69478680074E+02 -0.79510284822E+02  0.10563823301E+03  0.00000000000E+00 0. -1.
        -13    1    3    3    0    0 -0.38270977492E+02 -0.92152893369E+02 -0.34060100937E+03  0.35491671003E+03  0.00000000000E+00 0.  1.
          2    1    6    6  502    0  0.12857291784E+03 -0.36428823604E+02  0.27330421040E+03  0.30422564951E+03  0.00000000000E+00 0. -1.
          1    1    5    5  503    0 -0.83263655144E+02  0.15663872985E+03 -0.14991325452E+03  0.23225527300E+03  0.00000000000E+00 0. -1.
         -2    1    5    5    0  503 -0.95780443521E+02  0.13806191300E+03 -0.55247677489E+02  0.17688213887E+03  0.00000000000E+00 0.  1.
         -1    1    6    6    0  502  0.85538426718E+02 -0.96640245797E+02  0.20164508393E+03  0.23940948065E+03  0.00000000000E+00 0.  1.
<mgrwt>
<rscale>  0 0.14053105E+04</rscale>
<asrwt>0</asrwt>
<pdfrwt beam="1">  1        2 0.97154197E-01 0.14053105E+04</pdfrwt>
<pdfrwt beam="2">  1       -2 0.12028080E+00 0.14053105E+04</pdfrwt>
<totfact> 0.23927449E+01</totfact>
</mgrwt>
</event>
<event>
12    1  0.1114484E-007  0.1925528E+04  0.7818608E-02  0.8642253E-01
          2   -1    0    0  501    0  0.00000000000E+00  0.00000000000E+00  0.16010591881E+04  0.16010591881E+04  0.00000000000E+00 0.  1.
         -2   -1    0    0    0  501 -0.00000000000E+00 -0.00000000000E+00 -0.57893807016E+03  0.57893807016E+03  0.00000000000E+00 0. -1.
         23    2    1    2    0    0  0.44890426688E+03 -0.86080554223E+01  0.10728167872E+04  0.11664377257E+04  0.89732766929E+02 0.  0.
        254    2    1    2    0    0 -0.44890426688E+03  0.86080554223E+01 -0.50695669290E+02  0.10135595326E+04  0.90727269098E+03 0.  0.
        -24    2    4    4    0    0 -0.38650338967E+03 -0.36686409906E+03  0.17174432295E+03  0.56552157128E+03  0.79651727612E+02 0.  0.
         24    2    4    4    0    0 -0.62400877218E+02  0.37547215449E+03 -0.22243999224E+03  0.44803796132E+03  0.79907799146E+02 0.  0.
         13    1    3    3    0    0  0.64844229355E+02 -0.12472862249E+02  0.93230738221E+02  0.11424673703E+03  0.00000000000E+00 0. -1.
        -13    1    3    3    0    0  0.38406003753E+03  0.38648068272E+01  0.97958604902E+03  0.10521909886E+04  0.00000000000E+00 0.  1.
          4    1    6    6  502    0  0.16397665512E+02  0.63022526921E+02 -0.22921064098E+02  0.69036928619E+02  0.00000000000E+00 0. -1.
          3    1    5    5  503    0 -0.60440869663E+02 -0.24574827502E+02  0.10759155374E+02  0.66127001269E+02  0.00000000000E+00 0. -1.
         -4    1    5    5    0  503 -0.32606252000E+03 -0.34228927156E+03  0.16098516757E+03  0.49939457001E+03  0.00000000000E+00 0.  1.
         -3    1    6    6    0  502 -0.78798542730E+02  0.31244962757E+03 -0.19951892814E+03  0.37900103270E+03  0.00000000000E+00 0.  1.
<mgrwt>
<rscale>  0 0.19255276E+04</rscale>
<asrwt>0</asrwt>
<pdfrwt beam="1">  1        2 0.24631680E+00 0.19255276E+04</pdfrwt>
<pdfrwt beam="2">  1       -2 0.89067396E-01 0.19255276E+04</pdfrwt>
<totfact> 0.11267921E+01</totfact>
</mgrwt>
</event>
<event>
12    1  0.1114484E-007  0.1399042E+04  0.7818608E-02  0.8954512E-01
          3   -1    0    0  501    0  0.00000000000E+00  0.00000000000E+00  0.23293502444E+03  0.23293502444E+03  0.00000000000E+00 0. -1.
         -3   -1    0    0    0  501 -0.00000000000E+00 -0.00000000000E+00 -0.21007121698E+04  0.21007121698E+04  0.00000000000E+00 0.  1.
         23    2    1    2    0    0  0.76848346706E+02 -0.37265353352E+03 -0.33166557960E+03  0.51360742107E+03  0.94943150586E+02 0.  0.
        254    2    1    2    0    0 -0.76848346706E+02  0.37265353352E+03 -0.15361115658E+04  0.18200397732E+04  0.89896034899E+03 0.  0.
        -24    2    4    4    0    0 -0.53216989492E+02  0.74620562185E+02  0.98171188021E+02  0.15652995737E+03  0.80397569150E+02 0.  0.
         24    2    4    4    0    0 -0.23631357214E+02  0.29803297134E+03 -0.16342827538E+04  0.16635098158E+04  0.83682106502E+02 0.  0.
         13    1    3    3    0    0  0.48336555755E+02 -0.35336605075E+03 -0.31258378171E+03  0.47424952192E+03  0.00000000000E+00 0. -1.
        -13    1    3    3    0    0  0.28511790951E+02 -0.19287482768E+02 -0.19081797888E+02  0.39357899149E+02  0.00000000000E+00 0.  1.
          4    1    6    6  502    0 -0.46510507047E+02  0.26482862955E+03 -0.14668239491E+04  0.14912645399E+04  0.00000000000E+00 0. -1.
          1    1    5    5  503    0 -0.46495754734E+02  0.52734745359E+02  0.11016254689E+03  0.13068509981E+03  0.00000000000E+00 0. -1.
         -2    1    5    5    0  503 -0.67212347588E+01  0.21885816827E+02 -0.11991358864E+02  0.25844857559E+02  0.00000000000E+00 0.  1.
         -3    1    6    6    0  502  0.22879149833E+02  0.33204341792E+02 -0.16745880472E+03  0.17224527596E+03  0.00000000000E+00 0.  1.
<mgrwt>
<rscale>  0 0.13990417E+04</rscale>
<asrwt>0</asrwt>
<pdfrwt beam="1">  1        3 0.35836159E-01 0.13990417E+04</pdfrwt>
<pdfrwt beam="2">  1       -3 0.32318647E+00 0.13990417E+04</pdfrwt>
<totfact> 0.55890591E-01</totfact>
</mgrwt>
</event>
<event>
12    1  0.1114484E-007  0.3325838E+04  0.7818608E-02  0.8156352E-01
          2   -1    0    0  501    0  0.00000000000E+00  0.00000000000E+00  0.17991452324E+04  0.17991452324E+04  0.00000000000E+00 0. -1.
         -2   -1    0    0    0  501 -0.00000000000E+00 -0.00000000000E+00 -0.15370073389E+04  0.15370073389E+04  0.00000000000E+00 0.  1.
         23    2    1    2    0    0  0.15455813562E+03 -0.15304104160E+04  0.12140090423E+03  0.15458882744E+04  0.94805688857E+02 0.  0.
        254    2    1    2    0    0 -0.15455813562E+03  0.15304104160E+04  0.14073698926E+03  0.17902642969E+04  0.90509396969E+03 0.  0.
        -24    2    4    4    0    0 -0.16852060431E+03  0.58553739153E+03  0.48357652374E+03  0.78199883461E+03  0.80141699921E+02 0.  0.
         24    2    4    4    0    0  0.13962468693E+02  0.94487302448E+03 -0.34283953448E+03  0.10082654623E+04  0.77976362832E+02 0.  0.
         11    1    3    3    0    0  0.68545620102E+02 -0.92736933382E+03  0.34139724049E+02  0.93052560637E+03  0.00000000000E+00 0. -1.
        -11    1    3    3    0    0  0.86012515516E+02 -0.60304108219E+03  0.87261180180E+02  0.61536266802E+03  0.00000000000E+00 0.  1.
          4    1    6    6  502    0  0.35496131377E+02  0.21093193816E+03 -0.73821750818E+02  0.22627838777E+03  0.00000000000E+00 0. -1.
          1    1    5    5  503    0 -0.71624885773E+01  0.14366096626E+03  0.12367718522E+03  0.18969928997E+03  0.00000000000E+00 0. -1.
         -2    1    5    5    0  503 -0.16135811573E+03  0.44187642527E+03  0.35989933852E+03  0.59229954465E+03  0.00000000000E+00 0.  1.
         -3    1    6    6    0  502 -0.21533662684E+02  0.73394108632E+03 -0.26901778366E+03  0.78198707453E+03  0.00000000000E+00 0.  1.
<mgrwt>
<rscale>  0 0.33258379E+04</rscale>
<asrwt>0</asrwt>
<pdfrwt beam="1">  1        2 0.27679158E+00 0.33258379E+04</pdfrwt>
<pdfrwt beam="2">  1       -2 0.23646267E+00 0.33258379E+04</pdfrwt>
<totfact> 0.56100295E-01</totfact>
</mgrwt>
</event>
<event>
12    1  0.1114484E-007  0.2190328E+04  0.7818608E-02  0.8522465E-01
         -1   -1    0    0    0  501 -0.00000000000E+00  0.00000000000E+00  0.10010218113E+04  0.10010218113E+04  0.00000000000E+00 0.  1.
          1   -1    0    0  501    0  0.00000000000E+00 -0.00000000000E+00 -0.11981601504E+04  0.11981601504E+04  0.00000000000E+00 0. -1.
         23    2    1    2    0    0  0.74897708382E+03 -0.51478856379E+03 -0.11927941644E+03  0.92123874039E+03  0.92083115247E+02 0.  0.
        254    2    1    2    0    0 -0.74897708382E+03  0.51478856379E+03 -0.77858922681E+02  0.12779432213E+04  0.89504353387E+03 0.  0.
        -24    2    4    4    0    0  0.15836806215E+03  0.26845563059E+03  0.47124647818E+02  0.32538771553E+03  0.80669475513E+02 0.  0.
         24    2    4    4    0    0 -0.90734514597E+03  0.24633293320E+03 -0.12498357050E+03  0.95255550577E+03  0.88238148064E+02 0.  0.
         11    1    3    3    0    0  0.66776649166E+03 -0.43553866787E+03 -0.12788906385E+03  0.80744141041E+03  0.00000000000E+00 0. -1.
        -11    1    3    3    0    0  0.81210592162E+02 -0.79249895916E+02  0.86096474074E+01  0.11379732998E+03  0.00000000000E+00 0.  1.
          4    1    6    6  502    0 -0.87609032898E+03  0.21971111971E+03 -0.12142167928E+03  0.91134541467E+03  0.00000000000E+00 0. -1.
          3    1    5    5  503    0  0.14426090701E+03  0.19916481389E+03  0.11456947940E+02  0.24618914282E+03  0.00000000000E+00 0. -1.
         -4    1    5    5    0  503  0.14107155139E+02  0.69290816704E+02  0.35667699879E+02  0.79198572716E+02  0.00000000000E+00 0.  1.
         -3    1    6    6    0  502 -0.31254816997E+02  0.26621813484E+02 -0.35618912224E+01  0.41210091092E+02  0.00000000000E+00 0.  1.
<mgrwt>
<rscale>  0 0.21903282E+04</rscale>
<asrwt>0</asrwt>
<pdfrwt beam="1">  1        1 0.18433233E+00 0.21903282E+04</pdfrwt>
<pdfrwt beam="2">  1       -1 0.15400336E+00 0.21903282E+04</pdfrwt>
<totfact> 0.31771920E+00</totfact>
</mgrwt>
</event>
<event>
12    1  0.1165871E-007  0.1904949E+04  0.7818608E-02  0.8652397E-01
          2   -1    0    0  501    0  0.00000000000E+00  0.00000000000E+00  0.12486128760E+04  0.12486128760E+04  0.00000000000E+00 0. -1.
         -2   -1    0    0    0  501 -0.00000000000E+00 -0.00000000000E+00 -0.72657221631E+03  0.72657221631E+03  0.00000000000E+00 0.  1.
         23    2    1    2    0    0 -0.15248834742E+03  0.12666753471E+03  0.94083280668E+03  0.96571683012E+03  0.90251124071E+02 0.  0.
        254    2    1    2    0    0  0.15248834742E+03 -0.12666753471E+03 -0.41879214703E+03  0.10094682622E+04  0.89685113003E+03 0.  0.
        -24    2    4    4    0    0  0.23286833347E+03  0.17277661625E+03 -0.57797596104E+03  0.65223469435E+03  0.85290474910E+02 0.  0.
         24    2    4    4    0    0 -0.80379986056E+02 -0.29944415096E+03  0.15918381401E+03  0.35723356781E+03  0.78412968476E+02 0.  0.
         11    1    3    3    0    0 -0.92966725192E+02  0.19944625035E+02  0.44546509834E+03  0.45549945544E+03  0.00000000000E+00 0. -1.
        -11    1    3    3    0    0 -0.59521622223E+02  0.10672290968E+03  0.49536770834E+03  0.51021737468E+03  0.00000000000E+00 0.  1.
          4    1    6    6  502    0 -0.20874073609E+02 -0.15468073284E+02 -0.62907670167E+00  0.25988150716E+02  0.00000000000E+00 0. -1.
          3    1    5    5  503    0  0.14667969125E+02  0.94330628749E+01 -0.56720765204E+01  0.18338605331E+02  0.00000000000E+00 0. -1.
         -4    1    5    5    0  503  0.21820036435E+03  0.16334355337E+03 -0.57230388452E+03  0.63389608901E+03  0.00000000000E+00 0.  1.
         -3    1    6    6    0  502 -0.59505912448E+02 -0.28397607767E+03  0.15981289072E+03  0.33124541710E+03  0.00000000000E+00 0.  1.
<mgrwt>
<rscale>  0 0.19049487E+04</rscale>
<asrwt>0</asrwt>
<pdfrwt beam="1">  1        2 0.19209429E+00 0.19049487E+04</pdfrwt>
<pdfrwt beam="2">  1       -2 0.11178034E+00 0.19049487E+04</pdfrwt>
<totfact> 0.10485407E+01</totfact>
</mgrwt>
</event>
<event>
12    1  0.1114484E-007  0.2540768E+04  0.7818608E-02  0.8388604E-01
         -1   -1    0    0    0  501 -0.00000000000E+00  0.00000000000E+00  0.12549904017E+04  0.12549904017E+04  0.00000000000E+00 0.  1.
          1   -1    0    0  501    0  0.00000000000E+00 -0.00000000000E+00 -0.12859660127E+04  0.12859660127E+04  0.00000000000E+00 0. -1.
         23    2    1    2    0    0 -0.41418502011E+03  0.42451505186E+03  0.92388703027E+03  0.11016731610E+04  0.91401579534E+02 0.  0.
        254    2    1    2    0    0  0.41418502011E+03 -0.42451505186E+03 -0.95486264122E+03  0.14392832535E+04  0.89889452103E+03 0.  0.
        -24    2    4    4    0    0  0.66814185428E+03 -0.16518033408E+03 -0.50703103330E+03  0.85834861407E+03  0.77354989115E+02 0.  0.
         24    2    4    4    0    0 -0.25395683417E+03 -0.25933471778E+03 -0.44783160792E+03  0.58093463938E+03  0.71995393727E+02 0.  0.
         11    1    3    3    0    0 -0.65639693610E+02  0.33992978399E+02  0.82682150099E+02  0.11090730320E+03  0.00000000000E+00 0. -1.
        -11    1    3    3    0    0 -0.34854532650E+03  0.39052207346E+03  0.84120488017E+03  0.99076585776E+03  0.00000000000E+00 0.  1.
          4    1    6    6  502    0 -0.51528879234E+02 -0.23341989260E+02 -0.95827679017E+02  0.11127900936E+03  0.00000000000E+00 0. -1.
          3    1    5    5  503    0  0.19406775554E+03 -0.13079589444E+02 -0.13308769336E+03  0.23568136015E+03  0.00000000000E+00 0. -1.
         -4    1    5    5    0  503  0.47407409874E+03 -0.15210074464E+03 -0.37394333994E+03  0.62266725391E+03  0.00000000000E+00 0.  1.
         -3    1    6    6    0  502 -0.20242795493E+03 -0.23599272852E+03 -0.35200392890E+03  0.46965563003E+03  0.00000000000E+00 0.  1.
<mgrwt>
<rscale>  0 0.25407676E+04</rscale>
<asrwt>0</asrwt>
<pdfrwt beam="1">  1        1 0.19784093E+00 0.25407676E+04</pdfrwt>
<pdfrwt beam="2">  1       -1 0.19307545E+00 0.25407676E+04</pdfrwt>
<totfact> 0.13780660E+00</totfact>
</mgrwt>
</event>
<event>
12    1  0.1114484E-007  0.1484441E+04  0.7818608E-02  0.8894866E-01
         -2   -1    0    0    0  501 -0.00000000000E+00  0.00000000000E+00  0.33594283414E+03  0.33594283414E+03  0.00000000000E+00 0. -1.
          2   -1    0    0  501    0  0.00000000000E+00 -0.00000000000E+00 -0.16398365922E+04  0.16398365922E+04  0.00000000000E+00 0.  1.
         23    2    1    2    0    0  0.37557195981E+03  0.13595838476E+03 -0.10322820090E+03  0.42251447254E+03  0.91232881467E+02 0.  0.
        254    2    1    2    0    0 -0.37557195981E+03 -0.13595838476E+03 -0.12006655572E+04  0.15532649538E+04  0.90083031542E+03 0.  0.
        -24    2    4    4    0    0 -0.66320138595E+02 -0.25336882284E+03  0.32680007393E+02  0.27384478657E+03  0.72999062200E+02 0.  0.
         24    2    4    4    0    0 -0.30925182121E+03  0.11741043807E+03 -0.12333455646E+04  0.12794201673E+04  0.79704346145E+02 0.  0.
         11    1    3    3    0    0  0.32138978964E+03  0.79517278398E+02 -0.76177790968E+02  0.33973143847E+03  0.00000000000E+00 0. -1.
        -11    1    3    3    0    0  0.54182170169E+02  0.56441106365E+02 -0.27050409929E+02  0.82783034066E+02  0.00000000000E+00 0.  1.
          4    1    6    6  502    0 -0.61028808272E+02 -0.59620648165E+01 -0.17741713098E+03  0.18771494352E+03  0.00000000000E+00 0. -1.
          3    1    5    5  503    0 -0.11047202097E+02 -0.55168947352E+02 -0.22840033710E+02  0.60723311553E+02  0.00000000000E+00 0. -1.
         -4    1    5    5    0  503 -0.55272936498E+02 -0.19819987549E+03  0.55520041103E+02  0.21312147502E+03  0.00000000000E+00 0.  1.
         -3    1    6    6    0  502 -0.24822301294E+03  0.12337250289E+03 -0.10559284336E+04  0.10917052237E+04  0.00000000000E+00 0.  1.
<mgrwt>
<rscale>  0 0.14844411E+04</rscale>
<asrwt>0</asrwt>
<pdfrwt beam="1">  1        2 0.25228255E+00 0.14844411E+04</pdfrwt>
<pdfrwt beam="2">  1       -2 0.51683513E-01 0.14844411E+04</pdfrwt>
<totfact> 0.36230449E+01</totfact>
</mgrwt>
</event>
<event>
12    1  0.1114484E-007  0.1386319E+04  0.7818608E-02  0.8963782E-01
          2   -1    0    0  501    0  0.00000000000E+00  0.00000000000E+00  0.13632085022E+04  0.13632085022E+04  0.00000000000E+00 0. -1.
         -2   -1    0    0    0  501 -0.00000000000E+00 -0.00000000000E+00 -0.35245509160E+03  0.35245509160E+03  0.00000000000E+00 0.  1.
         23    2    1    2    0    0 -0.18781839985E+02 -0.14065182183E+03 -0.15549527615E+03  0.23140970683E+03  0.96104001037E+02 0.  0.
        254    2    1    2    0    0  0.18781839985E+02  0.14065182183E+03  0.11662486867E+04  0.14842538870E+04  0.90704901142E+03 0.  0.
        -24    2    4    4    0    0 -0.42321543927E+03  0.17551479780E+03  0.55385361666E+03  0.72398757603E+03  0.86529932811E+02 0.  0.
         24    2    4    4    0    0  0.44199727925E+03 -0.34862975966E+02  0.61239507008E+03  0.76026631093E+03  0.80000748207E+02 0.  0.
         11    1    3    3    0    0 -0.76959625149E+01 -0.59626528896E+02 -0.52506957716E+01  0.60349984203E+02  0.00000000000E+00 0. -1.
        -11    1    3    3    0    0 -0.11085877470E+02 -0.81025292936E+02 -0.15024458038E+03  0.17105972263E+03  0.00000000000E+00 0.  1.
          2    1    6    6  502    0  0.25276078873E+02 -0.15379745168E+02  0.69983321172E+02  0.75980799988E+02  0.00000000000E+00 0. -1.
          1    1    5    5  503    0 -0.12027173912E+03  0.25643421289E+02  0.19898146448E+03  0.23391558198E+03  0.00000000000E+00 0. -1.
         -2    1    5    5    0  503 -0.30294370015E+03  0.14987137651E+03  0.35487215218E+03  0.49007199404E+03  0.00000000000E+00 0.  1.
         -1    1    6    6    0  502  0.41672120038E+03 -0.19483230798E+02  0.54241174891E+03  0.68428551094E+03  0.00000000000E+00 0.  1.
<mgrwt>
<rscale>  0 0.13863185E+04</rscale>
<asrwt>0</asrwt>
<pdfrwt beam="1">  1        2 0.20972438E+00 0.13863185E+04</pdfrwt>
<pdfrwt beam="2">  1       -2 0.54223861E-01 0.13863185E+04</pdfrwt>
<totfact> 0.47389879E+01</totfact>
</mgrwt>
</event>
<event>
12    1  0.1114484E-007  0.2659298E+04  0.7818608E-02  0.8348334E-01
         -1   -1    0    0    0  501 -0.00000000000E+00  0.00000000000E+00  0.12746082678E+04  0.12746082678E+04  0.00000000000E+00 0.  1.
          1   -1    0    0  501    0  0.00000000000E+00 -0.00000000000E+00 -0.13870660613E+04  0.13870660613E+04  0.00000000000E+00 0. -1.
         23    2    1    2    0    0 -0.75934383609E+03 -0.67101091642E+03  0.54446763430E+03  0.11536752231E+04  0.87537444415E+02 0.  0.
        254    2    1    2    0    0  0.75934383609E+03  0.67101091642E+03 -0.65692542777E+03  0.15079991061E+04  0.90313430613E+03 0.  0.
        -24    2    4    4    0    0  0.21983173945E+03  0.73243203619E+03 -0.56166408299E+03  0.95223514037E+03  0.80638323033E+02 0.  0.
         24    2    4    4    0    0  0.53951209664E+03 -0.61421119764E+02 -0.95261344785E+02  0.55576396571E+03  0.70377591528E+02 0.  0.
         13    1    3    3    0    0 -0.31098427134E+03 -0.22347818524E+03  0.18495322150E+03  0.42527803899E+03  0.00000000000E+00 0. -1.
        -13    1    3    3    0    0 -0.44835956475E+03 -0.44753273118E+03  0.35951441280E+03  0.72839718410E+03  0.00000000000E+00 0.  1.
          4    1    6    6  502    0  0.10314353609E+03  0.15359168850E+02 -0.12477239616E+02  0.10502463813E+03  0.00000000000E+00 0. -1.
          1    1    5    5  503    0  0.49925140952E+02  0.19767954508E+03 -0.19382724476E+03  0.28131605545E+03  0.00000000000E+00 0. -1.
         -2    1    5    5    0  503  0.16990659850E+03  0.53475249111E+03 -0.36783683822E+03  0.67091908492E+03  0.00000000000E+00 0.  1.
         -3    1    6    6    0  502  0.43636856055E+03 -0.76780288614E+02 -0.82784105169E+02  0.45073932758E+03  0.00000000000E+00 0.  1.
<mgrwt>
<rscale>  0 0.26592976E+04</rscale>
<asrwt>0</asrwt>
<pdfrwt beam="1">  1        1 0.21339478E+00 0.26592976E+04</pdfrwt>
<pdfrwt beam="2">  1       -1 0.19609358E+00 0.26592976E+04</pdfrwt>
<totfact> 0.11012446E+00</totfact>
</mgrwt>
</event>
<event>
12    1  0.1114484E-007  0.1359168E+04  0.7818608E-02  0.8983917E-01
          1   -1    0    0  501    0  0.00000000000E+00  0.00000000000E+00  0.16049139789E+04  0.16049139789E+04  0.00000000000E+00 0. -1.
         -1   -1    0    0    0  501 -0.00000000000E+00 -0.00000000000E+00 -0.28776271710E+03  0.28776271710E+03  0.00000000000E+00 0.  1.
         23    2    1    2    0    0  0.36720020843E+03 -0.73040356383E+01  0.26130753993E+03  0.45987189339E+03  0.91165705696E+02 0.  0.
        254    2    1    2    0    0 -0.36720020843E+03  0.73040356383E+01  0.10558437218E+04  0.14328048026E+04  0.89623339333E+03 0.  0.
        -24    2    4    4    0    0 -0.14439935672E+02 -0.33980478390E+03  0.11610605206E+03  0.36810939189E+03  0.79675003407E+02 0.  0.
         24    2    4    4    0    0 -0.35276027276E+03  0.34710881954E+03  0.93973766978E+03  0.10646954107E+04  0.74465340210E+02 0.  0.
         11    1    3    3    0    0  0.20696950090E+00  0.59737420289E+01  0.18960834952E+02  0.19880686414E+02  0.00000000000E+00 0. -1.
        -11    1    3    3    0    0  0.36699323893E+03 -0.13277777667E+02  0.24234670498E+03  0.43999120698E+03  0.00000000000E+00 0.  1.
          2    1    6    6  502    0 -0.27848362024E+03  0.26996456674E+03  0.66528480140E+03  0.77008951493E+03  0.00000000000E+00 0. -1.
          1    1    5    5  503    0 -0.27774742186E+01 -0.32088064276E+03  0.12470869634E+03  0.34427367050E+03  0.00000000000E+00 0. -1.
         -2    1    5    5    0  503 -0.11662461454E+02 -0.18924141142E+02 -0.86026442849E+01  0.23835721382E+02  0.00000000000E+00 0.  1.
         -1    1    6    6    0  502 -0.74276652518E+02  0.77144252800E+02  0.27445286839E+03  0.29460589576E+03  0.00000000000E+00 0.  1.
<mgrwt>
<rscale>  0 0.13591680E+04</rscale>
<asrwt>0</asrwt>
<pdfrwt beam="1">  1        1 0.24690984E+00 0.13591680E+04</pdfrwt>
<pdfrwt beam="2">  1       -1 0.44271188E-01 0.13591680E+04</pdfrwt>
<totfact> 0.27345283E+01</totfact>
</mgrwt>
</event>
<event>
12    1  0.1114484E-007  0.2716557E+04  0.7818608E-02  0.8329653E-01
          2   -1    0    0  501    0  0.00000000000E+00  0.00000000000E+00  0.34617503569E+04  0.34617503569E+04  0.00000000000E+00 0. -1.
         -2   -1    0    0    0  501 -0.00000000000E+00 -0.00000000000E+00 -0.53294432655E+03  0.53294432655E+03  0.00000000000E+00 0.  1.
         23    2    1    2    0    0 -0.45877786376E+03 -0.79064211581E+03  0.14502775177E+03  0.92995340266E+03  0.90488666503E+02 0.  0.
        254    2    1    2    0    0  0.45877786376E+03  0.79064211581E+03  0.27837782786E+04  0.30647412808E+04  0.89867988198E+03 0.  0.
        -24    2    4    4    0    0 -0.26522979051E+03  0.26312527470E+03  0.77935689957E+03  0.86791804961E+03  0.79390251133E+02 0.  0.
         24    2    4    4    0    0  0.72400765427E+03  0.52751684112E+03  0.20044213791E+04  0.21968232312E+04  0.76590751983E+02 0.  0.
         11    1    3    3    0    0 -0.22481295819E+03 -0.29887763870E+03  0.59631262583E+02  0.37871439973E+03  0.00000000000E+00 0. -1.
        -11    1    3    3    0    0 -0.23396490557E+03 -0.49176447711E+03  0.85396489187E+02  0.55123900293E+03  0.00000000000E+00 0.  1.
          4    1    6    6  502    0  0.60925760322E+03  0.42722362712E+03  0.17221606646E+04  0.18760469635E+04  0.00000000000E+00 0. -1.
          3    1    5    5  503    0 -0.25053812142E+03  0.24269655418E+03  0.75982138592E+03  0.83606190333E+03  0.00000000000E+00 0. -1.
         -4    1    5    5    0  503 -0.14691669089E+02  0.20428720513E+02  0.19535513655E+02  0.31856146286E+02  0.00000000000E+00 0.  1.
         -3    1    6    6    0  502  0.11475005105E+03  0.10029321399E+03  0.28226071447E+03  0.32077626771E+03  0.00000000000E+00 0.  1.
<mgrwt>
<rscale>  0 0.27165568E+04</rscale>
<asrwt>0</asrwt>
<pdfrwt beam="1">  1        2 0.53257696E+00 0.27165568E+04</pdfrwt>
<pdfrwt beam="2">  1       -2 0.81991437E-01 0.27165568E+04</pdfrwt>
<totfact> 0.99047660E-01</totfact>
</mgrwt>
</event>
<event>
12    1  0.1114484E-007  0.1705312E+04  0.7818608E-02  0.8758341E-01
         -1   -1    0    0    0  501 -0.00000000000E+00  0.00000000000E+00  0.33432251505E+03  0.33432251505E+03  0.00000000000E+00 0.  1.
          1   -1    0    0  501    0  0.00000000000E+00 -0.00000000000E+00 -0.21746134879E+04  0.21746134879E+04  0.00000000000E+00 0. -1.
         23    2    1    2    0    0 -0.86681893428E+02  0.60790407429E+03 -0.60715058803E+03  0.86694813849E+03  0.76851311633E+02 0.  0.
        254    2    1    2    0    0  0.86681893428E+02 -0.60790407429E+03 -0.12331403848E+04  0.16419878645E+04  0.89354788577E+03 0.  0.
        -24    2    4    4    0    0  0.84706317220E+02  0.30869589969E+02 -0.91727135500E+03  0.92501663686E+03  0.78364201009E+02 0.  0.
         24    2    4    4    0    0  0.19755762078E+01 -0.63877366426E+03 -0.31586902982E+03  0.71697122760E+03  0.78986075687E+02 0.  0.
         11    1    3    3    0    0 -0.11265011131E+02  0.23784047413E+03 -0.27743824757E+03  0.36560494092E+03  0.00000000000E+00 0.  1.
        -11    1    3    3    0    0 -0.75416882296E+02  0.37006360016E+03 -0.32971234046E+03  0.50134319757E+03  0.00000000000E+00 0. -1.
          2    1    6    6  502    0 -0.66021772769E+01 -0.51288445157E+03 -0.21821347498E+03  0.55741472000E+03  0.00000000000E+00 0. -1.
          3    1    5    5  503    0  0.64381041073E+02 -0.83342382582E+01 -0.34574715217E+03  0.35178895834E+03  0.00000000000E+00 0. -1.
         -4    1    5    5    0  503  0.20325276147E+02  0.39203828228E+02 -0.57152420284E+03  0.57322767853E+03  0.00000000000E+00 0.  1.
         -1    1    6    6    0  502  0.85777534846E+01 -0.12588921269E+03 -0.97655554846E+02  0.15955650760E+03  0.00000000000E+00 0.  1.
<mgrwt>
<rscale>  0 0.17053120E+04</rscale>
<asrwt>0</asrwt>
<pdfrwt beam="1">  1        1 0.33455591E+00 0.17053120E+04</pdfrwt>
<pdfrwt beam="2">  1       -1 0.51434234E-01 0.17053120E+04</pdfrwt>
<totfact> 0.82049305E+00</totfact>
</mgrwt>
</event>
<event>
12    1  0.1114484E-007  0.1593797E+04  0.7818608E-02  0.8824368E-01
         -2   -1    0    0    0  501 -0.00000000000E+00  0.00000000000E+00  0.33832277180E+03  0.33832277180E+03  0.00000000000E+00 0. -1.
          2   -1    0    0  501    0  0.00000000000E+00 -0.00000000000E+00 -0.18770443555E+04  0.18770443555E+04  0.00000000000E+00 0.  1.
         23    2    1    2    0    0 -0.33948093108E+03  0.39060091661E+03 -0.34468857451E+03  0.62842112939E+03  0.91030345738E+02 0.  0.
        254    2    1    2    0    0  0.33948093108E+03 -0.39060091661E+03 -0.11940330092E+04  0.15869459979E+04  0.90822155591E+03 0.  0.
        -24    2    4    4    0    0  0.59387705881E+03 -0.39788933360E+02 -0.74692479648E+03  0.95832586336E+03  0.78858662152E+02 0.  0.
         24    2    4    4    0    0 -0.25439612773E+03 -0.35081198325E+03 -0.44710821274E+03  0.62862013457E+03  0.86435422684E+02 0.  0.
         13    1    3    3    0    0 -0.34083895650E+03  0.38238634254E+03 -0.34820330770E+03  0.61938360708E+03  0.00000000000E+00 0. -1.
        -13    1    3    3    0    0  0.13580254141E+01  0.82145740705E+01  0.35147331889E+01  0.90375223139E+01  0.00000000000E+00 0.  1.
          4    1    6    6  502    0 -0.17292485113E+02 -0.14126091206E+02 -0.57670207468E+02  0.61841970567E+02  0.00000000000E+00 0. -1.
          1    1    5    5  503    0  0.12372144989E+03  0.17033977638E+02 -0.12591021800E+03  0.17734299127E+03  0.00000000000E+00 0. -1.
         -2    1    5    5    0  503  0.47015560892E+03 -0.56822910999E+02 -0.62101457848E+03  0.78098287209E+03  0.00000000000E+00 0.  1.
         -1    1    6    6    0  502 -0.23710364261E+03 -0.33668589204E+03 -0.38943800527E+03  0.56677816400E+03  0.00000000000E+00 0.  1.
<mgrwt>
<rscale>  0 0.15937965E+04</rscale>
<asrwt>0</asrwt>
<pdfrwt beam="1">  1        2 0.28877606E+00 0.15937965E+04</pdfrwt>
<pdfrwt beam="2">  1       -2 0.52049657E-01 0.15937965E+04</pdfrwt>
<totfact> 0.26144459E+01</totfact>
</mgrwt>
</event>
<event>
12    1  0.1114484E-007  0.1274830E+04  0.7818608E-02  0.9049767E-01
         -1   -1    0    0    0  501 -0.00000000000E+00  0.00000000000E+00  0.54478248517E+03  0.54478248517E+03  0.00000000000E+00 0.  1.
          1   -1    0    0  501    0  0.00000000000E+00 -0.00000000000E+00 -0.74579810202E+03  0.74579810202E+03  0.00000000000E+00 0. -1.
         23    2    1    2    0    0 -0.15240168840E+03  0.24440497890E+03  0.60806011385E+02  0.30793991894E+03  0.90385586874E+02 0.  0.
        254    2    1    2    0    0  0.15240168840E+03 -0.24440497890E+03 -0.26182162824E+03  0.98264066824E+03  0.90225941366E+03 0.  0.
        -24    2    4    4    0    0 -0.27662054547E+03 -0.15561972014E+03  0.16435392151E+03  0.36638953681E+03  0.80577029608E+02 0.  0.
         24    2    4    4    0    0  0.42902223387E+03 -0.88785258770E+02 -0.42617554974E+03  0.61625113143E+03  0.78720762588E+02 0.  0.
         13    1    3    3    0    0 -0.17804407989E+02  0.99339726099E+02  0.12917138009E-01  0.10092263518E+03  0.00000000000E+00 0. -1.
        -13    1    3    3    0    0 -0.13459728041E+03  0.14506525281E+03  0.60793094247E+02  0.20701728376E+03  0.00000000000E+00 0.  1.
          4    1    6    6  502    0  0.89498761853E+02 -0.21651480539E+02 -0.13792967645E+03  0.16584152263E+03  0.00000000000E+00 0. -1.
          3    1    5    5  503    0 -0.10526083343E+03 -0.10522492440E+03  0.73572036761E+02  0.16602702299E+03  0.00000000000E+00 0. -1.
         -4    1    5    5    0  503 -0.17135971204E+03 -0.50394795730E+02  0.90781884745E+02  0.20036251382E+03  0.00000000000E+00 0.  1.
         -3    1    6    6    0  502  0.33952347202E+03 -0.67133778231E+02 -0.28824587329E+03  0.45040960880E+03  0.00000000000E+00 0.  1.
<mgrwt>
<rscale>  0 0.12748298E+04</rscale>
<asrwt>0</asrwt>
<pdfrwt beam="1">  1        1 0.11473817E+00 0.12748298E+04</pdfrwt>
<pdfrwt beam="2">  1       -1 0.83812690E-01 0.12748298E+04</pdfrwt>
<totfact> 0.34345860E+01</totfact>
</mgrwt>
</event>
<event>
12    1  0.1114484E-007  0.2652251E+04  0.7818608E-02  0.8350666E-01
         -2   -1    0    0    0  501 -0.00000000000E+00  0.00000000000E+00  0.68101917498E+03  0.68101917498E+03  0.00000000000E+00 0.  1.
          2   -1    0    0  501    0  0.00000000000E+00 -0.00000000000E+00 -0.25823195327E+04  0.25823195327E+04  0.00000000000E+00 0. -1.
         23    2    1    2    0    0  0.17223430780E+03 -0.21204052983E+03  0.56031602412E+03  0.62992145336E+03  0.90670543410E+02 0.  0.
        254    2    1    2    0    0 -0.17223430780E+03  0.21204052983E+03 -0.24616163818E+04  0.26334172543E+04  0.89482142401E+03 0.  0.
        -24    2    4    4    0    0 -0.21763865925E+03 -0.20500427030E+03 -0.30072390805E+03  0.43102915447E+03  0.77187604516E+02 0.  0.
         24    2    4    4    0    0  0.45404351445E+02  0.41704480012E+03 -0.21608924738E+04  0.22023880998E+04  0.71197883325E+02 0.  0.
         11    1    3    3    0    0  0.29270662910E+02 -0.10191110792E+03  0.23733358062E+03  0.25994205915E+03  0.00000000000E+00 0. -1.
        -11    1    3    3    0    0  0.14296364490E+03 -0.11012942191E+03  0.32298244350E+03  0.36997939421E+03  0.00000000000E+00 0.  1.
          2    1    6    6  502    0  0.51578324466E+02  0.28783744464E+03 -0.16252738741E+04  0.16513709104E+04  0.00000000000E+00 0. -1.
          1    1    5    5  503    0 -0.13401792267E+03 -0.16197839957E+03 -0.17208631915E+03  0.27168273181E+03  0.00000000000E+00 0. -1.
         -2    1    5    5    0  503 -0.83620736583E+02 -0.43025870730E+02 -0.12863758889E+03  0.15934642266E+03  0.00000000000E+00 0.  1.
         -1    1    6    6    0  502 -0.61739730209E+01  0.12920735548E+03 -0.53561859969E+03  0.55101718938E+03  0.00000000000E+00 0.  1.
<mgrwt>
<rscale>  0 0.26522512E+04</rscale>
<asrwt>0</asrwt>
<pdfrwt beam="1">  1        2 0.39727993E+00 0.26522512E+04</pdfrwt>
<pdfrwt beam="2">  1       -2 0.10477218E+00 0.26522512E+04</pdfrwt>
<totfact> 0.20279517E+00</totfact>
</mgrwt>
</event>
<event>
12    1  0.1114484E-007  0.1321026E+04  0.7818608E-02  0.9013055E-01
          1   -1    0    0  501    0  0.00000000000E+00  0.00000000000E+00  0.22123031593E+04  0.22123031593E+04  0.00000000000E+00 0. -1.
         -1   -1    0    0    0  501 -0.00000000000E+00 -0.00000000000E+00 -0.19720521216E+03  0.19720521216E+03  0.00000000000E+00 0.  1.
         23    2    1    2    0    0  0.14451445008E+03 -0.15664662968E+03  0.49856392646E+02  0.23744235904E+03  0.92035977256E+02 0.  0.
        254    2    1    2    0    0 -0.14451445008E+03  0.15664662968E+03  0.19652415545E+04  0.21720660124E+04  0.90015209934E+03 0.  0.
        -24    2    4    4    0    0  0.16536199835E+03 -0.27071464337E+03  0.39155169889E+03  0.51027927969E+03  0.80257097792E+02 0.  0.
         24    2    4    4    0    0 -0.30987644842E+03  0.42736127305E+03  0.15736898556E+04  0.16617867327E+04  0.79839291421E+02 0.  0.
         13    1    3    3    0    0 -0.41887609877E+01 -0.24242541043E+02  0.27792335384E+02  0.37116848208E+02  0.00000000000E+00 0. -1.
        -13    1    3    3    0    0  0.14870321106E+03 -0.13240408864E+03  0.22064057263E+02  0.20032551083E+03  0.00000000000E+00 0.  1.
          4    1    6    6  502    0 -0.72331978910E+02  0.13288403628E+03  0.54956122570E+03  0.57000668686E+03  0.00000000000E+00 0. -1.
          1    1    5    5  503    0  0.10454949841E+03 -0.19958105764E+03  0.22022604328E+03  0.31505984562E+03  0.00000000000E+00 0. -1.
         -2    1    5    5    0  503  0.60812499942E+02 -0.71133585734E+02  0.17132565561E+03  0.19521943407E+03  0.00000000000E+00 0.  1.
         -3    1    6    6    0  502 -0.23754446951E+03  0.29447723677E+03  0.10241286299E+04  0.10917800459E+04  0.00000000000E+00 0.  1.
<mgrwt>
<rscale>  0 0.13210264E+04</rscale>
<asrwt>0</asrwt>
<pdfrwt beam="1">  1        1 0.34035431E+00 0.13210264E+04</pdfrwt>
<pdfrwt beam="2">  1       -1 0.30339265E-01 0.13210264E+04</pdfrwt>
<totfact> 0.21018899E+01</totfact>
</mgrwt>
</event>
<event>
12    1  0.1114484E-007  0.1682852E+04  0.7818608E-02  0.8771206E-01
          1   -1    0    0  501    0  0.00000000000E+00  0.00000000000E+00  0.24452733746E+03  0.24452733746E+03  0.00000000000E+00 0. -1.
         -1   -1    0    0    0  501 -0.00000000000E+00 -0.00000000000E+00 -0.28953709616E+04  0.28953709616E+04  0.00000000000E+00 0.  1.
         23    2    1    2    0    0 -0.28077106144E+03 -0.33469062794E+03 -0.18185193171E+03  0.48233844983E+03  0.93434735168E+02 0.  0.
        254    2    1    2    0    0  0.28077106144E+03  0.33469062794E+03 -0.24689916924E+04  0.26575598492E+04  0.88082584520E+03 0.  0.
        -24    2    4    4    0    0  0.18561276525E+03  0.13085337387E+03 -0.75204085127E+02  0.25187701526E+03  0.78814163216E+02 0.  0.
         24    2    4    4    0    0  0.95158296198E+02  0.20383725408E+03 -0.23937876073E+04  0.24056828340E+04  0.80536086781E+02 0.  0.
         11    1    3    3    0    0  0.53841656275E+01  0.35492650398E-01 -0.62444854880E+01  0.82452470092E+01  0.00000000000E+00 0.  1.
        -11    1    3    3    0    0 -0.28615522707E+03 -0.33472612059E+03 -0.17560744622E+03  0.47409320282E+03  0.00000000000E+00 0. -1.
          4    1    6    6  502    0  0.30752208780E+02  0.63868012457E+02 -0.11845098515E+04  0.11866290109E+04  0.00000000000E+00 0. -1.
          3    1    5    5  503    0  0.15840148340E+03  0.13300508738E+03 -0.45975727266E+02  0.21188475809E+03  0.00000000000E+00 0. -1.
         -4    1    5    5    0  503  0.27211281845E+02 -0.21517135123E+01 -0.29228357862E+02  0.39992257176E+02  0.00000000000E+00 0.  1.
         -3    1    6    6    0  502  0.64406087417E+02  0.13996924162E+03 -0.12092777559E+04  0.12190538231E+04  0.00000000000E+00 0.  1.
<mgrwt>
<rscale>  0 0.16828516E+04</rscale>
<asrwt>0</asrwt>
<pdfrwt beam="1">  1        1 0.37619589E-01 0.16828516E+04</pdfrwt>
<pdfrwt beam="2">  1       -1 0.44544170E+00 0.16828516E+04</pdfrwt>
<totfact> 0.38083485E-01</totfact>
</mgrwt>
</event>
<event>
12    1  0.1114484E-007  0.1247220E+04  0.7818608E-02  0.9072501E-01
         -2   -1    0    0    0  501 -0.00000000000E+00  0.00000000000E+00  0.17633692911E+03  0.17633692911E+03  0.00000000000E+00 0.  1.
          2   -1    0    0  501    0  0.00000000000E+00 -0.00000000000E+00 -0.22053756965E+04  0.22053756965E+04  0.00000000000E+00 0. -1.
         23    2    1    2    0    0 -0.25215266014E+02  0.15366633988E+03 -0.17520036075E+02  0.18226311096E+03  0.93079193717E+02 0.  0.
        254    2    1    2    0    0  0.25215266014E+02 -0.15366633988E+03 -0.20115187313E+04  0.21994495147E+04  0.87585467253E+03 0.  0.
        -24    2    4    4    0    0 -0.32183358572E+02  0.25150184034E+03 -0.17869651899E+03  0.31996476808E+03  0.78460580269E+02 0.  0.
         24    2    4    4    0    0  0.57398624586E+02 -0.40516818021E+03 -0.18328222124E+04  0.18794847466E+04  0.75959161336E+02 0.  0.
         11    1    3    3    0    0  0.34579055498E+02  0.64566475463E+02 -0.15889346464E+02  0.74946728841E+02  0.00000000000E+00 0. -1.
        -11    1    3    3    0    0 -0.59794321511E+02  0.89099864414E+02 -0.16306896112E+01  0.10731638212E+03  0.00000000000E+00 0.  1.
          4    1    6    6  502    0 -0.10806671298E+02 -0.10578513638E+02 -0.89009765056E+02  0.90285255555E+02  0.00000000000E+00 0. -1.
          3    1    5    5  503    0 -0.31575899767E+02  0.17236474863E+03 -0.16291857615E+03  0.23926785507E+03  0.00000000000E+00 0. -1.
         -4    1    5    5    0  503 -0.60745880518E+00  0.79137091705E+02 -0.15777942841E+02  0.80696913014E+02  0.00000000000E+00 0.  1.
         -3    1    6    6    0  502  0.68205295884E+02 -0.39458966657E+03 -0.17438124473E+04  0.17891994910E+04  0.00000000000E+00 0.  1.
<mgrwt>
<rscale>  0 0.12472196E+04</rscale>
<asrwt>0</asrwt>
<pdfrwt beam="1">  1        2 0.33928858E+00 0.12472196E+04</pdfrwt>
<pdfrwt beam="2">  1       -2 0.27128758E-01 0.12472196E+04</pdfrwt>
<totfact> 0.62489552E+01</totfact>
</mgrwt>
</event>
<event>
12    1  0.1114484E-007  0.1325939E+04  0.7818608E-02  0.9009245E-01
         -2   -1    0    0    0  501 -0.00000000000E+00  0.00000000000E+00  0.51079106906E+03  0.51079106906E+03  0.00000000000E+00 0.  1.
          2   -1    0    0  501    0  0.00000000000E+00 -0.00000000000E+00 -0.86048547694E+03  0.86048547694E+03  0.00000000000E+00 0. -1.
         23    2    1    2    0    0 -0.46734644189E+02  0.51285815827E+02 -0.45303111601E+03  0.46675657946E+03  0.88375056011E+02 0.  0.
        254    2    1    2    0    0  0.46734644189E+02 -0.51285815827E+02  0.10333670813E+03  0.90451996653E+03  0.89591491378E+03 0.  0.
        -24    2    4    4    0    0 -0.28154497296E+02 -0.24696218601E+03  0.43298411620E+03  0.50569812700E+03  0.80450939895E+02 0.  0.
         24    2    4    4    0    0  0.74889141485E+02  0.19567637018E+03 -0.32964740807E+03  0.39882183954E+03  0.80584245861E+02 0.  0.
         11    1    3    3    0    0 -0.71048241551E+02  0.23436337519E+02 -0.28020725931E+03  0.29002279689E+03  0.00000000000E+00 0. -1.
        -11    1    3    3    0    0  0.24313597362E+02  0.27849478307E+02 -0.17282385669E+03  0.17673378257E+03  0.00000000000E+00 0.  1.
          2    1    6    6  502    0  0.22634400198E+02  0.13185433456E+03 -0.25314045204E+03  0.28631795276E+03  0.00000000000E+00 0. -1.
          1    1    5    5  503    0  0.22392684501E+02 -0.11009008454E+03  0.22692493078E+03  0.25321173599E+03  0.00000000000E+00 0. -1.
         -2    1    5    5    0  503 -0.50547181797E+02 -0.13687210147E+03  0.20605918543E+03  0.25248639101E+03  0.00000000000E+00 0.  1.
         -3    1    6    6    0  502  0.52254741287E+02  0.63822035621E+02 -0.76506956038E+02  0.11250388678E+03  0.00000000000E+00 0.  1.
<mgrwt>
<rscale>  0 0.13259386E+04</rscale>
<asrwt>0</asrwt>
<pdfrwt beam="1">  1        2 0.13238238E+00 0.13259386E+04</pdfrwt>
<pdfrwt beam="2">  1       -2 0.78583242E-01 0.13259386E+04</pdfrwt>
<totfact> 0.43955160E+01</totfact>
</mgrwt>
</event>
<event>
12    1  0.1114484E-007  0.1327033E+04  0.7818608E-02  0.9008398E-01
         -1   -1    0    0    0  501 -0.00000000000E+00  0.00000000000E+00  0.34427188420E+03  0.34427188420E+03  0.00000000000E+00 0.  1.
          1   -1    0    0  501    0  0.00000000000E+00 -0.00000000000E+00 -0.12787979454E+04  0.12787979454E+04  0.00000000000E+00 0. -1.
         23    2    1    2    0    0 -0.25785190485E+02  0.28362175805E+03 -0.44005222064E+01  0.29908997272E+03  0.91264831685E+02 0.  0.
        254    2    1    2    0    0  0.25785190485E+02 -0.28362175805E+03 -0.93012553901E+03  0.13239798569E+04  0.89815531255E+03 0.  0.
        -24    2    4    4    0    0  0.43984177782E+03 -0.24388400662E+03 -0.59852627520E+03  0.78600551159E+03  0.81429502927E+02 0.  0.
         24    2    4    4    0    0 -0.41405658733E+03 -0.39737751425E+02 -0.33159926381E+03  0.53797434531E+03  0.80227040645E+02 0.  0.
         11    1    3    3    0    0  0.20338760953E+02  0.17419633233E+02  0.98825380285E+01  0.28544235442E+02  0.00000000000E+00 0.  1.
        -11    1    3    3    0    0 -0.46123951438E+02  0.26620212481E+03 -0.14283060235E+02  0.27054573728E+03  0.00000000000E+00 0. -1.
          4    1    6    6  502    0  0.26834507213E+01 -0.44617477250E+01 -0.24383021059E+01  0.57492101801E+01  0.00000000000E+00 0. -1.
          3    1    5    5  503    0  0.46433686761E+02 -0.16517540754E+02 -0.28128224708E+02  0.56746043422E+02  0.00000000000E+00 0. -1.
         -4    1    5    5    0  503  0.39340809106E+03 -0.22736646587E+03 -0.57039805049E+03  0.72925946816E+03  0.00000000000E+00 0.  1.
         -3    1    6    6    0  502 -0.41674003805E+03 -0.35276003700E+02 -0.32916096170E+03  0.53222513513E+03  0.00000000000E+00 0.  1.
<mgrwt>
<rscale>  0 0.13270330E+04</rscale>
<asrwt>0</asrwt>
<pdfrwt beam="1">  1        1 0.19673815E+00 0.13270330E+04</pdfrwt>
<pdfrwt beam="2">  1       -1 0.52964905E-01 0.13270330E+04</pdfrwt>
<totfact> 0.33008922E+01</totfact>
</mgrwt>
</event>
<event>
12    1  0.1114484E-007  0.4265991E+04  0.7818608E-02  0.7952937E-01
         -2   -1    0    0    0  501 -0.00000000000E+00  0.00000000000E+00  0.14902534219E+04  0.14902534219E+04  0.00000000000E+00 0.  1.
          2   -1    0    0  501    0  0.00000000000E+00 -0.00000000000E+00 -0.30529505271E+04  0.30529505271E+04  0.00000000000E+00 0. -1.
         23    2    1    2    0    0 -0.20472282338E+03 -0.19012483278E+04 -0.14935557371E+04  0.24280908297E+04  0.90882886908E+02 0.  0.
        254    2    1    2    0    0  0.20472282338E+03  0.19012483278E+04 -0.69141368165E+02  0.21151131193E+04  0.90125819852E+03 0.  0.
        -24    2    4    4    0    0  0.93412702319E+02  0.16058712225E+04  0.28372434046E+03  0.16353021641E+04  0.78519744020E+02 0.  0.
         24    2    4    4    0    0  0.11131012106E+03  0.29537710528E+03 -0.35286570863E+03  0.47981095525E+03  0.77889454201E+02 0.  0.
         11    1    3    3    0    0 -0.15305004607E+02 -0.39266811907E+03 -0.33899936150E+03  0.51898271840E+03  0.00000000000E+00 0.  1.
        -11    1    3    3    0    0 -0.18941781877E+03 -0.15085802087E+04 -0.11545563756E+04  0.19091081113E+04  0.00000000000E+00 0. -1.
          4    1    6    6  502    0  0.58403274356E+02  0.16008013858E+03 -0.13243187640E+03  0.21581194385E+03  0.00000000000E+00 0. -1.
          3    1    5    5  503    0  0.77559250204E+02  0.91523006813E+03  0.19271889820E+03  0.93851056926E+03  0.00000000000E+00 0. -1.
         -4    1    5    5    0  503  0.15853452114E+02  0.69064115440E+03  0.91005442265E+02  0.69679159483E+03  0.00000000000E+00 0.  1.
         -3    1    6    6    0  502  0.52906846706E+02  0.13529696670E+03 -0.22043383223E+03  0.26399901140E+03  0.00000000000E+00 0.  1.
<mgrwt>
<rscale>  0 0.42659911E+04</rscale>
<asrwt>0</asrwt>
<pdfrwt beam="1">  1        2 0.46968469E+00 0.42659911E+04</pdfrwt>
<pdfrwt beam="2">  1       -2 0.22926976E+00 0.42659911E+04</pdfrwt>
<totfact> 0.10749760E-01</totfact>
</mgrwt>
</event>
<event>
12    1  0.1114484E-007  0.1755995E+04  0.7818608E-02  0.8730058E-01
          1   -1    0    0  501    0  0.00000000000E+00  0.00000000000E+00  0.18947991344E+04  0.18947991344E+04  0.00000000000E+00 0. -1.
         -1   -1    0    0    0  501 -0.00000000000E+00 -0.00000000000E+00 -0.40683952485E+03  0.40683952485E+03  0.00000000000E+00 0.  1.
         23    2    1    2    0    0 -0.46456667653E+03  0.40290547378E+03  0.30140976795E+03  0.69060873781E+03  0.89093000740E+02 0.  0.
        254    2    1    2    0    0  0.46456667653E+03 -0.40290547378E+03  0.11865498416E+04  0.16110299214E+04  0.89964540982E+03 0.  0.
        -24    2    4    4    0    0  0.46577871722E+03 -0.66220540407E+03  0.95643642423E+03  0.12557309078E+04  0.81385923914E+02 0.  0.
         24    2    4    4    0    0 -0.12120406902E+01  0.25929993029E+03  0.23011341733E+03  0.35529901361E+03  0.77764267769E+02 0.  0.
         13    1    3    3    0    0 -0.64583259308E+02  0.88495044974E+02  0.80516965782E+02  0.13596084784E+03  0.00000000000E+00 0. -1.
        -13    1    3    3    0    0 -0.39998341722E+03  0.31441042880E+03  0.22089280217E+03  0.55464788996E+03  0.00000000000E+00 0.  1.
          2    1    6    6  502    0 -0.37970812310E+02  0.97411074149E+02  0.83139062628E+02  0.13357695793E+03  0.00000000000E+00 0. -1.
          3    1    5    5  503    0  0.32001179934E+03 -0.39245874436E+03  0.57055039813E+03  0.76286248731E+03  0.00000000000E+00 0. -1.
         -4    1    5    5    0  503  0.14576691788E+03 -0.26974665971E+03  0.38588602610E+03  0.49286842048E+03  0.00000000000E+00 0.  1.
         -1    1    6    6    0  502  0.36758771620E+02  0.16188885615E+03  0.14697435470E+03  0.22172205568E+03  0.00000000000E+00 0.  1.
<mgrwt>
<rscale>  0 0.17559945E+04</rscale>
<asrwt>0</asrwt>
<pdfrwt beam="1">  1        1 0.29150755E+00 0.17559945E+04</pdfrwt>
<pdfrwt beam="2">  1       -1 0.62590697E-01 0.17559945E+04</pdfrwt>
<totfact> 0.86139740E+00</totfact>
</mgrwt>
</event>
<event>
12    1  0.1114484E-007  0.2400508E+04  0.7818608E-02  0.8439314E-01
          1   -1    0    0  501    0  0.00000000000E+00  0.00000000000E+00  0.14024846590E+04  0.14024846590E+04  0.00000000000E+00 0. -1.
         -1   -1    0    0    0  501 -0.00000000000E+00 -0.00000000000E+00 -0.10271834848E+04  0.10271834848E+04  0.00000000000E+00 0.  1.
         23    2    1    2    0    0 -0.62524313458E+03  0.82459440964E+03  0.23726202090E+03  0.10654834160E+04  0.89870603612E+02 0.  0.
        254    2    1    2    0    0  0.62524313458E+03 -0.82459440964E+03  0.13803915333E+03  0.13641847278E+04  0.87810036213E+03 0.  0.
        -24    2    4    4    0    0  0.32132656169E+01 -0.34933035865E+03  0.39753521566E+03  0.53554262056E+03  0.82034298897E+02 0.  0.
         24    2    4    4    0    0  0.62202986897E+03 -0.47526405099E+03 -0.25949606233E+03  0.82864210725E+03  0.80699810964E+02 0.  0.
         11    1    3    3    0    0 -0.43991886028E+03  0.57954080537E+03  0.12431105516E+03  0.73813913807E+03  0.00000000000E+00 0. -1.
        -11    1    3    3    0    0 -0.18532427431E+03  0.24505360427E+03  0.11295096573E+03  0.32734427790E+03  0.00000000000E+00 0.  1.
          4    1    6    6  502    0  0.57956483249E+03 -0.41333255636E+03 -0.23326902534E+03  0.74910188585E+03  0.00000000000E+00 0. -1.
          1    1    5    5  503    0 -0.25254444079E+02 -0.23370881753E+03  0.22128197231E+03  0.32283635113E+03  0.00000000000E+00 0. -1.
         -2    1    5    5    0  503  0.28467709696E+02 -0.11562154112E+03  0.17625324334E+03  0.21270626943E+03  0.00000000000E+00 0.  1.
         -3    1    6    6    0  502  0.42465036479E+02 -0.61931494636E+02 -0.26227036990E+02  0.79540221400E+02  0.00000000000E+00 0.  1.
<mgrwt>
<rscale>  0 0.24005075E+04</rscale>
<asrwt>0</asrwt>
<pdfrwt beam="1">  1        1 0.21576687E+00 0.24005075E+04</pdfrwt>
<pdfrwt beam="2">  1       -1 0.15802823E+00 0.24005075E+04</pdfrwt>
<totfact> 0.20743923E+00</totfact>
</mgrwt>
</event>
<event>
12    1  0.1114484E-007  0.1673286E+04  0.7818608E-02  0.8776749E-01
          2   -1    0    0  501    0  0.00000000000E+00  0.00000000000E+00  0.76084225264E+03  0.76084225264E+03  0.00000000000E+00 0. -1.
         -2   -1    0    0    0  501 -0.00000000000E+00 -0.00000000000E+00 -0.91999550549E+03  0.91999550549E+03  0.00000000000E+00 0.  1.
         23    2    1    2    0    0 -0.53412430589E+03  0.20279775804E+03  0.10013920560E+03  0.58706579608E+03  0.90568668009E+02 0.  0.
        254    2    1    2    0    0  0.53412430589E+03 -0.20279775804E+03 -0.25929245845E+03  0.10937719620E+04  0.89592902684E+03 0.  0.
        -24    2    4    4    0    0  0.53479000797E+03 -0.42292226427E+03  0.69091500147E+02  0.69044753749E+03  0.84146137145E+02 0.  0.
         24    2    4    4    0    0 -0.66570207761E+00  0.22012450623E+03 -0.32838395860E+03  0.40332442455E+03  0.79870681568E+02 0.  0.
         11    1    3    3    0    0 -0.45610276859E+03  0.16239279483E+03  0.52147454840E+02  0.48695021550E+03  0.00000000000E+00 0. -1.
        -11    1    3    3    0    0 -0.78021537298E+02  0.40404963210E+02  0.47991750762E+02  0.10011558058E+03  0.00000000000E+00 0.  1.
          4    1    6    6  502    0 -0.10235096091E+02  0.21570409361E+03 -0.32808923240E+03  0.39277927339E+03  0.00000000000E+00 0. -1.
          1    1    5    5  503    0  0.42281172273E+03 -0.30777676811E+03  0.23546546326E+02  0.52349854986E+03  0.00000000000E+00 0. -1.
         -2    1    5    5    0  503  0.11197828524E+03 -0.11514549616E+03  0.45544953820E+02  0.16694898762E+03  0.00000000000E+00 0.  1.
         -3    1    6    6    0  502  0.95693940137E+01  0.44204126143E+01 -0.29472620570E+00  0.10545151161E+02  0.00000000000E+00 0.  1.
<mgrwt>
<rscale>  0 0.16732859E+04</rscale>
<asrwt>0</asrwt>
<pdfrwt beam="1">  1        2 0.11705265E+00 0.16732859E+04</pdfrwt>
<pdfrwt beam="2">  1       -2 0.14153777E+00 0.16732859E+04</pdfrwt>
<totfact> 0.12246452E+01</totfact>
</mgrwt>
</event>
<event>
12    1  0.1114484E-007  0.1525416E+04  0.7818608E-02  0.8867725E-01
          3   -1    0    0  501    0  0.00000000000E+00  0.00000000000E+00  0.59703276443E+03  0.59703276443E+03  0.00000000000E+00 0. -1.
         -3   -1    0    0    0  501 -0.00000000000E+00 -0.00000000000E+00 -0.97435834378E+03  0.97435834378E+03  0.00000000000E+00 0.  1.
         23    2    1    2    0    0  0.45571709153E+03 -0.31470244326E+02 -0.31116965021E+03  0.55927386993E+03  0.85394769126E+02 0.  0.
        254    2    1    2    0    0 -0.45571709153E+03  0.31470244326E+02 -0.66155929143E+02  0.10121172383E+04  0.90074205701E+03 0.  0.
        -24    2    4    4    0    0 -0.42303826889E+03  0.30812192756E+03  0.24810411397E+03  0.58463240353E+03  0.79617188444E+02 0.  0.
         24    2    4    4    0    0 -0.32678822634E+02 -0.27665168324E+03 -0.31426004312E+03  0.42748483474E+03  0.79873962901E+02 0.  0.
         11    1    3    3    0    0  0.28672289190E+03 -0.60854779690E+02 -0.20116793538E+03  0.35550226325E+03  0.00000000000E+00 0.  1.
        -11    1    3    3    0    0  0.16899419963E+03  0.29384535364E+02 -0.11000171483E+03  0.20377160669E+03  0.00000000000E+00 0. -1.
          4    1    6    6  502    0  0.17155994931E+02 -0.17923498432E+03 -0.20515293280E+03  0.27296013189E+03  0.00000000000E+00 0. -1.
          3    1    5    5  503    0 -0.40358963727E+03  0.27435979090E+03  0.24352495822E+03  0.54540104093E+03  0.00000000000E+00 0. -1.
         -2    1    5    5    0  503 -0.19448631628E+02  0.33762136664E+02  0.45791557545E+01  0.39231362603E+02  0.00000000000E+00 0.  1.
         -3    1    6    6    0  502 -0.49834817565E+02 -0.97416698917E+02 -0.10910711032E+03  0.15452470285E+03  0.00000000000E+00 0.  1.
<mgrwt>
<rscale>  0 0.15254165E+04</rscale>
<asrwt>0</asrwt>
<pdfrwt beam="1">  1        3 0.91851194E-01 0.15254165E+04</pdfrwt>
<pdfrwt beam="2">  1       -3 0.14990128E+00 0.15254165E+04</pdfrwt>
<totfact> 0.86892899E-01</totfact>
</mgrwt>
</event>
<event>
12    1  0.1114484E-007  0.1195511E+04  0.7818608E-02  0.9116795E-01
          1   -1    0    0  501    0  0.00000000000E+00  0.00000000000E+00  0.14693758356E+04  0.14693758356E+04  0.00000000000E+00 0. -1.
         -1   -1    0    0    0  501 -0.00000000000E+00 -0.00000000000E+00 -0.24317248734E+03  0.24317248734E+03  0.00000000000E+00 0.  1.
         23    2    1    2    0    0 -0.15740453679E+03  0.22870580878E+02  0.56953939107E+03  0.59824956854E+03  0.90709297234E+02 0.  0.
        254    2    1    2    0    0  0.15740453679E+03 -0.22870580878E+02  0.65666395722E+03  0.11142987544E+04  0.88608967365E+03 0.  0.
        -24    2    4    4    0    0  0.34318650742E+03 -0.17005076999E+03  0.75098043939E+03  0.84684729452E+03  0.80526248163E+02 0.  0.
         24    2    4    4    0    0 -0.18578197062E+03  0.14718018911E+03 -0.94316482172E+02  0.26745145991E+03  0.80360039335E+02 0.  0.
         13    1    3    3    0    0 -0.59224192607E+02  0.72467549570E+01  0.86477249580E+02  0.10506348149E+03  0.00000000000E+00 0.  1.
        -13    1    3    3    0    0 -0.98180344188E+02  0.15623825921E+02  0.48306214149E+03  0.49318608706E+03  0.00000000000E+00 0. -1.
          2    1    6    6  502    0 -0.14442725155E+03  0.99041534353E+02 -0.10335404180E+03  0.20334825909E+03  0.00000000000E+00 0. -1.
          1    1    5    5  503    0  0.30201858240E+03 -0.11632955447E+03  0.62622967173E+03  0.70491942172E+03  0.00000000000E+00 0. -1.
         -2    1    5    5    0  503  0.41167925016E+02 -0.53721215516E+02  0.12475076766E+03  0.14192787280E+03  0.00000000000E+00 0.  1.
         -1    1    6    6    0  502 -0.41354719072E+02  0.48138654759E+02  0.90375596260E+01  0.64103200821E+02  0.00000000000E+00 0.  1.
<mgrwt>
<rscale>  0 0.11955112E+04</rscale>
<asrwt>0</asrwt>
<pdfrwt beam="1">  1        1 0.22605782E+00 0.11955112E+04</pdfrwt>
<pdfrwt beam="2">  1       -1 0.37411153E-01 0.11955112E+04</pdfrwt>
<totfact> 0.46790626E+01</totfact>
</mgrwt>
</event>
<event>
12    1  0.1114484E-007  0.2361194E+04  0.7818608E-02  0.8454176E-01
         -1   -1    0    0    0  501 -0.00000000000E+00  0.00000000000E+00  0.51392094991E+03  0.51392094991E+03  0.00000000000E+00 0.  1.
          1   -1    0    0  501    0  0.00000000000E+00 -0.00000000000E+00 -0.27121093215E+04  0.27121093215E+04  0.00000000000E+00 0. -1.
         23    2    1    2    0    0 -0.99413320948E+03 -0.14922003998E+03 -0.10330019788E+04  0.14443557097E+04  0.92211005284E+02 0.  0.
        254    2    1    2    0    0  0.99413320948E+03  0.14922003998E+03 -0.11651863928E+04  0.17816745617E+04  0.89785157753E+03 0.  0.
        -24    2    4    4    0    0  0.30999628590E+03  0.47087740382E+03 -0.64935259692E+03  0.86317379829E+03  0.74746131821E+02 0.  0.
         24    2    4    4    0    0  0.68413692359E+03 -0.32165736384E+03 -0.51583379588E+03  0.91850076340E+03  0.77796898863E+02 0.  0.
         11    1    3    3    0    0 -0.77585682766E+03 -0.11908957167E+03 -0.85872959845E+03  0.11634228235E+04  0.00000000000E+00 0. -1.
        -11    1    3    3    0    0 -0.21827638183E+03 -0.30130468314E+02 -0.17427238034E+03  0.28093288617E+03  0.00000000000E+00 0.  1.
          4    1    6    6  502    0  0.36777506503E+03 -0.15347999044E+03 -0.31337133279E+03  0.50696764999E+03  0.00000000000E+00 0. -1.
          3    1    5    5  503    0  0.20900861411E+03  0.37497651931E+03 -0.48223382568E+03  0.64563259942E+03  0.00000000000E+00 0. -1.
         -4    1    5    5    0  503  0.10098767178E+03  0.95900884513E+02 -0.16711877125E+03  0.21754119887E+03  0.00000000000E+00 0.  1.
         -3    1    6    6    0  502  0.31636185856E+03 -0.16817737340E+03 -0.20246246309E+03  0.41153311341E+03  0.00000000000E+00 0.  1.
<mgrwt>
<rscale>  0 0.23611944E+04</rscale>
<asrwt>0</asrwt>
<pdfrwt beam="1">  1        1 0.41724759E+00 0.23611944E+04</pdfrwt>
<pdfrwt beam="2">  1       -1 0.79064761E-01 0.23611944E+04</pdfrwt>
<totfact> 0.13837579E+00</totfact>
</mgrwt>
</event>
<event>
12    1  0.1114484E-007  0.1522383E+04  0.7818608E-02  0.8869703E-01
          2   -1    0    0  501    0  0.00000000000E+00  0.00000000000E+00  0.16620393721E+04  0.16620393721E+04  0.00000000000E+00 0. -1.
         -2   -1    0    0    0  501 -0.00000000000E+00 -0.00000000000E+00 -0.34861543433E+03  0.34861543433E+03  0.00000000000E+00 0.  1.
         23    2    1    2    0    0  0.44623282246E+03 -0.76939890475E+02  0.27651860327E+03  0.53878008084E+03  0.93690762450E+02 0.  0.
        254    2    1    2    0    0 -0.44623282246E+03  0.76939890475E+02  0.10369053345E+04  0.14718747256E+04  0.94138146176E+03 0.  0.
        -24    2    4    4    0    0 -0.55229490463E+03  0.14386312667E+03  0.11492527464E+04  0.12856982225E+04  0.80695621809E+02 0.  0.
         24    2    4    4    0    0  0.10606208216E+03 -0.66923236191E+02 -0.11234741192E+03  0.18617650306E+03  0.79447243582E+02 0.  0.
         11    1    3    3    0    0  0.83035427612E+01 -0.30015290548E+01 -0.75154614243E+01  0.11594833309E+02  0.00000000000E+00 0.  1.
        -11    1    3    3    0    0  0.43792927970E+03 -0.73938361420E+02  0.28403406469E+03  0.52718524753E+03  0.00000000000E+00 0. -1.
          4    1    6    6  502    0  0.16335590513E+02 -0.27702531666E+02  0.58465344104E+01  0.32687363656E+02  0.00000000000E+00 0. -1.
          1    1    5    5  503    0 -0.21749208804E+03  0.52593073608E+02  0.36546601650E+03  0.42852566897E+03  0.00000000000E+00 0. -1.
         -2    1    5    5    0  503 -0.33480281659E+03  0.91270053058E+02  0.78378672992E+03  0.85717255356E+03  0.00000000000E+00 0.  1.
         -3    1    6    6    0  502  0.89726491651E+02 -0.39220704525E+02 -0.11819394633E+03  0.15348913941E+03  0.00000000000E+00 0.  1.
<mgrwt>
<rscale>  0 0.15223831E+04</rscale>
<asrwt>0</asrwt>
<pdfrwt beam="1">  1        2 0.25569836E+00 0.15223831E+04</pdfrwt>
<pdfrwt beam="2">  1       -2 0.53633144E-01 0.15223831E+04</pdfrwt>
<totfact> 0.32528729E+01</totfact>
</mgrwt>
</event>
<event>
12    1  0.1114484E-007  0.1751357E+04  0.7818608E-02  0.8732604E-01
          1   -1    0    0  501    0  0.00000000000E+00  0.00000000000E+00  0.13162628399E+04  0.13162628399E+04  0.00000000000E+00 0. -1.
         -1   -1    0    0    0  501 -0.00000000000E+00 -0.00000000000E+00 -0.58256828267E+03  0.58256828267E+03  0.00000000000E+00 0.  1.
         23    2    1    2    0    0 -0.49578140925E+03 -0.40474524897E+03  0.27228316115E+03  0.70155639451E+03  0.91789610061E+02 0.  0.
        254    2    1    2    0    0  0.49578140925E+03  0.40474524897E+03  0.46141139610E+03  0.11972747281E+04  0.90052672127E+03 0.  0.
        -24    2    4    4    0    0  0.73233303160E+02  0.42334689154E+03  0.60182008045E+03  0.74393744118E+03  0.81668842900E+02 0.  0.
         24    2    4    4    0    0  0.42254810609E+03 -0.18601642567E+02 -0.14040868435E+03  0.45333728689E+03  0.83109409692E+02 0.  0.
         11    1    3    3    0    0 -0.31489629971E+03 -0.24343618531E+03  0.21555690987E+03  0.45264294679E+03  0.00000000000E+00 0.  1.
        -11    1    3    3    0    0 -0.18088510954E+03 -0.16130906366E+03  0.56726251282E+02  0.24891344772E+03  0.00000000000E+00 0. -1.
          2    1    6    6  502    0  0.12651476479E+02 -0.14283127479E+02 -0.16151959020E+02  0.24999067340E+02  0.00000000000E+00 0. -1.
          1    1    5    5  503    0  0.22833800844E+02  0.19077983885E+03  0.33684511610E+03  0.38779242078E+03  0.00000000000E+00 0. -1.
         -2    1    5    5    0  503  0.50399502316E+02  0.23256705269E+03  0.26497496434E+03  0.35614502040E+03  0.00000000000E+00 0.  1.
         -1    1    6    6    0  502  0.40989662961E+03 -0.43185150877E+01 -0.12425672533E+03  0.42833821955E+03  0.00000000000E+00 0.  1.
<mgrwt>
<rscale>  0 0.17513572E+04</rscale>
<asrwt>0</asrwt>
<pdfrwt beam="1">  1        1 0.20250198E+00 0.17513572E+04</pdfrwt>
<pdfrwt beam="2">  1       -1 0.89625890E-01 0.17513572E+04</pdfrwt>
<totfact> 0.10173307E+01</totfact>
</mgrwt>
</event>
<event>
12    1  0.1114484E-007  0.2562726E+04  0.7818608E-02  0.8380974E-01
         -1   -1    0    0    0  501 -0.00000000000E+00  0.00000000000E+00  0.16675130665E+04  0.16675130665E+04  0.00000000000E+00 0.  1.
          1   -1    0    0  501    0  0.00000000000E+00 -0.00000000000E+00 -0.98463440306E+03  0.98463440306E+03  0.00000000000E+00 0. -1.
         23    2    1    2    0    0  0.39638658207E+02  0.44316745079E+03  0.13620781910E+04  0.14357397158E+04  0.90127245609E+02 0.  0.
        254    2    1    2    0    0 -0.39638658207E+02 -0.44316745079E+03 -0.67919952759E+03  0.12164077537E+04  0.90574125026E+03 0.  0.
        -24    2    4    4    0    0 -0.45547966818E+02 -0.17350934748E+03 -0.85968101354E+03  0.88205131445E+03  0.82358759960E+02 0.  0.
         24    2    4    4    0    0  0.59093086108E+01 -0.26965810331E+03  0.18048148595E+03  0.33435643929E+03  0.80437858730E+02 0.  0.
         11    1    3    3    0    0 -0.94802126980E+01  0.71844517034E+02  0.14139353608E+03  0.15888247577E+03  0.00000000000E+00 0. -1.
        -11    1    3    3    0    0  0.49118870905E+02  0.37132293375E+03  0.12206846549E+04  0.12768572400E+04  0.00000000000E+00 0.  1.
          4    1    6    6  502    0  0.41571351566E+02 -0.10963478109E+03  0.82381445700E+02  0.14329921525E+03  0.00000000000E+00 0. -1.
          1    1    5    5  503    0 -0.29377768212E+02 -0.16039645293E+03 -0.82956654836E+03  0.84544114730E+03  0.00000000000E+00 0. -1.
         -2    1    5    5    0  503 -0.16170198606E+02 -0.13112894546E+02 -0.30114465179E+02  0.36610167158E+02  0.00000000000E+00 0.  1.
         -1    1    6    6    0  502 -0.35662042955E+02 -0.16002332222E+03  0.98100040249E+02  0.19105722404E+03  0.00000000000E+00 0.  1.
<mgrwt>
<rscale>  0 0.25627257E+04</rscale>
<asrwt>0</asrwt>
<pdfrwt beam="1">  1        1 0.15148222E+00 0.25627257E+04</pdfrwt>
<pdfrwt beam="2">  1       -1 0.25654047E+00 0.25627257E+04</pdfrwt>
<totfact> 0.86864571E-01</totfact>
</mgrwt>
</event>
<event>
12    1  0.1114484E-007  0.1485618E+04  0.7818608E-02  0.8894074E-01
          1   -1    0    0  501    0  0.00000000000E+00  0.00000000000E+00  0.95400695347E+03  0.95400695347E+03  0.00000000000E+00 0. -1.
         -1   -1    0    0    0  501 -0.00000000000E+00 -0.00000000000E+00 -0.57836583370E+03  0.57836583370E+03  0.00000000000E+00 0.  1.
         23    2    1    2    0    0 -0.32734496133E+03  0.23205274422E+03 -0.12821937266E+03  0.43065851162E+03  0.89573133804E+02 0.  0.
        254    2    1    2    0    0  0.32734496133E+03 -0.23205274422E+03  0.50386049243E+03  0.11017142755E+04  0.89380968292E+03 0.  0.
        -24    2    4    4    0    0  0.27751203341E+03 -0.32437368417E+03 -0.13055414318E+03  0.45369839782E+03  0.81034784012E+02 0.  0.
         24    2    4    4    0    0  0.49832927926E+02  0.92320939948E+02  0.63441463561E+03  0.64801587772E+03  0.80225751712E+02 0.  0.
         13    1    3    3    0    0 -0.18855200046E+02  0.60510227164E+01 -0.29800739509E+02  0.35780127445E+02  0.00000000000E+00 0. -1.
        -13    1    3    3    0    0 -0.30848976129E+03  0.22600172150E+03 -0.98418633154E+02  0.39487838418E+03  0.00000000000E+00 0.  1.
          2    1    6    6  502    0  0.71235948972E+02  0.80961326183E+02  0.51724154399E+03  0.52836361683E+03  0.00000000000E+00 0. -1.
          1    1    5    5  503    0  0.11940070595E+03 -0.14601274124E+03 -0.99734836376E+02  0.21336186813E+03  0.00000000000E+00 0. -1.
         -2    1    5    5    0  503  0.15811132746E+03 -0.17836094293E+03 -0.30819306805E+02  0.24033652969E+03  0.00000000000E+00 0.  1.
         -1    1    6    6    0  502 -0.21403021046E+02  0.11359613765E+02  0.11717309162E+03  0.11965226088E+03  0.00000000000E+00 0.  1.
<mgrwt>
<rscale>  0 0.14856178E+04</rscale>
<asrwt>0</asrwt>
<pdfrwt beam="1">  1        1 0.14677030E+00 0.14856178E+04</pdfrwt>
<pdfrwt beam="2">  1       -1 0.88979359E-01 0.14856178E+04</pdfrwt>
<totfact> 0.19743676E+01</totfact>
</mgrwt>
</event>
<event>
12    1  0.1114484E-007  0.1175720E+04  0.7818608E-02  0.9134379E-01
         -2   -1    0    0    0  501 -0.00000000000E+00  0.00000000000E+00  0.12746233040E+03  0.12746233040E+03  0.00000000000E+00 0.  1.
          2   -1    0    0  501    0  0.00000000000E+00 -0.00000000000E+00 -0.27112255749E+04  0.27112255749E+04  0.00000000000E+00 0. -1.
         23    2    1    2    0    0  0.22546609427E+03  0.38948966027E+02 -0.58322909279E+03  0.63311087515E+03  0.91220742920E+02 0.  0.
        254    2    1    2    0    0 -0.22546609427E+03 -0.38948966027E+02 -0.20005341517E+04  0.22055770302E+04  0.90004508897E+03 0.  0.
        -24    2    4    4    0    0  0.31840771769E+03 -0.14851057954E+02 -0.11231256350E+04  0.11698038719E+04  0.73660561162E+02 0.  0.
         24    2    4    4    0    0 -0.54387381195E+03 -0.24097908073E+02 -0.87740851677E+03  0.10357731582E+04  0.81245907864E+02 0.  0.
         11    1    3    3    0    0  0.11996834110E+02  0.27150866271E+02 -0.44313363404E+02  0.53336364181E+02  0.00000000000E+00 0.  1.
        -11    1    3    3    0    0  0.21346926015E+03  0.11798099756E+02 -0.53891572938E+03  0.57977451097E+03  0.00000000000E+00 0. -1.
          2    1    6    6  502    0 -0.28088032899E+02 -0.17628160841E+02 -0.73076825472E+02  0.80249062723E+02  0.00000000000E+00 0. -1.
          3    1    5    5  503    0  0.89872427033E+02  0.28418293908E+02 -0.34703443315E+03  0.35960749487E+03  0.00000000000E+00 0. -1.
         -4    1    5    5    0  503  0.22853529065E+03 -0.43269351862E+02 -0.77609120180E+03  0.81019637706E+03  0.00000000000E+00 0.  1.
         -1    1    6    6    0  502 -0.51578577905E+03 -0.64697472318E+01 -0.80433169130E+03  0.95552409553E+03  0.00000000000E+00 0.  1.
<mgrwt>
<rscale>  0 0.11757196E+04</rscale>
<asrwt>0</asrwt>
<pdfrwt beam="1">  1        2 0.41711166E+00 0.11757196E+04</pdfrwt>
<pdfrwt beam="2">  1       -2 0.19609588E-01 0.11757196E+04</pdfrwt>
<totfact> 0.57767482E+01</totfact>
</mgrwt>
</event>
<event>
12    1  0.1114484E-007  0.1462993E+04  0.7818608E-02  0.8909442E-01
         -2   -1    0    0    0  501 -0.00000000000E+00  0.00000000000E+00  0.18147914429E+04  0.18147914429E+04  0.00000000000E+00 0.  1.
          2   -1    0    0  501    0  0.00000000000E+00 -0.00000000000E+00 -0.29484781675E+03  0.29484781675E+03  0.00000000000E+00 0. -1.
         23    2    1    2    0    0 -0.23739272426E+03 -0.34814172699E+03  0.25169124240E+03  0.49882742676E+03  0.89007598464E+02 0.  0.
        254    2    1    2    0    0  0.23739272426E+03  0.34814172699E+03  0.12682523837E+04  0.16108118329E+04  0.89927342031E+03 0.  0.
        -24    2    4    4    0    0  0.20823904710E+03  0.21071180708E+03  0.13800544040E+04  0.14138018247E+04  0.80761841655E+02 0.  0.
         24    2    4    4    0    0  0.29153677161E+02  0.13742991991E+03 -0.11180202029E+03  0.19701000817E+03  0.81094585513E+02 0.  0.
         11    1    3    3    0    0 -0.17801909404E+03 -0.25557109527E+03  0.22887195787E+03  0.38650970969E+03  0.00000000000E+00 0. -1.
        -11    1    3    3    0    0 -0.59373630217E+02 -0.92570631715E+02  0.22819284523E+02  0.11231771707E+03  0.00000000000E+00 0.  1.
          4    1    6    6  502    0 -0.23455540365E+02  0.28664929605E+02 -0.47217337881E+02  0.60010978659E+02  0.00000000000E+00 0. -1.
          3    1    5    5  503    0  0.19782869583E+03  0.17757540995E+03  0.12935754891E+04  0.13206084829E+04  0.00000000000E+00 0. -1.
         -4    1    5    5    0  503  0.10410351267E+02  0.33136397131E+02  0.86478914935E+02  0.93193341805E+02  0.00000000000E+00 0.  1.
         -3    1    6    6    0  502  0.52609217527E+02  0.10876499031E+03 -0.64584682412E+02  0.13699902951E+03  0.00000000000E+00 0.  1.
<mgrwt>
<rscale>  0 0.14629932E+04</rscale>
<asrwt>0</asrwt>
<pdfrwt beam="1">  1        2 0.45361204E-01 0.14629932E+04</pdfrwt>
<pdfrwt beam="2">  1       -2 0.27919868E+00 0.14629932E+04</pdfrwt>
<totfact> 0.46307521E+00</totfact>
</mgrwt>
</event>
<event>
12    1  0.1114484E-007  0.1762555E+04  0.7818608E-02  0.8726470E-01
          2   -1    0    0  501    0  0.00000000000E+00  0.00000000000E+00  0.22330592930E+04  0.22330592930E+04  0.00000000000E+00 0. -1.
         -2   -1    0    0    0  501 -0.00000000000E+00 -0.00000000000E+00 -0.34779639001E+03  0.34779639001E+03  0.00000000000E+00 0.  1.
         23    2    1    2    0    0 -0.36774576191E+03  0.50246094135E+03  0.96267555078E+03  0.11503150812E+04  0.93683653677E+02 0.  0.
        254    2    1    2    0    0  0.36774576191E+03 -0.50246094135E+03  0.92258735224E+03  0.14305406018E+04  0.89865179464E+03 0.  0.
        -24    2    4    4    0    0  0.35647451543E+03 -0.65896803751E+03  0.35016598119E+03  0.83176395205E+03  0.88893773336E+02 0.  0.
         24    2    4    4    0    0  0.11271246487E+02  0.15650709616E+03  0.57242137106E+03  0.59877664979E+03  0.79029982569E+02 0.  0.
         11    1    3    3    0    0 -0.23512279033E+03  0.36163595849E+03  0.59567313759E+03  0.73545209215E+03  0.00000000000E+00 0.  1.
        -11    1    3    3    0    0 -0.13262297159E+03  0.14082498286E+03  0.36700241319E+03  0.41486298904E+03  0.00000000000E+00 0. -1.
          4    1    6    6  502    0  0.67251206775E+01 -0.82896547517E+01  0.41321155308E+02  0.42677669806E+02  0.00000000000E+00 0. -1.
          1    1    5    5  503    0  0.13430423878E+03 -0.22545705775E+03  0.16849671369E+03  0.31186480399E+03  0.00000000000E+00 0. -1.
         -2    1    5    5    0  503  0.22217027665E+03 -0.43351097977E+03  0.18166926749E+03  0.51989914806E+03  0.00000000000E+00 0.  1.
         -3    1    6    6    0  502  0.45461258099E+01  0.16479675091E+03  0.53110021575E+03  0.55609897999E+03  0.00000000000E+00 0.  1.
<mgrwt>
<rscale>  0 0.17625549E+04</rscale>
<asrwt>0</asrwt>
<pdfrwt beam="1">  1        2 0.34354758E+00 0.17625549E+04</pdfrwt>
<pdfrwt beam="2">  1       -2 0.53507138E-01 0.17625549E+04</pdfrwt>
<totfact> 0.15426051E+01</totfact>
</mgrwt>
</event>
<event>
12    1  0.1114484E-007  0.2109910E+04  0.7818608E-02  0.8556891E-01
          2   -1    0    0  501    0  0.00000000000E+00  0.00000000000E+00  0.22850927959E+04  0.22850927959E+04  0.00000000000E+00 0.  1.
         -2   -1    0    0    0  501 -0.00000000000E+00 -0.00000000000E+00 -0.48703928004E+03  0.48703928004E+03  0.00000000000E+00 0. -1.
         23    2    1    2    0    0  0.46871087750E+03 -0.67939578588E+03  0.79483146198E+03  0.11494943042E+04  0.91167877955E+02 0.  0.
        254    2    1    2    0    0 -0.46871087750E+03  0.67939578588E+03  0.10032220539E+04  0.16226377717E+04  0.97222956563E+03 0.  0.
        -24    2    4    4    0    0  0.12134637356E+02 -0.22022114833E+03  0.30124019777E+03  0.38180898646E+03  0.79923975087E+02 0.  0.
         24    2    4    4    0    0 -0.48084551485E+03  0.89961693421E+03  0.70198185614E+03  0.12408287853E+04  0.79715184013E+02 0.  0.
         11    1    3    3    0    0  0.45187487361E+03 -0.66457799558E+03  0.78921749244E+03  0.11263743001E+04  0.00000000000E+00 0. -1.
        -11    1    3    3    0    0  0.16836003885E+02 -0.14817790299E+02  0.56139695384E+01  0.23120004112E+02  0.00000000000E+00 0.  1.
          4    1    6    6  502    0 -0.48107099736E+03  0.90006519837E+03  0.69709421467E+03  0.12359154542E+04  0.00000000000E+00 0. -1.
          1    1    5    5  503    0  0.30308969179E+02 -0.17540874066E+03  0.18918664709E+03  0.25976613973E+03  0.00000000000E+00 0. -1.
         -2    1    5    5    0  503 -0.18174331823E+02 -0.44812407674E+02  0.11205355068E+03  0.12204284674E+03  0.00000000000E+00 0.  1.
         -1    1    6    6    0  502  0.22548251137E+00 -0.44826415894E+00  0.48876414691E+01  0.49133310747E+01  0.00000000000E+00 0.  1.
<mgrwt>
<rscale>  0 0.21099099E+04</rscale>
<asrwt>0</asrwt>
<pdfrwt beam="1">  1        2 0.35155273E+00 0.21099099E+04</pdfrwt>
<pdfrwt beam="2">  1       -2 0.74929121E-01 0.21099099E+04</pdfrwt>
<totfact> 0.68113205E+00</totfact>
</mgrwt>
</event>
<event>
12    1  0.1114484E-007  0.1985137E+04  0.7818608E-02  0.8613601E-01
          2   -1    0    0  501    0  0.00000000000E+00  0.00000000000E+00  0.12202676532E+04  0.12202676532E+04  0.00000000000E+00 0. -1.
         -2   -1    0    0    0  501 -0.00000000000E+00 -0.00000000000E+00 -0.80735787999E+03  0.80735787999E+03  0.00000000000E+00 0.  1.
         23    2    1    2    0    0  0.75606928729E+03  0.21485895206E+03  0.22148444537E+03  0.82129134404E+03  0.87515574632E+02 0.  0.
        254    2    1    2    0    0 -0.75606928729E+03 -0.21485895206E+03  0.19142532785E+03  0.12063341892E+04  0.89487059585E+03 0.  0.
        -24    2    4    4    0    0 -0.25657690549E+03 -0.33966563941E+03  0.45009592311E+03  0.62466735300E+03  0.80115584477E+02 0.  0.
         24    2    4    4    0    0 -0.49949238180E+03  0.12480668735E+03 -0.25867059526E+03  0.58166683615E+03  0.79727553232E+02 0.  0.
         11    1    3    3    0    0  0.58098738194E+03  0.19100169479E+03  0.14373030790E+03  0.62824070769E+03  0.00000000000E+00 0. -1.
        -11    1    3    3    0    0  0.17508190534E+03  0.23857257267E+02  0.77754137469E+02  0.19305063635E+03  0.00000000000E+00 0.  1.
          2    1    6    6  502    0 -0.12948880401E+03  0.26376377157E+01 -0.86018743845E+02  0.15547839654E+03  0.00000000000E+00 0. -1.
          1    1    5    5  503    0 -0.25787439632E+03 -0.31340312641E+03  0.43202646588E+03  0.59276267691E+03  0.00000000000E+00 0. -1.
         -2    1    5    5    0  503  0.12974908330E+01 -0.26262512999E+02  0.18069457237E+02  0.31904676089E+02  0.00000000000E+00 0.  1.
         -1    1    6    6    0  502 -0.37000357779E+03  0.12216904964E+03 -0.17265185141E+03  0.42618843962E+03  0.00000000000E+00 0.  1.
<mgrwt>
<rscale>  0 0.19851375E+04</rscale>
<asrwt>0</asrwt>
<pdfrwt beam="1">  1        2 0.18773349E+00 0.19851375E+04</pdfrwt>
<pdfrwt beam="2">  1       -2 0.12420890E+00 0.19851375E+04</pdfrwt>
<totfact> 0.83488919E+00</totfact>
</mgrwt>
</event>
<event>
12    1  0.1397579E-007  0.1265390E+04  0.7818608E-02  0.9057470E-01
         -1   -1    0    0    0  501 -0.00000000000E+00  0.00000000000E+00  0.37067522166E+03  0.37067522166E+03  0.00000000000E+00 0.  1.
          1   -1    0    0  501    0  0.00000000000E+00 -0.00000000000E+00 -0.10799298048E+04  0.10799298048E+04  0.00000000000E+00 0. -1.
         23    2    1    2    0    0  0.85350467680E+02  0.13520578961E+03 -0.43531586885E+03  0.47257774345E+03  0.90909350752E+02 0.  0.
        254    2    1    2    0    0 -0.85350467680E+02 -0.13520578961E+03 -0.27393871432E+03  0.97802728303E+03  0.92516465522E+03 0.  0.
        -24    2    4    4    0    0 -0.87926091930E+01 -0.33247762054E+03  0.23788290933E+03  0.41731479613E+03  0.83334760951E+02 0.  0.
         24    2    4    4    0    0 -0.76557858487E+02  0.19727183093E+03 -0.51182162365E+03  0.56071248690E+03  0.87520497905E+02 0.  0.
         11    1    3    3    0    0  0.10400131592E+03  0.10929049580E+03 -0.37751779571E+03  0.40654688815E+03  0.00000000000E+00 0. -1.
        -11    1    3    3    0    0 -0.18650848238E+02  0.25915293809E+02 -0.57798073141E+02  0.66030855303E+02  0.00000000000E+00 0.  1.
          4    1    6    6  502    0 -0.85623374300E+01  0.46417481833E+02 -0.44149873746E+02  0.64630546909E+02  0.00000000000E+00 0. -1.
          1    1    5    5  503    0 -0.16233107422E+01 -0.61802809674E+02  0.84236332969E+01  0.62395352546E+02  0.00000000000E+00 0. -1.
         -2    1    5    5    0  503 -0.71692984508E+01 -0.27067481087E+03  0.22945927604E+03  0.35491944359E+03  0.00000000000E+00 0.  1.
         -3    1    6    6    0  502 -0.67995521057E+02  0.15085434909E+03 -0.46767174991E+03  0.49608193999E+03  0.00000000000E+00 0.  1.
<mgrwt>
<rscale>  0 0.12653904E+04</rscale>
<asrwt>0</asrwt>
<pdfrwt beam="1">  1        1 0.16614304E+00 0.12653904E+04</pdfrwt>
<pdfrwt beam="2">  1       -1 0.57026958E-01 0.12653904E+04</pdfrwt>
<totfact> 0.40262709E+01</totfact>
</mgrwt>
</event>
<event>
12    1  0.1114484E-007  0.1459478E+04  0.7818608E-02  0.8911856E-01
         -2   -1    0    0    0  501 -0.00000000000E+00  0.00000000000E+00  0.24982059198E+03  0.24982059198E+03  0.00000000000E+00 0.  1.
          2   -1    0    0  501    0  0.00000000000E+00 -0.00000000000E+00 -0.21316060554E+04  0.21316060554E+04  0.00000000000E+00 0. -1.
         23    2    1    2    0    0  0.15453378338E+03 -0.37661845282E+03 -0.87367568391E+03  0.96746486353E+03  0.83408106866E+02 0.  0.
        254    2    1    2    0    0 -0.15453378338E+03  0.37661845282E+03 -0.10081097795E+04  0.14139617838E+04  0.90403564610E+03 0.  0.
        -24    2    4    4    0    0  0.31286553159E+03  0.22318299232E+03 -0.14819483488E+03  0.41958107075E+03  0.79944211369E+02 0.  0.
         24    2    4    4    0    0 -0.46739931497E+03  0.15343546051E+03 -0.85991494459E+03  0.99438071307E+03  0.85643040675E+02 0.  0.
         11    1    3    3    0    0  0.57106094628E+02 -0.10651183931E+03 -0.34933758454E+03  0.36965203358E+03  0.00000000000E+00 0.  1.
        -11    1    3    3    0    0  0.97427688751E+02 -0.27010661352E+03 -0.52433809937E+03  0.59781282995E+03  0.00000000000E+00 0. -1.
          4    1    6    6  502    0 -0.39218295486E+03  0.15674954510E+03 -0.69829091234E+03  0.81608093240E+03  0.00000000000E+00 0. -1.
          3    1    5    5  503    0  0.20611588344E+03  0.11832062151E+03 -0.57204600306E+02  0.24445018546E+03  0.00000000000E+00 0. -1.
         -4    1    5    5    0  503  0.10674964815E+03  0.10486237081E+03 -0.90990234574E+02  0.17513088528E+03  0.00000000000E+00 0.  1.
         -3    1    6    6    0  502 -0.75216360103E+02 -0.33140845913E+01 -0.16162403226E+03  0.17829978067E+03  0.00000000000E+00 0.  1.
<mgrwt>
<rscale>  0 0.14594781E+04</rscale>
<asrwt>0</asrwt>
<pdfrwt beam="1">  1        2 0.32793939E+00 0.14594781E+04</pdfrwt>
<pdfrwt beam="2">  1       -2 0.38433938E-01 0.14594781E+04</pdfrwt>
<totfact> 0.34990345E+01</totfact>
</mgrwt>
</event>
<event>
12    1  0.1114484E-007  0.1274133E+04  0.7818608E-02  0.9050333E-01
         -3   -1    0    0    0  501 -0.00000000000E+00  0.00000000000E+00  0.95010201382E+03  0.95010201382E+03  0.00000000000E+00 0.  1.
          3   -1    0    0  501    0  0.00000000000E+00 -0.00000000000E+00 -0.42716840255E+03  0.42716840255E+03  0.00000000000E+00 0. -1.
         23    2    1    2    0    0  0.89204975196E+02  0.33601946435E+02  0.41688380859E+03  0.43740597260E+03  0.91898077223E+02 0.  0.
        254    2    1    2    0    0 -0.89204975196E+02 -0.33601946435E+02  0.10604980268E+03  0.93986444377E+03  0.92898438825E+03 0.  0.
        -24    2    4    4    0    0  0.10241777595E+03  0.41440359519E+03 -0.24311009243E+01  0.43442291574E+03  0.80607809376E+02 0.  0.
         24    2    4    4    0    0 -0.19162275114E+03 -0.44800554162E+03  0.10848090361E+03  0.50544152803E+03  0.79213557773E+02 0.  0.
         11    1    3    3    0    0 -0.14199366260E+02 -0.10843433796E+02  0.35218306964E+02  0.39490900269E+02  0.00000000000E+00 0. -1.
        -11    1    3    3    0    0  0.10340434146E+03  0.44445380231E+02  0.38166550163E+03  0.39791507233E+03  0.00000000000E+00 0.  1.
          2    1    6    6  502    0 -0.49378048235E+02 -0.21464353405E+03  0.53852514492E+02  0.22673802432E+03  0.00000000000E+00 0. -1.
          1    1    5    5  503    0 -0.12376439502E+02  0.46182365862E+02  0.85306311946E+01  0.48567055088E+02  0.00000000000E+00 0. -1.
         -2    1    5    5    0  503  0.11479421545E+03  0.36822122932E+03 -0.10961732119E+02  0.38585586065E+03  0.00000000000E+00 0.  1.
         -1    1    6    6    0  502 -0.14224470291E+03 -0.23336200757E+03  0.54628389114E+02  0.27870350371E+03  0.00000000000E+00 0.  1.
<mgrwt>
<rscale>  0 0.12741327E+04</rscale>
<asrwt>0</asrwt>
<pdfrwt beam="1">  1        3 0.65718216E-01 0.12741327E+04</pdfrwt>
<pdfrwt beam="2">  1       -3 0.14616954E+00 0.12741327E+04</pdfrwt>
<totfact> 0.19850173E+00</totfact>
</mgrwt>
</event>
<event>
12    1  0.1114484E-007  0.1308434E+04  0.7818608E-02  0.9022904E-01
          1   -1    0    0  501    0  0.00000000000E+00  0.00000000000E+00  0.79893626170E+03  0.79893626170E+03  0.00000000000E+00 0. -1.
         -1   -1    0    0    0  501 -0.00000000000E+00 -0.00000000000E+00 -0.53571186216E+03  0.53571186216E+03  0.00000000000E+00 0.  1.
         23    2    1    2    0    0 -0.90526960750E+01 -0.11563282536E+03 -0.24673018589E+03  0.28774925480E+03  0.92037749885E+02 0.  0.
        254    2    1    2    0    0  0.90526960750E+01  0.11563282536E+03  0.50995458542E+03  0.10468988691E+04  0.90691270872E+03 0.  0.
        -24    2    4    4    0    0  0.25369030702E+03  0.40028420474E+03  0.44869162467E+03  0.65760775690E+03  0.80855249973E+02 0.  0.
         24    2    4    4    0    0 -0.24463761094E+03 -0.28465137938E+03  0.61262960753E+02  0.38929111216E+03  0.83189249174E+02 0.  0.
         11    1    3    3    0    0  0.28734269789E+02 -0.67226273967E+02 -0.72286161196E+02  0.10281205801E+03  0.00000000000E+00 0. -1.
        -11    1    3    3    0    0 -0.37786965864E+02 -0.48406551395E+02 -0.17444402469E+03  0.18493719679E+03  0.00000000000E+00 0.  1.
          2    1    6    6  502    0 -0.12102538265E+03 -0.19817650055E+03  0.53160437397E+02  0.23821649968E+03  0.00000000000E+00 0. -1.
          3    1    5    5  503    0  0.25799469497E+03  0.38819131556E+03  0.42556227037E+03  0.63115529473E+03  0.00000000000E+00 0. -1.
         -4    1    5    5    0  503 -0.43043879510E+01  0.12092889184E+02  0.23129354304E+02  0.26452462172E+02  0.00000000000E+00 0.  1.
         -1    1    6    6    0  502 -0.12361222829E+03 -0.86474878832E+02  0.81025233553E+01  0.15107461248E+03  0.00000000000E+00 0.  1.
<mgrwt>
<rscale>  0 0.13084336E+04</rscale>
<asrwt>0</asrwt>
<pdfrwt beam="1">  1        1 0.12291327E+00 0.13084336E+04</pdfrwt>
<pdfrwt beam="2">  1       -1 0.82417210E-01 0.13084336E+04</pdfrwt>
<totfact> 0.31853795E+01</totfact>
</mgrwt>
</event>
<event>
12    1  0.1114484E-007  0.2437457E+04  0.7818608E-02  0.8425612E-01
          1   -1    0    0  501    0  0.00000000000E+00  0.00000000000E+00  0.15706739976E+04  0.15706739976E+04  0.00000000000E+00 0. -1.
         -1   -1    0    0    0  501 -0.00000000000E+00 -0.00000000000E+00 -0.94564418528E+03  0.94564418528E+03  0.00000000000E+00 0.  1.
         23    2    1    2    0    0  0.84456556023E+03 -0.52241960916E+03 -0.77624910060E+02  0.10002121831E+04  0.90474035392E+02 0.  0.
        254    2    1    2    0    0 -0.84456556023E+03  0.52241960916E+03  0.70265472242E+03  0.15161059998E+04  0.90478754968E+03 0.  0.
        -24    2    4    4    0    0 -0.62517868462E+03 -0.86684664775E+02  0.56315821265E+03  0.84974362853E+03  0.80959514191E+02 0.  0.
         24    2    4    4    0    0 -0.21938687561E+03  0.60910427394E+03  0.13949650977E+03  0.66636237124E+03  0.73762564032E+02 0.  0.
         11    1    3    3    0    0  0.67005990105E+03 -0.41373752698E+03 -0.24526849157E+02  0.78788360724E+03  0.00000000000E+00 0.  1.
        -11    1    3    3    0    0  0.17450565918E+03 -0.10868208219E+03 -0.53098060902E+02  0.21232857590E+03  0.00000000000E+00 0. -1.
          2    1    6    6  502    0 -0.81110007758E+01  0.96543340949E+01 -0.65462498987E+01  0.14207318119E+02  0.00000000000E+00 0. -1.
          1    1    5    5  503    0 -0.35724159077E+03 -0.67103709661E+02  0.27513555606E+03  0.45587721618E+03  0.00000000000E+00 0. -1.
         -2    1    5    5    0  503 -0.26793709385E+03 -0.19580955114E+02  0.28802265660E+03  0.39386641235E+03  0.00000000000E+00 0.  1.
         -1    1    6    6    0  502 -0.21127587483E+03  0.59944993984E+03  0.14604275966E+03  0.65215505312E+03  0.00000000000E+00 0.  1.
<mgrwt>
<rscale>  0 0.24374567E+04</rscale>
<asrwt>0</asrwt>
<pdfrwt beam="1">  1        1 0.24164215E+00 0.24374567E+04</pdfrwt>
<pdfrwt beam="2">  1       -1 0.14548372E+00 0.24374567E+04</pdfrwt>
<totfact> 0.19774149E+00</totfact>
</mgrwt>
</event>
<event>
12    1  0.1114484E-007  0.1161164E+04  0.7818608E-02  0.9147546E-01
          2   -1    0    0  501    0  0.00000000000E+00  0.00000000000E+00  0.79838583375E+03  0.79838583375E+03  0.00000000000E+00 0. -1.
         -2   -1    0    0    0  501 -0.00000000000E+00 -0.00000000000E+00 -0.42219599908E+03  0.42219599908E+03  0.00000000000E+00 0.  1.
         23    2    1    2    0    0  0.73130344017E+02  0.20584843113E+03  0.11128743624E+03  0.26156590656E+03  0.91160332371E+02 0.  0.
        254    2    1    2    0    0 -0.73130344017E+02 -0.20584843113E+03  0.26490239843E+03  0.95901592628E+03  0.89544214907E+03 0.  0.
        -24    2    4    4    0    0  0.28003072642E+03 -0.44738671457E+02  0.43654444244E+03  0.52711155863E+03  0.82805727776E+02 0.  0.
         24    2    4    4    0    0 -0.35316107044E+03 -0.16110975967E+03 -0.17164204400E+03  0.43190436764E+03  0.80008094490E+02 0.  0.
         11    1    3    3    0    0  0.73218128641E+02  0.15790587310E+03  0.12185718093E+03  0.21247195501E+03  0.00000000000E+00 0. -1.
        -11    1    3    3    0    0 -0.87784624224E-01  0.47942558033E+02 -0.10569744690E+02  0.49093951559E+02  0.00000000000E+00 0.  1.
          2    1    6    6  502    0 -0.23970922225E+03 -0.88174393734E+02 -0.14732642749E+03  0.29485642468E+03  0.00000000000E+00 0. -1.
          3    1    5    5  503    0  0.16110903153E+03 -0.66736813474E+02  0.26451528881E+03  0.31682528360E+03  0.00000000000E+00 0. -1.
         -4    1    5    5    0  503  0.11892169489E+03  0.21998142017E+02  0.17202915363E+03  0.21028627503E+03  0.00000000000E+00 0.  1.
         -1    1    6    6    0  502 -0.11345184819E+03 -0.72935365939E+02 -0.24315616515E+02  0.13704794296E+03  0.00000000000E+00 0.  1.
<mgrwt>
<rscale>  0 0.11611637E+04</rscale>
<asrwt>0</asrwt>
<pdfrwt beam="1">  1        2 0.12282859E+00 0.11611637E+04</pdfrwt>
<pdfrwt beam="2">  1       -2 0.64953231E-01 0.11611637E+04</pdfrwt>
<totfact> 0.74734500E+01</totfact>
</mgrwt>
</event>
<event>
12    1  0.1114484E-007  0.1873683E+04  0.7818608E-02  0.8668068E-01
         -2   -1    0    0    0  501 -0.00000000000E+00  0.00000000000E+00  0.82836417483E+03  0.82836417483E+03  0.00000000000E+00 0.  1.
          2   -1    0    0  501    0  0.00000000000E+00 -0.00000000000E+00 -0.10595242095E+04  0.10595242095E+04  0.00000000000E+00 0. -1.
         23    2    1    2    0    0  0.66738434742E+03 -0.25493818574E+03 -0.78570631419E+02  0.72439591053E+03  0.90447472873E+02 0.  0.
        254    2    1    2    0    0 -0.66738434742E+03  0.25493818574E+03 -0.15258940323E+03  0.11634924738E+04  0.90555831664E+03 0.  0.
        -24    2    4    4    0    0 -0.68103147748E+03  0.63978749411E+02  0.23172967840E+03  0.72664683317E+03  0.80123795558E+02 0.  0.
         24    2    4    4    0    0  0.13647130060E+02  0.19095943633E+03 -0.38431908162E+03  0.43684564061E+03  0.80505942256E+02 0.  0.
         11    1    3    3    0    0  0.44449035557E+03 -0.15625816699E+03 -0.10356431596E+02  0.47127014187E+03  0.00000000000E+00 0. -1.
        -11    1    3    3    0    0  0.22289399185E+03 -0.98680018751E+02 -0.68214199823E+02  0.25312576866E+03  0.00000000000E+00 0.  1.
          2    1    6    6  502    0 -0.48525282254E+01  0.50712257365E+01  0.23618059705E+01  0.74055714223E+01  0.00000000000E+00 0. -1.
          1    1    5    5  503    0 -0.16454598982E+03  0.57086256507E+01  0.21763856142E+02  0.16607720074E+03  0.00000000000E+00 0. -1.
         -2    1    5    5    0  503 -0.51648548766E+03  0.58270123760E+02  0.20996582225E+03  0.56056963243E+03  0.00000000000E+00 0.  1.
         -1    1    6    6    0  502  0.18499658286E+02  0.18588821059E+03 -0.38668088759E+03  0.42944006919E+03  0.00000000000E+00 0.  1.
<mgrwt>
<rscale>  0 0.18736829E+04</rscale>
<asrwt>0</asrwt>
<pdfrwt beam="1">  1        2 0.16300372E+00 0.18736829E+04</pdfrwt>
<pdfrwt beam="2">  1       -2 0.12744064E+00 0.18736829E+04</pdfrwt>
<totfact> 0.98967377E+00</totfact>
</mgrwt>
</event>
<event>
12    1  0.1114484E-007  0.2510897E+04  0.7818608E-02  0.8399114E-01
          1   -1    0    0  501    0  0.00000000000E+00  0.00000000000E+00  0.24017963038E+04  0.24017963038E+04  0.00000000000E+00 0. -1.
         -1   -1    0    0    0  501 -0.00000000000E+00 -0.00000000000E+00 -0.65623842283E+03  0.65623842283E+03  0.00000000000E+00 0.  1.
         23    2    1    2    0    0  0.50763492858E+03  0.84742937685E+03  0.18558185881E+03  0.10092520819E+04  0.91210575349E+02 0.  0.
        254    2    1    2    0    0 -0.50763492858E+03 -0.84742937685E+03  0.15599760222E+04  0.20487826447E+04  0.88778114766E+03 0.  0.
        -24    2    4    4    0    0 -0.15262896093E+03 -0.10776568600E+03  0.10719401771E+04  0.10909584706E+04  0.78902461417E+02 0.  0.
         24    2    4    4    0    0 -0.35500596764E+03 -0.73966369085E+03  0.48803584507E+03  0.95782417416E+03  0.78208374925E+02 0.  0.
         13    1    3    3    0    0  0.26710484955E+03  0.47009174596E+03  0.57048607455E+02  0.54367802410E+03  0.00000000000E+00 0. -1.
        -13    1    3    3    0    0  0.24053007902E+03  0.37733763089E+03  0.12853325136E+03  0.46557405781E+03  0.00000000000E+00 0.  1.
          2    1    6    6  502    0 -0.15020683517E+03 -0.36736880641E+03  0.19949296312E+03  0.44420645604E+03  0.00000000000E+00 0. -1.
          1    1    5    5  503    0 -0.60309833353E+02 -0.72519552958E+02  0.35820349037E+03  0.37041342049E+03  0.00000000000E+00 0. -1.
         -2    1    5    5    0  503 -0.92319127579E+02 -0.35246133046E+02  0.71373668675E+03  0.72054505010E+03  0.00000000000E+00 0.  1.
         -1    1    6    6    0  502 -0.20479913248E+03 -0.37229488445E+03  0.28854288194E+03  0.51361771812E+03  0.00000000000E+00 0.  1.
<mgrwt>
<rscale>  0 0.25108971E+04</rscale>
<asrwt>0</asrwt>
<pdfrwt beam="1">  1        1 0.36950712E+00 0.25108971E+04</pdfrwt>
<pdfrwt beam="2">  1       -1 0.10095976E+00 0.25108971E+04</pdfrwt>
<totfact> 0.13106229E+00</totfact>
</mgrwt>
</event>
<event>
12    1  0.1114484E-007  0.1492477E+04  0.7818608E-02  0.8889471E-01
         -2   -1    0    0    0  501 -0.00000000000E+00  0.00000000000E+00  0.54351891603E+03  0.54351891603E+03  0.00000000000E+00 0.  1.
          2   -1    0    0  501    0  0.00000000000E+00 -0.00000000000E+00 -0.10245678399E+04  0.10245678399E+04  0.00000000000E+00 0. -1.
         23    2    1    2    0    0  0.98531613692E+02 -0.31421813808E+03 -0.47727738296E+03  0.58726661064E+03  0.92988464305E+02 0.  0.
        254    2    1    2    0    0 -0.98531613692E+02  0.31421813808E+03 -0.37715408739E+01  0.98082014525E+03  0.92387900486E+03 0.  0.
        -24    2    4    4    0    0  0.40022153713E+03  0.83675432839E+02 -0.68605306571E+02  0.42189189545E+03  0.78148746043E+02 0.  0.
         24    2    4    4    0    0 -0.49875315082E+03  0.23054270524E+03  0.64833765697E+02  0.55892824980E+03  0.79326709616E+02 0.  0.
         13    1    3    3    0    0  0.63388442381E+02 -0.16342125568E+03 -0.32952535588E+03  0.37324464042E+03  0.00000000000E+00 0. -1.
        -13    1    3    3    0    0  0.35143171311E+02 -0.15079688240E+03 -0.14775202709E+03  0.21402197022E+03  0.00000000000E+00 0.  1.
          4    1    6    6  502    0 -0.13479304311E+03  0.10213835001E+03  0.15142498201E+02  0.16979606080E+03  0.00000000000E+00 0. -1.
          1    1    5    5  503    0  0.13639364988E+03 -0.20019583560E+01 -0.44374795166E+02  0.14344461653E+03  0.00000000000E+00 0. -1.
         -2    1    5    5    0  503  0.26382788725E+03  0.85677391195E+02 -0.24230511405E+02  0.27844727892E+03  0.00000000000E+00 0.  1.
         -3    1    6    6    0  502 -0.36396010772E+03  0.12840435523E+03  0.49691267496E+02  0.38913218900E+03  0.00000000000E+00 0.  1.
<mgrwt>
<rscale>  0 0.14924771E+04</rscale>
<asrwt>0</asrwt>
<pdfrwt beam="1">  1        2 0.15762582E+00 0.14924771E+04</pdfrwt>
<pdfrwt beam="2">  1       -2 0.83618296E-01 0.14924771E+04</pdfrwt>
<totfact> 0.29378888E+01</totfact>
</mgrwt>
</event>
<event>
12    1  0.1114484E-007  0.2570715E+04  0.7818608E-02  0.8378217E-01
         -1   -1    0    0    0  501 -0.00000000000E+00  0.00000000000E+00  0.96082407864E+03  0.96082407864E+03  0.00000000000E+00 0. -1.
          1   -1    0    0  501    0  0.00000000000E+00 -0.00000000000E+00 -0.17195076548E+04  0.17195076548E+04  0.00000000000E+00 0.  1.
         23    2    1    2    0    0  0.48366221101E+03 -0.41964747512E+03 -0.12820787844E+04  0.14359927829E+04  0.91192792826E+02 0.  0.
        254    2    1    2    0    0 -0.48366221101E+03  0.41964747512E+03  0.52339520826E+03  0.12443389505E+04  0.92973315632E+03 0.  0.
        -24    2    4    4    0    0  0.11537972854E+03  0.75570908571E+02 -0.18960218041E+03  0.24847671124E+03  0.82269345636E+02 0.  0.
         24    2    4    4    0    0 -0.59904193955E+03  0.34407656655E+03  0.71299738867E+03  0.99586223926E+03  0.78335141105E+02 0.  0.
         11    1    3    3    0    0  0.47315131516E+02 -0.27428904710E+02 -0.65527458172E+02  0.85351709171E+02  0.00000000000E+00 0. -1.
        -11    1    3    3    0    0  0.43634707950E+03 -0.39221857041E+03 -0.12165513262E+04  0.13506410738E+04  0.00000000000E+00 0.  1.
          2    1    6    6  502    0 -0.26069880333E+03  0.16316812256E+03  0.26448104462E+03  0.40563274675E+03  0.00000000000E+00 0. -1.
          1    1    5    5  503    0  0.54625694112E+02 -0.10117651873E+02 -0.64960763596E+02  0.85476512234E+02  0.00000000000E+00 0. -1.
         -2    1    5    5    0  503  0.60754034429E+02  0.85688560444E+02 -0.12464141682E+03  0.16300019901E+03  0.00000000000E+00 0.  1.
         -1    1    6    6    0  502 -0.33834313622E+03  0.18090844400E+03  0.44851634405E+03  0.59022949250E+03  0.00000000000E+00 0.  1.
<mgrwt>
<rscale>  0 0.25707154E+04</rscale>
<asrwt>0</asrwt>
<pdfrwt beam="1">  1        1 0.26453964E+00 0.25707154E+04</pdfrwt>
<pdfrwt beam="2">  1       -1 0.14781909E+00 0.25707154E+04</pdfrwt>
<totfact> 0.14811609E+00</totfact>
</mgrwt>
</event>
<event>
12    1  0.1114484E-007  0.1965250E+04  0.7818608E-02  0.8623042E-01
          1   -1    0    0  501    0  0.00000000000E+00  0.00000000000E+00  0.13906695622E+04  0.13906695622E+04  0.00000000000E+00 0. -1.
         -1   -1    0    0    0  501 -0.00000000000E+00 -0.00000000000E+00 -0.69430742394E+03  0.69430742394E+03  0.00000000000E+00 0.  1.
         23    2    1    2    0    0 -0.22107917194E+03 -0.61036782153E+03  0.70732473606E+03  0.96448785811E+03  0.92215337013E+02 0.  0.
        254    2    1    2    0    0  0.22107917194E+03  0.61036782153E+03 -0.10962597777E+02  0.11204891280E+04  0.91320908323E+03 0.  0.
        -24    2    4    4    0    0  0.50575805350E+02 -0.21770088794E+03 -0.11762358575E+03  0.26458093349E+03  0.78842715239E+02 0.  0.
         24    2    4    4    0    0  0.17050336659E+03  0.82806870948E+03  0.10666098797E+03  0.85590819455E+03  0.80206517934E+02 0.  0.
         13    1    3    3    0    0 -0.84323177590E+02 -0.26583417367E+03  0.36969551945E+03  0.46309068580E+03  0.00000000000E+00 0.  1.
        -13    1    3    3    0    0 -0.13675599435E+03 -0.34453364786E+03  0.33762921660E+03  0.50139717231E+03  0.00000000000E+00 0. -1.
          4    1    6    6  502    0  0.22740356558E+02  0.61791184057E+02  0.28036063968E+02  0.71563224678E+02  0.00000000000E+00 0. -1.
          3    1    5    5  503    0  0.13381943949E+02 -0.42021749483E+02 -0.62965373715E+02  0.76873546429E+02  0.00000000000E+00 0. -1.
         -4    1    5    5    0  503  0.37193861401E+02 -0.17567913846E+03 -0.54658212030E+02  0.18770738706E+03  0.00000000000E+00 0.  1.
         -3    1    6    6    0  502  0.14776301003E+03  0.76627752542E+03  0.78624924001E+02  0.78434496988E+03  0.00000000000E+00 0.  1.
<mgrwt>
<rscale>  0 0.19652503E+04</rscale>
<asrwt>0</asrwt>
<pdfrwt beam="1">  1        1 0.21394916E+00 0.19652503E+04</pdfrwt>
<pdfrwt beam="2">  1       -1 0.10681653E+00 0.19652503E+04</pdfrwt>
<totfact> 0.59355521E+00</totfact>
</mgrwt>
</event>
<event>
12    1  0.1114484E-007  0.1311486E+04  0.7818608E-02  0.9020506E-01
          2   -1    0    0  501    0  0.00000000000E+00  0.00000000000E+00  0.11998589561E+04  0.11998589561E+04  0.00000000000E+00 0.  1.
         -2   -1    0    0    0  501 -0.00000000000E+00 -0.00000000000E+00 -0.35837444194E+03  0.35837444194E+03  0.00000000000E+00 0. -1.
         23    2    1    2    0    0 -0.10288150851E+03 -0.19690747928E+03 -0.73389795856E+02  0.25359405885E+03  0.97809633252E+02 0.  0.
        254    2    1    2    0    0  0.10288150851E+03  0.19690747928E+03  0.91487431002E+03  0.13046393392E+04  0.90317863243E+03 0.  0.
        -24    2    4    4    0    0  0.31826623304E+03  0.27561496823E+02  0.96037817766E+03  0.10152733732E+04  0.80004669169E+02 0.  0.
         24    2    4    4    0    0 -0.21538472453E+03  0.16934598246E+03 -0.45503867639E+02  0.28936596596E+03  0.81199870392E+02 0.  0.
         13    1    3    3    0    0  0.10680614938E+02 -0.66840738201E+02 -0.36976068955E+02  0.77129692687E+02  0.00000000000E+00 0.  1.
        -13    1    3    3    0    0 -0.11356212345E+03 -0.13006674108E+03 -0.36413726902E+02  0.17646436616E+03  0.00000000000E+00 0. -1.
          4    1    6    6  502    0 -0.13697502677E+03  0.61873884130E+02 -0.53244594722E+01  0.15039576246E+03  0.00000000000E+00 0. -1.
          1    1    5    5  503    0  0.23757625375E+02  0.25124214294E+02  0.89874472859E+02  0.96296790077E+02  0.00000000000E+00 0. -1.
         -2    1    5    5    0  503  0.29450860767E+03  0.24372825288E+01  0.87050370480E+03  0.91897658317E+03  0.00000000000E+00 0.  1.
         -3    1    6    6    0  502 -0.78409697757E+02  0.10747209833E+03 -0.40179408167E+02  0.13897020350E+03  0.00000000000E+00 0.  1.
<mgrwt>
<rscale>  0 0.13114859E+04</rscale>
<asrwt>0</asrwt>
<pdfrwt beam="1">  1        2 0.18459368E+00 0.13114859E+04</pdfrwt>
<pdfrwt beam="2">  1       -2 0.55134530E-01 0.13114859E+04</pdfrwt>
<totfact> 0.57385867E+01</totfact>
</mgrwt>
</event>
<event>
12    1  0.1114484E-007  0.1265482E+04  0.7818608E-02  0.9057395E-01
         -1   -1    0    0    0  501 -0.00000000000E+00  0.00000000000E+00  0.13466692430E+03  0.13466692430E+03  0.00000000000E+00 0.  1.
          1   -1    0    0  501    0  0.00000000000E+00 -0.00000000000E+00 -0.29729739165E+04  0.29729739165E+04  0.00000000000E+00 0. -1.
         23    2    1    2    0    0  0.48751623623E+02 -0.15766163948E+03 -0.12742794166E+04  0.12882343389E+04  0.92335079723E+02 0.  0.
        254    2    1    2    0    0 -0.48751623623E+02  0.15766163948E+03 -0.15640275756E+04  0.18194065019E+04  0.91478076532E+03 0.  0.
        -24    2    4    4    0    0 -0.28462000166E+03 -0.24516646831E+03 -0.10619959014E+04  0.11293082189E+04  0.79916307655E+02 0.  0.
         24    2    4    4    0    0  0.23586837804E+03  0.40282810779E+03 -0.50203167419E+03  0.69009828298E+03  0.79343948083E+02 0.  0.
         13    1    3    3    0    0  0.56362726731E+02 -0.10440755312E+03 -0.10847083296E+04  0.10911781956E+04  0.00000000000E+00 0.  1.
        -13    1    3    3    0    0 -0.76111031076E+01 -0.53254086364E+02 -0.18957108696E+03  0.19705614331E+03  0.00000000000E+00 0. -1.
          4    1    6    6  502    0  0.51158484335E+02  0.10378879728E+03 -0.79039650060E+02  0.14013055071E+03  0.00000000000E+00 0. -1.
          1    1    5    5  503    0 -0.23995524418E+03 -0.23223601375E+03 -0.97599465862E+03  0.10315413995E+04  0.00000000000E+00 0. -1.
         -2    1    5    5    0  503 -0.44664757480E+02 -0.12930454560E+02 -0.86001242758E+02  0.97766819380E+02  0.00000000000E+00 0.  1.
         -3    1    6    6    0  502  0.18470989370E+03  0.29903931051E+03 -0.42299202413E+03  0.54996773227E+03  0.00000000000E+00 0.  1.
<mgrwt>
<rscale>  0 0.12654821E+04</rscale>
<asrwt>0</asrwt>
<pdfrwt beam="1">  1        1 0.45738060E+00 0.12654821E+04</pdfrwt>
<pdfrwt beam="2">  1       -1 0.20717989E-01 0.12654821E+04</pdfrwt>
<totfact> 0.12004712E+01</totfact>
</mgrwt>
</event>
<event>
12    1  0.1114484E-007  0.2138689E+04  0.7818608E-02  0.8544389E-01
          2   -1    0    0  501    0  0.00000000000E+00  0.00000000000E+00  0.17017107277E+04  0.17017107277E+04  0.00000000000E+00 0. -1.
         -2   -1    0    0    0  501 -0.00000000000E+00 -0.00000000000E+00 -0.67196978160E+03  0.67196978160E+03  0.00000000000E+00 0.  1.
         23    2    1    2    0    0 -0.76586484915E+03  0.25038910196E+03  0.43565215267E+02  0.81188041274E+03  0.89488586181E+02 0.  0.
        254    2    1    2    0    0  0.76586484915E+03 -0.25038910196E+03  0.98617573085E+03  0.15618000966E+04  0.90412018006E+03 0.  0.
        -24    2    4    4    0    0 -0.82379090792E+02 -0.28459647992E+03  0.48098094373E+03  0.57058841349E+03  0.80293202671E+02 0.  0.
         24    2    4    4    0    0  0.84824393995E+03  0.34207377956E+02  0.50519478712E+03  0.99121168309E+03  0.81184366657E+02 0.  0.
         11    1    3    3    0    0 -0.37468157184E+03  0.15407940459E+03  0.55070985636E+02  0.40885150930E+03  0.00000000000E+00 0.  1.
        -11    1    3    3    0    0 -0.39118327731E+03  0.96309697372E+02 -0.11505770369E+02  0.40302890344E+03  0.00000000000E+00 0. -1.
          2    1    6    6  502    0  0.52425725627E+03  0.19536641037E+02  0.26583479161E+03  0.58812880182E+03  0.00000000000E+00 0. -1.
          1    1    5    5  503    0 -0.37107631737E+02 -0.22039465529E+03  0.39703325249E+03  0.45561626836E+03  0.00000000000E+00 0. -1.
         -2    1    5    5    0  503 -0.45271459055E+02 -0.64201824636E+02  0.83947691243E+02  0.11497214513E+03  0.00000000000E+00 0.  1.
         -1    1    6    6    0  502  0.32398668367E+03  0.14670736920E+02  0.23935999552E+03  0.40308288127E+03  0.00000000000E+00 0.  1.
<mgrwt>
<rscale>  0 0.21386895E+04</rscale>
<asrwt>0</asrwt>
<pdfrwt beam="1">  1        2 0.26180165E+00 0.21386895E+04</pdfrwt>
<pdfrwt beam="2">  1       -2 0.10337997E+00 0.21386895E+04</pdfrwt>
<totfact> 0.68594179E+00</totfact>
</mgrwt>
</event>
<event>
12    1  0.1114484E-007  0.1449711E+04  0.7818608E-02  0.8918601E-01
         -1   -1    0    0    0  501 -0.00000000000E+00  0.00000000000E+00  0.28461365883E+03  0.28461365883E+03  0.00000000000E+00 0.  1.
          1   -1    0    0  501    0  0.00000000000E+00 -0.00000000000E+00 -0.18460644764E+04  0.18460644764E+04  0.00000000000E+00 0. -1.
         23    2    1    2    0    0 -0.32037340355E+03  0.93297233520E+02 -0.62724261117E+02  0.35235798868E+03  0.94224878740E+02 0.  0.
        254    2    1    2    0    0  0.32037340355E+03 -0.93297233520E+02 -0.14987265564E+04  0.17783201465E+04  0.89716094491E+03 0.  0.
        -24    2    4    4    0    0 -0.11822034147E+02 -0.18436363922E+03 -0.13952799250E+04  0.14096755407E+04  0.79052823623E+02 0.  0.
         24    2    4    4    0    0  0.33219543769E+03  0.91066405696E+02 -0.10344663138E+03  0.36864460579E+03  0.80936646595E+02 0.  0.
         13    1    3    3    0    0 -0.19723337060E+03  0.65392679213E+02  0.74128083728E+01  0.20792343471E+03  0.00000000000E+00 0.  1.
        -13    1    3    3    0    0 -0.12314003294E+03  0.27904554307E+02 -0.70137069490E+02  0.14443455397E+03  0.00000000000E+00 0. -1.
          2    1    6    6  502    0  0.17696477023E+03  0.41233490567E+02 -0.95846048203E+02  0.20543416367E+03  0.00000000000E+00 0. -1.
          3    1    5    5  503    0 -0.84077439329E+01 -0.18197566357E+03 -0.11482769093E+04  0.11626373866E+04  0.00000000000E+00 0. -1.
         -4    1    5    5    0  503 -0.34142902138E+01 -0.23879756453E+01 -0.24700301569E+03  0.24703815407E+03  0.00000000000E+00 0.  1.
         -1    1    6    6    0  502  0.15523066747E+03  0.49832915129E+02 -0.76005831766E+01  0.16321044212E+03  0.00000000000E+00 0.  1.
<mgrwt>
<rscale>  0 0.14497105E+04</rscale>
<asrwt>0</asrwt>
<pdfrwt beam="1">  1        1 0.28400992E+00 0.14497105E+04</pdfrwt>
<pdfrwt beam="2">  1       -1 0.43786717E-01 0.14497105E+04</pdfrwt>
<totfact> 0.18981122E+01</totfact>
</mgrwt>
</event>
<event>
12    1  0.1114484E-007  0.1820961E+04  0.7818608E-02  0.8695232E-01
          1   -1    0    0  501    0  0.00000000000E+00  0.00000000000E+00  0.37387263262E+04  0.37387263262E+04  0.00000000000E+00 0. -1.
         -1   -1    0    0    0  501 -0.00000000000E+00 -0.00000000000E+00 -0.22172640251E+03  0.22172640251E+03  0.00000000000E+00 0.  1.
         23    2    1    2    0    0 -0.12026352326E+03  0.43929127299E+03  0.22564290905E+03  0.51693479191E+03  0.94163257864E+02 0.  0.
        254    2    1    2    0    0  0.12026352326E+03 -0.43929127299E+03  0.32913570146E+04  0.34435179368E+04  0.90407115082E+03 0.  0.
        -24    2    4    4    0    0 -0.16443502530E+03 -0.32717126843E+03  0.29684473273E+04  0.29919041559E+04  0.75703544408E+02 0.  0.
         24    2    4    4    0    0  0.28469854855E+03 -0.11212000456E+03  0.32290968736E+03  0.45161378094E+03  0.77847170622E+02 0.  0.
         11    1    3    3    0    0 -0.13573259255E+03  0.38341143714E+03  0.20424999987E+03  0.45513265018E+03  0.00000000000E+00 0.  1.
        -11    1    3    3    0    0  0.15469069298E+02  0.55879835846E+02  0.21392909182E+02  0.61802141729E+02  0.00000000000E+00 0. -1.
          4    1    6    6  502    0  0.28093902361E+03 -0.10614226250E+03  0.32656356008E+03  0.44366279272E+03  0.00000000000E+00 0. -1.
          1    1    5    5  503    0 -0.15517987225E+03 -0.25284057764E+03  0.22242777642E+04  0.22439743142E+04  0.00000000000E+00 0. -1.
         -2    1    5    5    0  503 -0.92551530509E+01 -0.74330690795E+02  0.74416956305E+03  0.74792984165E+03  0.00000000000E+00 0.  1.
         -3    1    6    6    0  502  0.37595249414E+01 -0.59777420523E+01 -0.36538727143E+01  0.79509882179E+01  0.00000000000E+00 0.  1.
<mgrwt>
<rscale>  0 0.18209606E+04</rscale>
<asrwt>0</asrwt>
<pdfrwt beam="1">  1        1 0.57518862E+00 0.18209606E+04</pdfrwt>
<pdfrwt beam="2">  1       -1 0.34111757E-01 0.18209606E+04</pdfrwt>
<totfact> 0.12373060E+00</totfact>
</mgrwt>
</event>
<event>
12    1  0.1114484E-007  0.1282621E+04  0.7818608E-02  0.9043461E-01
         -1   -1    0    0    0  501 -0.00000000000E+00  0.00000000000E+00  0.84655870827E+03  0.84655870827E+03  0.00000000000E+00 0.  1.
          1   -1    0    0  501    0  0.00000000000E+00 -0.00000000000E+00 -0.48582482050E+03  0.48582482050E+03  0.00000000000E+00 0. -1.
         23    2    1    2    0    0 -0.16528662470E+03  0.22763915658E+03  0.18395236499E+03  0.34812106785E+03  0.90612092918E+02 0.  0.
        254    2    1    2    0    0  0.16528662470E+03 -0.22763915658E+03  0.17678152278E+03  0.98426246092E+03  0.92648887272E+03 0.  0.
        -24    2    4    4    0    0 -0.34923493147E+03 -0.19456075969E+03  0.21599694820E+03  0.46023090248E+03  0.73067608431E+02 0.  0.
         24    2    4    4    0    0  0.51452155617E+03 -0.33078396887E+02 -0.39215425421E+02  0.52403155844E+03  0.85115289709E+02 0.  0.
         11    1    3    3    0    0 -0.79657474107E+02  0.82911564279E+02  0.27022945075E+02  0.11810961109E+03  0.00000000000E+00 0.  1.
        -11    1    3    3    0    0 -0.85629150596E+02  0.14472759230E+03  0.15692941991E+03  0.23001145676E+03  0.00000000000E+00 0. -1.
          2    1    6    6  502    0  0.51537419107E+03 -0.32115856814E+02 -0.32719364060E+02  0.51740945282E+03  0.00000000000E+00 0. -1.
          3    1    5    5  503    0 -0.24052749025E+03 -0.16161807461E+03  0.17972388367E+03  0.34099054234E+03  0.00000000000E+00 0. -1.
         -4    1    5    5    0  503 -0.10870744122E+03 -0.32942685086E+02  0.36273064533E+02  0.11924036015E+03  0.00000000000E+00 0.  1.
         -1    1    6    6    0  502 -0.85263489772E+00 -0.96254007292E+00 -0.64960613609E+01  0.66221056218E+01  0.00000000000E+00 0.  1.
<mgrwt>
<rscale>  0 0.12826211E+04</rscale>
<asrwt>0</asrwt>
<pdfrwt beam="1">  1        1 0.74742280E-01 0.12826211E+04</pdfrwt>
<pdfrwt beam="2">  1       -1 0.13023980E+00 0.12826211E+04</pdfrwt>
<totfact> 0.22908082E+01</totfact>
</mgrwt>
</event>
<event>
12    1  0.1114484E-007  0.1890799E+04  0.7818608E-02  0.8659450E-01
          2   -1    0    0  501    0  0.00000000000E+00  0.00000000000E+00  0.52834054444E+03  0.52834054444E+03  0.00000000000E+00 0. -1.
         -2   -1    0    0    0  501 -0.00000000000E+00 -0.00000000000E+00 -0.16916753477E+04  0.16916753477E+04  0.00000000000E+00 0.  1.
         23    2    1    2    0    0 -0.70935812658E+02 -0.42915385586E+03  0.24251146738E+03  0.50633502379E+03  0.91424411379E+02 0.  0.
        254    2    1    2    0    0  0.70935812658E+02  0.42915385586E+03 -0.14058462706E+04  0.17136808684E+04  0.87811927457E+03 0.  0.
        -24    2    4    4    0    0  0.46501419496E+03  0.26339726110E+03 -0.69355867532E+03  0.87919085901E+03  0.79602837778E+02 0.  0.
         24    2    4    4    0    0 -0.39407838230E+03  0.16575659476E+03 -0.71228759532E+03  0.83449000935E+03  0.79037568014E+02 0.  0.
         13    1    3    3    0    0 -0.76307609710E+02 -0.41677520135E+03  0.21375270496E+03  0.47456784408E+03  0.00000000000E+00 0. -1.
        -13    1    3    3    0    0  0.53717970515E+01 -0.12378654510E+02  0.28758762421E+02  0.31767179715E+02  0.00000000000E+00 0.  1.
          2    1    6    6  502    0 -0.35059938166E+03  0.11789397473E+03 -0.59679333033E+03  0.70212619580E+03  0.00000000000E+00 0. -1.
          1    1    5    5  503    0  0.45394767658E+03  0.25315270287E+03 -0.64508684879E+03  0.82842732121E+03  0.00000000000E+00 0. -1.
         -2    1    5    5    0  503  0.11066518372E+02  0.10244558227E+02 -0.48471826537E+02  0.50763537800E+02  0.00000000000E+00 0.  1.
         -1    1    6    6    0  502 -0.43479000638E+02  0.47862620033E+02 -0.11549426499E+03  0.13236381355E+03  0.00000000000E+00 0.  1.
<mgrwt>
<rscale>  0 0.18907995E+04</rscale>
<asrwt>0</asrwt>
<pdfrwt beam="1">  1        2 0.81283159E-01 0.18907995E+04</pdfrwt>
<pdfrwt beam="2">  1       -2 0.26025775E+00 0.18907995E+04</pdfrwt>
<totfact> 0.30081795E+00</totfact>
</mgrwt>
</event>
<event>
12    1  0.1114484E-007  0.1284948E+04  0.7818608E-02  0.9041587E-01
          2   -1    0    0  501    0  0.00000000000E+00  0.00000000000E+00  0.84655121264E+03  0.84655121264E+03  0.00000000000E+00 0. -1.
         -2   -1    0    0    0  501 -0.00000000000E+00 -0.00000000000E+00 -0.48759371790E+03  0.48759371790E+03  0.00000000000E+00 0.  1.
         23    2    1    2    0    0 -0.19937599805E+03 -0.11001238715E+03 -0.13328577623E+03  0.28036070359E+03  0.94781390821E+02 0.  0.
        254    2    1    2    0    0  0.19937599805E+03  0.11001238715E+03  0.49224327097E+03  0.10537842269E+04  0.90349557011E+03 0.  0.
        -24    2    4    4    0    0  0.55783767524E+02 -0.95744371184E+01  0.73244785662E+03  0.73905659074E+03  0.80754461675E+02 0.  0.
         24    2    4    4    0    0  0.14359223053E+03  0.11958682427E+03 -0.24020458565E+03  0.31472763621E+03  0.80221598217E+02 0.  0.
         13    1    3    3    0    0 -0.80229955315E+02 -0.56532280016E+01 -0.79503125876E+02  0.11309090034E+03  0.00000000000E+00 0. -1.
        -13    1    3    3    0    0 -0.11914604274E+03 -0.10435915915E+03 -0.53782650353E+02  0.16726980325E+03  0.00000000000E+00 0.  1.
          2    1    6    6  502    0  0.22918893398E+02 -0.60171265009E+01 -0.58042709707E+02  0.62693202471E+02  0.00000000000E+00 0. -1.
          1    1    5    5  503    0 -0.39823394023E+01  0.17093475620E+02  0.42079620799E+02  0.45593205880E+02  0.00000000000E+00 0. -1.
         -2    1    5    5    0  503  0.59766106926E+02 -0.26667912738E+02  0.69036823582E+03  0.69346338486E+03  0.00000000000E+00 0.  1.
         -1    1    6    6    0  502  0.12067333713E+03  0.12560395077E+03 -0.18216187594E+03  0.25203443374E+03  0.00000000000E+00 0.  1.
<mgrwt>
<rscale>  0 0.12849483E+04</rscale>
<asrwt>0</asrwt>
<pdfrwt beam="1">  1        2 0.13023865E+00 0.12849483E+04</pdfrwt>
<pdfrwt beam="2">  1       -2 0.75014418E-01 0.12849483E+04</pdfrwt>
<totfact> 0.50002626E+01</totfact>
</mgrwt>
</event>
<event>
12    1  0.1114484E-007  0.2501211E+04  0.7818608E-02  0.8402554E-01
          2   -1    0    0  501    0  0.00000000000E+00  0.00000000000E+00  0.31011605157E+03  0.31011605157E+03  0.00000000000E+00 0.  1.
         -2   -1    0    0    0  501 -0.00000000000E+00 -0.00000000000E+00 -0.50433204215E+04  0.50433204215E+04  0.00000000000E+00 0. -1.
         23    2    1    2    0    0  0.13513539562E+03 -0.56415453784E+03 -0.40498210105E+04  0.40921890922E+04  0.91811936412E+02 0.  0.
        254    2    1    2    0    0 -0.13513539562E+03  0.56415453784E+03 -0.68338335946E+03  0.12612473809E+04  0.88724304566E+03 0.  0.
        -24    2    4    4    0    0 -0.12675134047E+03  0.79819832404E+03 -0.50999997802E+03  0.95904901852E+03  0.80551694852E+02 0.  0.
         24    2    4    4    0    0 -0.83840551534E+01 -0.23404378620E+03 -0.17338338144E+03  0.30219836235E+03  0.80095361948E+02 0.  0.
         11    1    3    3    0    0  0.62214789277E+02 -0.33512930164E+03 -0.20774123456E+04  0.21051898685E+04  0.00000000000E+00 0. -1.
        -11    1    3    3    0    0  0.72920606342E+02 -0.22902523619E+03 -0.19724086649E+04  0.19869992237E+04  0.00000000000E+00 0.  1.
          4    1    6    6  502    0 -0.12800978718E+02 -0.18874138058E+03 -0.95316640379E+02  0.21183114911E+03  0.00000000000E+00 0. -1.
          3    1    5    5  503    0 -0.11461468213E+03  0.48465202657E+03 -0.29811353194E+03  0.58042724793E+03  0.00000000000E+00 0. -1.
         -4    1    5    5    0  503 -0.12136658331E+02  0.31354629747E+03 -0.21188644608E+03  0.37862177059E+03  0.00000000000E+00 0.  1.
         -3    1    6    6    0  502  0.44169235647E+01 -0.45302405626E+02 -0.78066741064E+02  0.90367213244E+02  0.00000000000E+00 0.  1.
<mgrwt>
<rscale>  0 0.25012114E+04</rscale>
<asrwt>0</asrwt>
<pdfrwt beam="1">  1        2 0.47710167E-01 0.25012114E+04</pdfrwt>
<pdfrwt beam="2">  1       -2 0.77589537E+00 0.25012114E+04</pdfrwt>
<totfact> 0.10164716E-02</totfact>
</mgrwt>
</event>
<event>
12    1  0.1114484E-007  0.1636139E+04  0.7818608E-02  0.8798649E-01
         -2   -1    0    0    0  501 -0.00000000000E+00  0.00000000000E+00  0.67898050338E+03  0.67898050338E+03  0.00000000000E+00 0. -1.
          2   -1    0    0  501    0  0.00000000000E+00 -0.00000000000E+00 -0.98565091654E+03  0.98565091654E+03  0.00000000000E+00 0.  1.
         23    2    1    2    0    0 -0.90477462558E+02  0.14030544593E+03 -0.65238014788E+03  0.67946511802E+03  0.90560476288E+02 0.  0.
        254    2    1    2    0    0  0.90477462558E+02 -0.14030544593E+03  0.34570973473E+03  0.98516630190E+03  0.90728475812E+03 0.  0.
        -24    2    4    4    0    0  0.89192990895E+02  0.28802189337E+03  0.44010796208E+03  0.53945376302E+03  0.80020893921E+02 0.  0.
         24    2    4    4    0    0  0.12844716633E+01 -0.42832733930E+03 -0.94398227346E+02  0.44571253888E+03  0.79263374472E+02 0.  0.
         13    1    3    3    0    0 -0.10367660397E+03  0.88878073308E+02 -0.45286456339E+03  0.47300577470E+03  0.00000000000E+00 0.  1.
        -13    1    3    3    0    0  0.13199141407E+02  0.51427372622E+02 -0.19951558449E+03  0.20645934332E+03  0.00000000000E+00 0. -1.
          2    1    6    6  502    0  0.23388886329E+02 -0.45803059356E+02 -0.15085209739E+01  0.51451296248E+02  0.00000000000E+00 0. -1.
          3    1    5    5  503    0  0.21427406466E+02  0.29193212501E+02  0.10233596588E+03  0.10855425978E+03  0.00000000000E+00 0. -1.
         -4    1    5    5    0  503  0.67765584429E+02  0.25882868087E+03  0.33777199619E+03  0.43089950323E+03  0.00000000000E+00 0.  1.
         -1    1    6    6    0  502 -0.22104414666E+02 -0.38252427994E+03 -0.92889706372E+02  0.39426124263E+03  0.00000000000E+00 0.  1.
<mgrwt>
<rscale>  0 0.16361391E+04</rscale>
<asrwt>0</asrwt>
<pdfrwt beam="1">  1        2 0.15163860E+00 0.16361391E+04</pdfrwt>
<pdfrwt beam="2">  1       -2 0.10445854E+00 0.16361391E+04</pdfrwt>
<totfact> 0.18316943E+01</totfact>
</mgrwt>
</event>
<event>
12    1  0.1114484E-007  0.2689794E+04  0.7818608E-02  0.8338324E-01
         -2   -1    0    0    0  501 -0.00000000000E+00  0.00000000000E+00  0.61288675294E+03  0.61288675294E+03  0.00000000000E+00 0.  1.
          2   -1    0    0  501    0  0.00000000000E+00 -0.00000000000E+00 -0.29511942769E+04  0.29511942769E+04  0.00000000000E+00 0. -1.
         23    2    1    2    0    0  0.77191042999E+03 -0.32146896878E+03 -0.21657073538E+04  0.23233643804E+04  0.92442912589E+02 0.  0.
        254    2    1    2    0    0 -0.77191042999E+03  0.32146896878E+03 -0.17260017024E+03  0.12407166495E+04  0.90022162590E+03 0.  0.
        -24    2    4    4    0    0 -0.25578077544E+03 -0.58067831937E+02 -0.45859072274E+03  0.53452980585E+03  0.81369430224E+02 0.  0.
         24    2    4    4    0    0 -0.51612965455E+03  0.37953680072E+03  0.28599055249E+03  0.70618684364E+03  0.80444133475E+02 0.  0.
         13    1    3    3    0    0  0.28572892157E+03 -0.16683848044E+03 -0.82628034953E+03  0.89006477921E+03  0.00000000000E+00 0.  1.
        -13    1    3    3    0    0  0.48618150842E+03 -0.15463048834E+03 -0.13394270042E+04  0.14332996012E+04  0.00000000000E+00 0. -1.
          4    1    6    6  502    0 -0.14388242688E+03  0.10870775567E+03  0.41908024416E+02  0.18513727723E+03  0.00000000000E+00 0. -1.
          3    1    5    5  503    0  0.80077622188E+00 -0.11893572070E+02 -0.36709257105E+02  0.38596215570E+02  0.00000000000E+00 0. -1.
         -4    1    5    5    0  503 -0.25658155167E+03 -0.46174259867E+02 -0.42188146563E+03  0.49593359028E+03  0.00000000000E+00 0.  1.
         -3    1    6    6    0  502 -0.37224722767E+03  0.27082904505E+03  0.24408252808E+03  0.52104956641E+03  0.00000000000E+00 0.  1.
<mgrwt>
<rscale>  0 0.26897940E+04</rscale>
<asrwt>0</asrwt>
<pdfrwt beam="1">  1        2 0.45402987E+00 0.26897940E+04</pdfrwt>
<pdfrwt beam="2">  1       -2 0.94290273E-01 0.26897940E+04</pdfrwt>
<totfact> 0.15549971E+00</totfact>
</mgrwt>
</event>
<event>
12    1  0.1285590E-007  0.2603446E+04  0.7818608E-02  0.8367032E-01
         -3   -1    0    0    0  501 -0.00000000000E+00  0.00000000000E+00  0.71458966546E+03  0.71458966546E+03  0.00000000000E+00 0.  1.
          3   -1    0    0  501    0  0.00000000000E+00 -0.00000000000E+00 -0.23712668353E+04  0.23712668353E+04  0.00000000000E+00 0. -1.
         23    2    1    2    0    0 -0.48206663946E+03 -0.64632833967E+03  0.23104197612E+03  0.84449993473E+03  0.98342145018E+02 0.  0.
        254    2    1    2    0    0  0.48206663946E+03  0.64632833967E+03 -0.18877191459E+04  0.22413565660E+04  0.90003728507E+03 0.  0.
        -24    2    4    4    0    0  0.90041502172E+02  0.97073200028E+02  0.69176070512E+02  0.17004281270E+03  0.81231466446E+02 0.  0.
         24    2    4    4    0    0  0.39202513729E+03  0.54925513964E+03 -0.19568952164E+04  0.20713137533E+04  0.74410078785E+02 0.  0.
         11    1    3    3    0    0 -0.19263096666E+02 -0.55180072117E+02  0.36625947950E+02  0.68973671174E+02  0.00000000000E+00 0. -1.
        -11    1    3    3    0    0 -0.46280354280E+03 -0.59114826755E+03  0.19441602817E+03  0.77552626356E+03  0.00000000000E+00 0.  1.
          4    1    6    6  502    0  0.10426532089E+02  0.13075887984E+02 -0.22501751321E+02  0.28036052334E+02  0.00000000000E+00 0. -1.
          1    1    5    5  503    0  0.44230791168E+01  0.41449286320E+02 -0.75034849692E+01  0.42354565893E+02  0.00000000000E+00 0. -1.
         -2    1    5    5    0  503  0.85618423055E+02  0.55623913707E+02  0.76679555481E+02  0.12768824680E+03  0.00000000000E+00 0.  1.
         -3    1    6    6    0  502  0.38159860520E+03  0.53617925166E+03 -0.19343934651E+04  0.20432777010E+04  0.00000000000E+00 0.  1.
<mgrwt>
<rscale>  0 0.26034460E+04</rscale>
<asrwt>0</asrwt>
<pdfrwt beam="1">  1        3 0.36481028E+00 0.26034460E+04</pdfrwt>
<pdfrwt beam="2">  1       -3 0.10993687E+00 0.26034460E+04</pdfrwt>
<totfact> 0.27586695E-02</totfact>
</mgrwt>
</event>
<event>
12    1  0.1114484E-007  0.2145471E+04  0.7818608E-02  0.8541473E-01
          1   -1    0    0  501    0  0.00000000000E+00  0.00000000000E+00  0.26388826277E+04  0.26388826277E+04  0.00000000000E+00 0. -1.
         -1   -1    0    0    0  501 -0.00000000000E+00 -0.00000000000E+00 -0.43607908395E+03  0.43607908395E+03  0.00000000000E+00 0.  1.
         23    2    1    2    0    0 -0.16783378788E+03 -0.67365537683E+03  0.12987380546E+03  0.71220080956E+03  0.91558946660E+02 0.  0.
        254    2    1    2    0    0  0.16783378788E+03  0.67365537683E+03  0.20729297383E+04  0.23627609021E+04  0.89644945950E+03 0.  0.
        -24    2    4    4    0    0  0.78907556939E+02  0.53197526992E+03  0.39128730350E+03  0.67095270564E+03  0.88587182938E+02 0.  0.
         24    2    4    4    0    0  0.88926230940E+02  0.14168010691E+03  0.16816424348E+04  0.16918081964E+04  0.79451669660E+02 0.  0.
         11    1    3    3    0    0 -0.14860666390E+03 -0.41590676024E+03  0.88686813341E+02  0.45047499890E+03  0.00000000000E+00 0.  1.
        -11    1    3    3    0    0 -0.19227123978E+02 -0.25774861659E+03  0.41186992114E+02  0.26172581067E+03  0.00000000000E+00 0. -1.
          2    1    6    6  502    0  0.12490385187E+02  0.50970787958E+02  0.86562451195E+03  0.86721382982E+03  0.00000000000E+00 0. -1.
          1    1    5    5  503    0  0.90667979831E+02  0.48745213426E+03  0.33570433966E+03  0.59877180079E+03  0.00000000000E+00 0. -1.
         -2    1    5    5    0  503 -0.11760422893E+02  0.44523135666E+02  0.55582963837E+02  0.72180904851E+02  0.00000000000E+00 0.  1.
         -1    1    6    6    0  502  0.76435845753E+02  0.90709318949E+02  0.81601792282E+03  0.82459436660E+03  0.00000000000E+00 0.  1.
<mgrwt>
<rscale>  0 0.21454711E+04</rscale>
<asrwt>0</asrwt>
<pdfrwt beam="1">  1        1 0.40598193E+00 0.21454711E+04</pdfrwt>
<pdfrwt beam="2">  1       -1 0.67089091E-01 0.21454711E+04</pdfrwt>
<totfact> 0.22348792E+00</totfact>
</mgrwt>
</event>
<event>
12    1  0.1114484E-007  0.2358834E+04  0.7818608E-02  0.8455078E-01
          1   -1    0    0  501    0  0.00000000000E+00  0.00000000000E+00  0.25687724658E+04  0.25687724658E+04  0.00000000000E+00 0.  1.
         -1   -1    0    0    0  501 -0.00000000000E+00 -0.00000000000E+00 -0.54151308785E+03  0.54151308785E+03  0.00000000000E+00 0. -1.
         23    2    1    2    0    0 -0.97459317635E+03  0.65562271668E+02  0.64118786330E+03  0.11732867190E+04  0.10653439856E+03 0.  0.
        254    2    1    2    0    0  0.97459317635E+03 -0.65562271668E+02  0.13860715147E+04  0.19369988347E+04  0.93629053767E+03 0.  0.
        -24    2    4    4    0    0  0.10191910832E+04  0.32326456636E+02  0.14617136831E+04  0.17840347281E+04  0.79859601342E+02 0.  0.
         24    2    4    4    0    0 -0.44597906892E+02 -0.97888728304E+02 -0.75642168394E+02  0.15296410656E+03  0.78135163845E+02 0.  0.
         13    1    3    3    0    0 -0.92576580445E+03  0.41542870270E+02  0.58997630953E+03  0.10985627795E+04  0.00000000000E+00 0. -1.
        -13    1    3    3    0    0 -0.48827371901E+02  0.24019401398E+02  0.51211553768E+02  0.74723939468E+02  0.00000000000E+00 0.  1.
          2    1    6    6  502    0  0.13182192087E+02 -0.65188381891E+02 -0.35701845690E+02  0.75484548799E+02  0.00000000000E+00 0. -1.
          3    1    5    5  503    0  0.74259566870E+03  0.20289217944E+02  0.11245742067E+04  0.13477860089E+04  0.00000000000E+00 0. -1.
         -4    1    5    5    0  503  0.27659541454E+03  0.12037238692E+02  0.33713947641E+03  0.43624871921E+03  0.00000000000E+00 0.  1.
         -1    1    6    6    0  502 -0.57780098979E+02 -0.32700346413E+02 -0.39940322704E+02  0.77479557764E+02  0.00000000000E+00 0.  1.
<mgrwt>
<rscale>  0 0.23588335E+04</rscale>
<asrwt>0</asrwt>
<pdfrwt beam="1">  1        1 0.39519576E+00 0.23588335E+04</pdfrwt>
<pdfrwt beam="2">  1       -1 0.83309707E-01 0.23588335E+04</pdfrwt>
<totfact> 0.15600785E+00</totfact>
</mgrwt>
</event>
<event>
12    1  0.1526154E-007  0.2337504E+04  0.7818608E-02  0.8463279E-01
         -2   -1    0    0    0  501 -0.00000000000E+00  0.00000000000E+00  0.48920363326E+03  0.48920363326E+03  0.00000000000E+00 0. -1.
          2   -1    0    0  501    0  0.00000000000E+00 -0.00000000000E+00 -0.27922543882E+04  0.27922543882E+04  0.00000000000E+00 0.  1.
         23    2    1    2    0    0  0.94169133434E+03 -0.65449379222E+01 -0.14231757852E+04  0.17089981916E+04  0.91761092073E+02 0.  0.
        254    2    1    2    0    0 -0.94169133434E+03  0.65449379222E+01 -0.87987496979E+03  0.15724598299E+04  0.90090207501E+03 0.  0.
        -24    2    4    4    0    0 -0.97436484829E+03 -0.15772183344E+03 -0.95013543821E+03  0.13723996933E+04  0.80377440578E+02 0.  0.
         24    2    4    4    0    0  0.32673513946E+02  0.16426677136E+03  0.70260468422E+02  0.20006013657E+03  0.83883217235E+02 0.  0.
         13    1    3    3    0    0  0.43085777917E+03 -0.11395640154E+02 -0.73297858778E+03  0.85030929468E+03  0.00000000000E+00 0.  1.
        -13    1    3    3    0    0  0.51083355517E+03  0.48507022317E+01 -0.69019719738E+03  0.85868889691E+03  0.00000000000E+00 0. -1.
          2    1    6    6  502    0  0.20675982487E+01 -0.68186969181E+01  0.16758166514E+02  0.18210044895E+02  0.00000000000E+00 0. -1.
          1    1    5    5  503    0 -0.75284419446E+02 -0.13966029310E+02 -0.46392351250E+02  0.89526778343E+02  0.00000000000E+00 0. -1.
         -2    1    5    5    0  503 -0.89908042884E+03 -0.14375580413E+03 -0.90374308696E+03  0.12828729150E+04  0.00000000000E+00 0.  1.
         -1    1    6    6    0  502  0.30605915698E+02  0.17108546828E+03  0.53502301909E+02  0.18185009167E+03  0.00000000000E+00 0.  1.
<mgrwt>
<rscale>  0 0.23375038E+04</rscale>
<asrwt>0</asrwt>
<pdfrwt beam="1">  1        2 0.42957760E+00 0.23375038E+04</pdfrwt>
<pdfrwt beam="2">  1       -2 0.75262096E-01 0.23375038E+04</pdfrwt>
<totfact> 0.33484833E+00</totfact>
</mgrwt>
</event>
<event>
12    1  0.1114484E-007  0.2378821E+04  0.7818608E-02  0.8447475E-01
         -1   -1    0    0    0  501 -0.00000000000E+00  0.00000000000E+00  0.97423041706E+03  0.97423041706E+03  0.00000000000E+00 0.  1.
          1   -1    0    0  501    0  0.00000000000E+00 -0.00000000000E+00 -0.14521177798E+04  0.14521177798E+04  0.00000000000E+00 0. -1.
         23    2    1    2    0    0  0.70975513973E+03  0.47496511245E+02 -0.89730935170E+03  0.11483386009E+04  0.86655598033E+02 0.  0.
        254    2    1    2    0    0 -0.70975513973E+03 -0.47496511245E+02  0.41942198895E+03  0.12780095960E+04  0.97538989418E+03 0.  0.
        -24    2    4    4    0    0 -0.29246790751E+03 -0.92527958786E+02  0.69811661211E+03  0.76699346695E+03  0.82542559728E+02 0.  0.
         24    2    4    4    0    0 -0.41728723223E+03  0.45031447541E+02 -0.27869462316E+03  0.51101612904E+03  0.85500442781E+02 0.  0.
         11    1    3    3    0    0  0.50346368013E+03  0.15804110746E+02 -0.68869467384E+03  0.85324427973E+03  0.00000000000E+00 0. -1.
        -11    1    3    3    0    0  0.20629145961E+03  0.31692400499E+02 -0.20861467787E+03  0.29509432116E+03  0.00000000000E+00 0.  1.
          2    1    6    6  502    0 -0.25603173550E+03  0.25661483702E+02 -0.21928115150E+03  0.33807541278E+03  0.00000000000E+00 0. -1.
          3    1    5    5  503    0 -0.27141564496E+03 -0.93722962111E+02  0.58201979123E+03  0.64899729070E+03  0.00000000000E+00 0. -1.
         -4    1    5    5    0  503 -0.21052262546E+02  0.11950033254E+01  0.11609682088E+03  0.11799617625E+03  0.00000000000E+00 0.  1.
         -1    1    6    6    0  502 -0.16125549673E+03  0.19369963840E+02 -0.59413471663E+02  0.17294071626E+03  0.00000000000E+00 0.  1.
<mgrwt>
<rscale>  0 0.23788210E+04</rscale>
<asrwt>0</asrwt>
<pdfrwt beam="1">  1        1 0.22340274E+00 0.23788210E+04</pdfrwt>
<pdfrwt beam="2">  1       -1 0.14988160E+00 0.23788210E+04</pdfrwt>
<totfact> 0.22172822E+00</totfact>
</mgrwt>
</event>
<event>
12    1  0.1114484E-007  0.1318405E+04  0.7818608E-02  0.9015096E-01
          2   -1    0    0  501    0  0.00000000000E+00  0.00000000000E+00  0.13559750822E+04  0.13559750822E+04  0.00000000000E+00 0. -1.
         -2   -1    0    0    0  501 -0.00000000000E+00 -0.00000000000E+00 -0.32046911954E+03  0.32046911954E+03  0.00000000000E+00 0.  1.
         23    2    1    2    0    0  0.64770711581E+02  0.27939172686E+03  0.29918782954E+02  0.30263860127E+03  0.91869512290E+02 0.  0.
        254    2    1    2    0    0 -0.64770711581E+02 -0.27939172686E+03  0.10055871797E+04  0.13738056005E+04  0.89100015141E+03 0.  0.
        -24    2    4    4    0    0  0.23418998980E+03  0.12048332244E+03  0.32406139573E+02  0.27706308682E+03  0.79703286572E+02 0.  0.
         24    2    4    4    0    0 -0.29896070138E+03 -0.39987504930E+03  0.97318104016E+03  0.10967425137E+04  0.80531039758E+02 0.  0.
         11    1    3    3    0    0  0.51502497704E+02  0.18722529963E+03  0.62493968997E+02  0.20398851990E+03  0.00000000000E+00 0.  1.
        -11    1    3    3    0    0  0.13268213876E+02  0.92166427233E+02 -0.32575186043E+02  0.98650081369E+02  0.00000000000E+00 0. -1.
          4    1    6    6  502    0 -0.15409934620E+03 -0.25049626721E+03  0.63265075465E+03  0.69766895140E+03  0.00000000000E+00 0. -1.
          3    1    5    5  503    0  0.19111162715E+03  0.12839929975E+03  0.36331150673E+02  0.23308793774E+03  0.00000000000E+00 0. -1.
         -4    1    5    5    0  503  0.43078362644E+02 -0.79159773111E+01 -0.39250111004E+01  0.43975149085E+02  0.00000000000E+00 0.  1.
         -3    1    6    6    0  502 -0.14486135518E+03 -0.14937878209E+03  0.34053028551E+03  0.39907356228E+03  0.00000000000E+00 0.  1.
<mgrwt>
<rscale>  0 0.13184053E+04</rscale>
<asrwt>0</asrwt>
<pdfrwt beam="1">  1        2 0.20861155E+00 0.13184053E+04</pdfrwt>
<pdfrwt beam="2">  1       -2 0.49302942E-01 0.13184053E+04</pdfrwt>
<totfact> 0.58460285E+01</totfact>
</mgrwt>
</event>
<event>
12    1  0.1114484E-007  0.1503255E+04  0.7818608E-02  0.8882291E-01
         -2   -1    0    0    0  501 -0.00000000000E+00  0.00000000000E+00  0.39626337525E+03  0.39626337525E+03  0.00000000000E+00 0. -1.
          2   -1    0    0  501    0  0.00000000000E+00 -0.00000000000E+00 -0.14256772432E+04  0.14256772432E+04  0.00000000000E+00 0.  1.
         23    2    1    2    0    0 -0.42114206212E+03  0.22667532939E+02 -0.62355751571E+02  0.43534174141E+03  0.88089378023E+02 0.  0.
        254    2    1    2    0    0  0.42114206212E+03 -0.22667532939E+02 -0.96705811634E+03  0.13865988770E+04  0.89976696525E+03 0.  0.
        -24    2    4    4    0    0  0.59750135571E+03 -0.22848988549E+02 -0.26606619308E+03  0.65908418328E+03  0.77915307800E+02 0.  0.
         24    2    4    4    0    0 -0.17635929359E+03  0.18145561015E+00 -0.70099192326E+03  0.72751469371E+03  0.82373052245E+02 0.  0.
         13    1    3    3    0    0 -0.35438143064E+03  0.91266682338E+01 -0.19863072967E+02  0.35505497620E+03  0.00000000000E+00 0. -1.
        -13    1    3    3    0    0 -0.66760631479E+02  0.13540864705E+02 -0.42492678604E+02  0.80286765207E+02  0.00000000000E+00 0.  1.
          4    1    6    6  502    0 -0.15023834879E+02 -0.25733108103E+02 -0.79509738182E+02  0.84909993127E+02  0.00000000000E+00 0. -1.
          1    1    5    5  503    0  0.35099706640E+03  0.20201870018E+01 -0.11724081678E+03  0.37006544137E+03  0.00000000000E+00 0. -1.
         -2    1    5    5    0  503  0.24650428931E+03 -0.24869175551E+02 -0.14882537630E+03  0.28901874190E+03  0.00000000000E+00 0.  1.
         -3    1    6    6    0  502 -0.16133545871E+03  0.25914563714E+02 -0.62148218507E+03  0.64260470058E+03  0.00000000000E+00 0.  1.
<mgrwt>
<rscale>  0 0.15032547E+04</rscale>
<asrwt>0</asrwt>
<pdfrwt beam="1">  1        2 0.21933496E+00 0.15032547E+04</pdfrwt>
<pdfrwt beam="2">  1       -2 0.60963596E-01 0.15032547E+04</pdfrwt>
<totfact> 0.33832260E+01</totfact>
</mgrwt>
</event>
<event>
12    1  0.1114484E-007  0.1512897E+04  0.7818608E-02  0.8875921E-01
          2   -1    0    0  501    0  0.00000000000E+00  0.00000000000E+00  0.28412979810E+04  0.28412979810E+04  0.00000000000E+00 0. -1.
         -2   -1    0    0    0  501 -0.00000000000E+00 -0.00000000000E+00 -0.20139198210E+03  0.20139198210E+03  0.00000000000E+00 0.  1.
         23    2    1    2    0    0 -0.17491805728E+03 -0.11133520999E+03  0.17319113278E+04  0.17466112488E+04  0.90233870500E+02 0.  0.
        254    2    1    2    0    0  0.17491805728E+03  0.11133520999E+03  0.90799467105E+03  0.12960787142E+04  0.90131784355E+03 0.  0.
        -24    2    4    4    0    0  0.41675493822E+03 -0.24242811497E+03  0.45908341728E+03  0.67059764623E+03  0.80545326663E+02 0.  0.
         24    2    4    4    0    0 -0.24183688094E+03  0.35376332496E+03  0.44891125377E+03  0.62548106801E+03  0.77921021610E+02 0.  0.
         13    1    3    3    0    0 -0.13634174807E+03 -0.10774695387E+03  0.15912873353E+04  0.16007479070E+04  0.00000000000E+00 0. -1.
        -13    1    3    3    0    0 -0.38576309217E+02 -0.35882561162E+01  0.14062399255E+03  0.14586334185E+03  0.00000000000E+00 0.  1.
          2    1    6    6  502    0 -0.22249083366E+03  0.31044734001E+03  0.42798854078E+03  0.57363221059E+03  0.00000000000E+00 0. -1.
          1    1    5    5  503    0  0.33181814717E+03 -0.22815843196E+03  0.37765928477E+03  0.55207435028E+03  0.00000000000E+00 0. -1.
         -2    1    5    5    0  503  0.84936791057E+02 -0.14269683011E+02  0.81424132510E+02  0.11852329595E+03  0.00000000000E+00 0.  1.
         -1    1    6    6    0  502 -0.19346047281E+02  0.43315984947E+02  0.20922712991E+02  0.51848857425E+02  0.00000000000E+00 0.  1.
<mgrwt>
<rscale>  0 0.15128974E+04</rscale>
<asrwt>0</asrwt>
<pdfrwt beam="1">  1        2 0.43712274E+00 0.15128974E+04</pdfrwt>
<pdfrwt beam="2">  1       -2 0.30983384E-01 0.15128974E+04</pdfrwt>
<totfact> 0.20449188E+01</totfact>
</mgrwt>
</event>
<event>
12    1  0.1114484E-007  0.2408219E+04  0.7818608E-02  0.8436433E-01
          1   -1    0    0  501    0  0.00000000000E+00  0.00000000000E+00  0.12625454516E+04  0.12625454516E+04  0.00000000000E+00 0. -1.
         -1   -1    0    0    0  501 -0.00000000000E+00 -0.00000000000E+00 -0.11483785692E+04  0.11483785692E+04  0.00000000000E+00 0.  1.
         23    2    1    2    0    0  0.63404009077E+03  0.73111160100E+03  0.40929604685E+03  0.10552763550E+04  0.97744164676E+02 0.  0.
        254    2    1    2    0    0 -0.63404009077E+03 -0.73111160100E+03 -0.29512916452E+03  0.13556476657E+04  0.90230170124E+03 0.  0.
        -24    2    4    4    0    0 -0.57475432104E+03 -0.64911403857E+03 -0.57775007838E+03  0.10447851958E+04  0.78034528862E+02 0.  0.
         24    2    4    4    0    0 -0.59285769739E+02 -0.81997562432E+02  0.28262091386E+03  0.31086246994E+03  0.80761943557E+02 0.  0.
         11    1    3    3    0    0  0.64063075006E+01  0.28522707627E+02  0.33081310588E+01  0.29419880307E+02  0.00000000000E+00 0. -1.
        -11    1    3    3    0    0  0.62763378327E+03  0.70258889337E+03  0.40598791579E+03  0.10258564747E+04  0.00000000000E+00 0.  1.
          2    1    6    6  502    0 -0.45616641538E+02 -0.78391384491E+02  0.28252403290E+03  0.29672532132E+03  0.00000000000E+00 0. -1.
          3    1    5    5  503    0 -0.53870841788E+03 -0.58012442757E+03 -0.51122641756E+03  0.94239246653E+03  0.00000000000E+00 0. -1.
         -4    1    5    5    0  503 -0.36045903151E+02 -0.68989610999E+02 -0.66523660824E+02  0.10239272928E+03  0.00000000000E+00 0.  1.
         -1    1    6    6    0  502 -0.13669128201E+02 -0.36061779409E+01  0.96880960421E-01  0.14137148617E+02  0.00000000000E+00 0.  1.
<mgrwt>
<rscale>  0 0.24082194E+04</rscale>
<asrwt>0</asrwt>
<pdfrwt beam="1">  1        1 0.19423776E+00 0.24082194E+04</pdfrwt>
<pdfrwt beam="2">  1       -1 0.17667363E+00 0.24082194E+04</pdfrwt>
<totfact> 0.18955891E+00</totfact>
</mgrwt>
</event>
<event>
12    1  0.1114484E-007  0.2021493E+04  0.7818608E-02  0.8596637E-01
         -2   -1    0    0    0  501 -0.00000000000E+00  0.00000000000E+00  0.90141175638E+03  0.90141175638E+03  0.00000000000E+00 0.  1.
          2   -1    0    0  501    0  0.00000000000E+00 -0.00000000000E+00 -0.11333429613E+04  0.11333429613E+04  0.00000000000E+00 0. -1.
         23    2    1    2    0    0 -0.26134658502E+03 -0.19217919775E+03 -0.84166304001E+03  0.90680634707E+03  0.93092409072E+02 0.  0.
        254    2    1    2    0    0  0.26134658502E+03  0.19217919775E+03  0.60973183505E+03  0.11279483706E+04  0.89177336504E+03 0.  0.
        -24    2    4    4    0    0 -0.19851001217E+03  0.38205543929E+03  0.35092126676E+03  0.56126377957E+03  0.80614584082E+02 0.  0.
         24    2    4    4    0    0  0.45985659718E+03 -0.18987624154E+03  0.25881056829E+03  0.56668459106E+03  0.81409080689E+02 0.  0.
         13    1    3    3    0    0 -0.23835938652E+03 -0.13103511174E+03 -0.66713237090E+03  0.72045194007E+03  0.00000000000E+00 0. -1.
        -13    1    3    3    0    0 -0.22987198498E+02 -0.61144086017E+02 -0.17453066911E+03  0.18635440701E+03  0.00000000000E+00 0.  1.
          2    1    6    6  502    0  0.27793555987E+03 -0.15456061086E+03  0.14808374839E+03  0.35080757461E+03  0.00000000000E+00 0. -1.
          1    1    5    5  503    0 -0.16522753198E+03  0.34098998948E+03  0.27263101566E+03  0.46679972253E+03  0.00000000000E+00 0. -1.
         -2    1    5    5    0  503 -0.33282480183E+02  0.41065449813E+02  0.78290251100E+02  0.94464057042E+02  0.00000000000E+00 0.  1.
         -1    1    6    6    0  502  0.18192103732E+03 -0.35315630684E+02  0.11072681989E+03  0.21587701645E+03  0.00000000000E+00 0.  1.
<mgrwt>
<rscale>  0 0.20214932E+04</rscale>
<asrwt>0</asrwt>
<pdfrwt beam="1">  1        2 0.17436045E+00 0.20214932E+04</pdfrwt>
<pdfrwt beam="2">  1       -2 0.13867873E+00 0.20214932E+04</pdfrwt>
<totfact> 0.70957850E+00</totfact>
</mgrwt>
</event>
<event>
12    1  0.1114484E-007  0.1419097E+04  0.7818608E-02  0.8940110E-01
          4   -1    0    0  501    0  0.00000000000E+00  0.00000000000E+00  0.12334240204E+04  0.12334240204E+04  0.00000000000E+00 0. -1.
         -4   -1    0    0    0  501 -0.00000000000E+00 -0.00000000000E+00 -0.40817982028E+03  0.40817982028E+03  0.00000000000E+00 0.  1.
         23    2    1    2    0    0  0.39520768998E+03  0.41274317964E+02  0.30096458457E+03  0.50652693781E+03  0.89984276500E+02 0.  0.
        254    2    1    2    0    0 -0.39520768998E+03 -0.41274317964E+02  0.52427961557E+03  0.11350769029E+04  0.92500690410E+03 0.  0.
        -24    2    4    4    0    0 -0.38011187279E+03 -0.36702143842E+03  0.58666351776E+03  0.79363497600E+03  0.80576795421E+02 0.  0.
         24    2    4    4    0    0 -0.15095817187E+02  0.32574712045E+03 -0.62383902189E+02  0.34144192690E+03  0.79697979960E+02 0.  0.
         13    1    3    3    0    0  0.20661232312E+02 -0.15092961088E+02  0.55516572167E+01  0.26182148363E+02  0.00000000000E+00 0. -1.
        -13    1    3    3    0    0  0.37454645767E+03  0.56367279052E+02  0.29541292736E+03  0.48034478945E+03  0.00000000000E+00 0.  1.
          2    1    6    6  502    0  0.58959745337E-01  0.62896439985E+02  0.19272385502E+02  0.65782904177E+02  0.00000000000E+00 0. -1.
          3    1    5    5  503    0 -0.81964936471E+02 -0.11490282436E+03  0.19373688312E+03  0.23969749631E+03  0.00000000000E+00 0. -1.
         -4    1    5    5    0  503 -0.29814693632E+03 -0.25211861406E+03  0.39292663464E+03  0.55393747968E+03  0.00000000000E+00 0.  1.
         -1    1    6    6    0  502 -0.15154776932E+02  0.26285068047E+03 -0.81656287691E+02  0.27565902272E+03  0.00000000000E+00 0.  1.
<mgrwt>
<rscale>  0 0.14190966E+04</rscale>
<asrwt>0</asrwt>
<pdfrwt beam="1">  1        4 0.18975754E+00 0.14190966E+04</pdfrwt>
<pdfrwt beam="2">  1       -4 0.62796896E-01 0.14190966E+04</pdfrwt>
<totfact> 0.71133470E-01</totfact>
</mgrwt>
</event>
<event>
12    1  0.1114484E-007  0.2225480E+04  0.7818608E-02  0.8507897E-01
          2   -1    0    0  501    0  0.00000000000E+00  0.00000000000E+00  0.13625818047E+04  0.13625818047E+04  0.00000000000E+00 0. -1.
         -2   -1    0    0    0  501 -0.00000000000E+00 -0.00000000000E+00 -0.90870901001E+03  0.90870901001E+03  0.00000000000E+00 0.  1.
         23    2    1    2    0    0  0.25829111797E+03 -0.65878711538E+03 -0.42297393509E+03  0.82918482327E+03  0.89026717159E+02 0.  0.
        254    2    1    2    0    0 -0.25829111797E+03  0.65878711538E+03  0.87684672973E+03  0.14421059914E+04  0.90005263068E+03 0.  0.
        -24    2    4    4    0    0 -0.30129329632E+03  0.75639476399E+03  0.97818813037E+03  0.12751934151E+04  0.79721629416E+02 0.  0.
         24    2    4    4    0    0  0.43002178355E+02 -0.97607648614E+02 -0.10134140064E+03  0.16691257627E+03  0.78824413872E+02 0.  0.
         11    1    3    3    0    0  0.71793235970E+02 -0.93191120207E+02 -0.70360192963E+02  0.13707447016E+03  0.00000000000E+00 0. -1.
        -11    1    3    3    0    0  0.18649788200E+03 -0.56559599517E+03 -0.35261374212E+03  0.69211035311E+03  0.00000000000E+00 0.  1.
          2    1    6    6  502    0 -0.12245168011E+02 -0.41782469457E+02 -0.69817340179E+02  0.82281102832E+02  0.00000000000E+00 0. -1.
          3    1    5    5  503    0 -0.21478428178E+02  0.74416112509E+02  0.13112688316E+03  0.15229359857E+03  0.00000000000E+00 0. -1.
         -4    1    5    5    0  503 -0.27981486814E+03  0.68197865148E+03  0.84706124721E+03  0.11228998166E+04  0.00000000000E+00 0.  1.
         -1    1    6    6    0  502  0.55247346366E+02 -0.55825179157E+02 -0.31524060461E+02  0.84631473438E+02  0.00000000000E+00 0.  1.
<mgrwt>
<rscale>  0 0.22254800E+04</rscale>
<asrwt>0</asrwt>
<pdfrwt beam="1">  1        2 0.20962797E+00 0.22254800E+04</pdfrwt>
<pdfrwt beam="2">  1       -2 0.13980139E+00 0.22254800E+04</pdfrwt>
<totfact> 0.50006008E+00</totfact>
</mgrwt>
</event>
<event>
12    1  0.1114484E-007  0.1223191E+04  0.7818608E-02  0.9092796E-01
          1   -1    0    0  501    0  0.00000000000E+00  0.00000000000E+00  0.65092184996E+03  0.65092184996E+03  0.00000000000E+00 0. -1.
         -1   -1    0    0    0  501 -0.00000000000E+00 -0.00000000000E+00 -0.57464541797E+03  0.57464541797E+03  0.00000000000E+00 0.  1.
         23    2    1    2    0    0 -0.24547576912E+03  0.80284193395E+02  0.12144928941E+03  0.29908391558E+03  0.89427924746E+02 0.  0.
        254    2    1    2    0    0  0.24547576912E+03 -0.80284193395E+02 -0.45172857418E+02  0.92648335235E+03  0.88860953753E+03 0.  0.
        -24    2    4    4    0    0  0.50014390546E+03  0.18793083966E+03  0.26695539474E+02  0.54165432665E+03  0.84940161822E+02 0.  0.
         24    2    4    4    0    0 -0.25466813634E+03 -0.26821503305E+03 -0.71868396892E+02  0.38482902570E+03  0.78314423471E+02 0.  0.
         11    1    3    3    0    0  0.39134543058E+01  0.63177200699E+01 -0.58697565702E+01  0.94700978706E+01  0.00000000000E+00 0.  1.
        -11    1    3    3    0    0 -0.24938922343E+03  0.73966473325E+02  0.12731904598E+03  0.28961381771E+03  0.00000000000E+00 0. -1.
          4    1    6    6  502    0 -0.35961234145E+02 -0.73363887186E+02  0.54356212978E+01  0.81884163812E+02  0.00000000000E+00 0. -1.
          1    1    5    5  503    0  0.72842727918E+02  0.61638906893E+02  0.46329578329E+01  0.95534716997E+02  0.00000000000E+00 0. -1.
         -2    1    5    5    0  503  0.42730117754E+03  0.12629193276E+03  0.22062581641E+02  0.44611960965E+03  0.00000000000E+00 0.  1.
         -3    1    6    6    0  502 -0.21870690220E+03 -0.19485114587E+03 -0.77304018190E+02  0.30294486188E+03  0.00000000000E+00 0.  1.
<mgrwt>
<rscale>  0 0.12231913E+04</rscale>
<asrwt>0</asrwt>
<pdfrwt beam="1">  1        1 0.10014182E+00 0.12231913E+04</pdfrwt>
<pdfrwt beam="2">  1       -1 0.88406987E-01 0.12231913E+04</pdfrwt>
<totfact> 0.37751748E+01</totfact>
</mgrwt>
</event>
<event>
12    1  0.1114484E-007  0.1243812E+04  0.7818608E-02  0.9075349E-01
         -2   -1    0    0    0  501 -0.00000000000E+00  0.00000000000E+00  0.27352330407E+03  0.27352330407E+03  0.00000000000E+00 0.  1.
          2   -1    0    0  501    0  0.00000000000E+00 -0.00000000000E+00 -0.14140185007E+04  0.14140185007E+04  0.00000000000E+00 0. -1.
         23    2    1    2    0    0 -0.21556521862E+03  0.11467567114E+03 -0.76710019507E+02  0.27435231530E+03  0.98822531772E+02 0.  0.
        254    2    1    2    0    0  0.21556521862E+03 -0.11467567114E+03 -0.10637851771E+04  0.14131894894E+04  0.89768967747E+03 0.  0.
        -24    2    4    4    0    0  0.12289563758E+03 -0.37728034191E+03 -0.11460457570E+03  0.42067400187E+03  0.79928799256E+02 0.  0.
         24    2    4    4    0    0  0.92669581038E+02  0.26260467076E+03 -0.94918060137E+03  0.99251548756E+03  0.81205385724E+02 0.  0.
         11    1    3    3    0    0 -0.21944720973E+03  0.90868362987E+02 -0.78529696999E+02  0.25016204860E+03  0.00000000000E+00 0.  1.
        -11    1    3    3    0    0  0.38819911102E+01  0.23807308157E+02  0.18196774918E+01  0.24190266696E+02  0.00000000000E+00 0. -1.
          2    1    6    6  502    0  0.37732693207E+02  0.20877193023E+03 -0.73159004904E+03  0.76173057891E+03  0.00000000000E+00 0. -1.
          1    1    5    5  503    0  0.61724637954E+02 -0.11974714395E+03 -0.68808002663E+01  0.13489497702E+03  0.00000000000E+00 0. -1.
         -2    1    5    5    0  503  0.61170999625E+02 -0.25753319796E+03 -0.10772377544E+03  0.28577902484E+03  0.00000000000E+00 0.  1.
         -1    1    6    6    0  502  0.54936887832E+02  0.53832740535E+02 -0.21759055233E+03  0.23078490865E+03  0.00000000000E+00 0.  1.
<mgrwt>
<rscale>  0 0.12438119E+04</rscale>
<asrwt>0</asrwt>
<pdfrwt beam="1">  1        2 0.21754131E+00 0.12438119E+04</pdfrwt>
<pdfrwt beam="2">  1       -2 0.42080508E-01 0.12438119E+04</pdfrwt>
<totfact> 0.74770836E+01</totfact>
</mgrwt>
</event>
<event>
12    1  0.1114484E-007  0.1638109E+04  0.7818608E-02  0.8797472E-01
         -1   -1    0    0    0  501 -0.00000000000E+00  0.00000000000E+00  0.40786269154E+03  0.40786269154E+03  0.00000000000E+00 0.  1.
          1   -1    0    0  501    0  0.00000000000E+00 -0.00000000000E+00 -0.16447948377E+04  0.16447948377E+04  0.00000000000E+00 0. -1.
         23    2    1    2    0    0 -0.19639813746E+03  0.53287759446E+03 -0.45438953194E+03  0.73307436069E+03  0.91637396863E+02 0.  0.
        254    2    1    2    0    0  0.19639813746E+03 -0.53287759446E+03 -0.78254261423E+03  0.13195831686E+04  0.89799556601E+03 0.  0.
        -24    2    4    4    0    0 -0.66726219822E+02 -0.55045459397E+03 -0.80017731533E+02  0.56594525647E+03  0.80240560351E+02 0.  0.
         24    2    4    4    0    0  0.26312435728E+03  0.17576999519E+02 -0.70252488270E+03  0.75363791208E+03  0.69896447722E+02 0.  0.
         11    1    3    3    0    0 -0.13009485429E+03  0.45283436779E+03 -0.36522969813E+03  0.59613452187E+03  0.00000000000E+00 0. -1.
        -11    1    3    3    0    0 -0.66303283166E+02  0.80043226663E+02 -0.89159833804E+02  0.13693983882E+03  0.00000000000E+00 0.  1.
          4    1    6    6  502    0  0.88304455632E+02  0.15343366235E+02 -0.15700390912E+03  0.18078529600E+03  0.00000000000E+00 0. -1.
          1    1    5    5  503    0 -0.17507259333E+02 -0.24915117625E+02 -0.15526158698E+02  0.34180825320E+02  0.00000000000E+00 0. -1.
         -2    1    5    5    0  503 -0.49218960489E+02 -0.52553947635E+03 -0.64491572835E+02  0.53176443115E+03  0.00000000000E+00 0.  1.
         -3    1    6    6    0  502  0.17481990165E+03  0.22336332846E+01 -0.54552097358E+03  0.57285261608E+03  0.00000000000E+00 0.  1.
<mgrwt>
<rscale>  0 0.16381092E+04</rscale>
<asrwt>0</asrwt>
<pdfrwt beam="1">  1        1 0.25304536E+00 0.16381092E+04</pdfrwt>
<pdfrwt beam="2">  1       -1 0.62748106E-01 0.16381092E+04</pdfrwt>
<totfact> 0.12810013E+01</totfact>
</mgrwt>
</event>
<event>
12    1  0.1114484E-007  0.1855309E+04  0.7818608E-02  0.8677427E-01
          1   -1    0    0  501    0  0.00000000000E+00  0.00000000000E+00  0.14628521564E+04  0.14628521564E+04  0.00000000000E+00 0. -1.
         -1   -1    0    0    0  501 -0.00000000000E+00 -0.00000000000E+00 -0.58826366501E+03  0.58826366501E+03  0.00000000000E+00 0.  1.
         23    2    1    2    0    0 -0.45181838725E+03  0.48468361171E+03  0.60094512551E+03  0.89912551788E+03  0.90739156384E+02 0.  0.
        254    2    1    2    0    0  0.45181838725E+03 -0.48468361171E+03  0.27364336584E+03  0.11519903035E+04  0.90174437017E+03 0.  0.
        -24    2    4    4    0    0  0.71923759871E+03 -0.29673008460E+03  0.21574031744E+03  0.81124361942E+03  0.78872422175E+02 0.  0.
         24    2    4    4    0    0 -0.26741921146E+03 -0.18795352712E+03  0.57903048401E+02  0.34074668407E+03  0.76915386472E+02 0.  0.
         11    1    3    3    0    0 -0.38658808513E+03  0.44629719976E+03  0.50524131945E+03  0.77711024247E+03  0.00000000000E+00 0. -1.
        -11    1    3    3    0    0 -0.65230302116E+02  0.38386411957E+02  0.95703806063E+02  0.12201527540E+03  0.00000000000E+00 0.  1.
          4    1    6    6  502    0 -0.22882547756E+03 -0.12211954166E+03  0.48311664367E+02  0.26383384648E+03  0.00000000000E+00 0. -1.
          3    1    5    5  503    0  0.55333775943E+03 -0.23588886772E+03  0.13262130944E+03  0.61596643224E+03  0.00000000000E+00 0. -1.
         -4    1    5    5    0  503  0.16589983927E+03 -0.60841216882E+02  0.83119007995E+02  0.19527718718E+03  0.00000000000E+00 0.  1.
         -3    1    6    6    0  502 -0.38593733896E+02 -0.65833985459E+02  0.95913840339E+01  0.76912837584E+02  0.00000000000E+00 0.  1.
<mgrwt>
<rscale>  0 0.18553089E+04</rscale>
<asrwt>0</asrwt>
<pdfrwt beam="1">  1        1 0.22505418E+00 0.18553089E+04</pdfrwt>
<pdfrwt beam="2">  1       -1 0.90502103E-01 0.18553089E+04</pdfrwt>
<totfact> 0.77795968E+00</totfact>
</mgrwt>
</event>
<event>
12    1  0.1114484E-007  0.1475119E+04  0.7818608E-02  0.8901169E-01
          2   -1    0    0  501    0  0.00000000000E+00  0.00000000000E+00  0.24370326813E+04  0.24370326813E+04  0.00000000000E+00 0. -1.
         -2   -1    0    0    0  501 -0.00000000000E+00 -0.00000000000E+00 -0.22321980380E+03  0.22321980380E+03  0.00000000000E+00 0.  1.
         23    2    1    2    0    0 -0.67899112465E+01  0.35286411378E+02 -0.12249971838E+03  0.15545500543E+03  0.88706504763E+02 0.  0.
        254    2    1    2    0    0  0.67899112465E+01 -0.35286411378E+02  0.23363125959E+04  0.25047974797E+04  0.90242043131E+03 0.  0.
        -24    2    4    4    0    0 -0.21239063663E+03  0.26376626806E+03  0.18760628567E+04  0.19080651304E+04  0.80114122813E+02 0.  0.
         24    2    4    4    0    0  0.21918054788E+03 -0.29905267944E+03  0.46024973917E+03  0.59673234933E+03  0.82383594709E+02 0.  0.
         13    1    3    3    0    0 -0.54887470551E+01  0.13859433139E+02 -0.13138093068E+03  0.13222389790E+03  0.00000000000E+00 0.  1.
        -13    1    3    3    0    0 -0.13011641915E+01  0.21426978239E+02  0.88812123032E+01  0.23231107521E+02  0.00000000000E+00 0. -1.
          4    1    6    6  502    0  0.74324961683E+02 -0.16283514123E+03  0.18780110232E+03  0.25943927455E+03  0.00000000000E+00 0. -1.
          1    1    5    5  503    0 -0.14259048871E+03  0.21676364477E+03  0.15350636093E+04  0.15568361537E+04  0.00000000000E+00 0. -1.
         -2    1    5    5    0  503 -0.69800147917E+02  0.47002623298E+02  0.34099924746E+03  0.35122897662E+03  0.00000000000E+00 0.  1.
         -3    1    6    6    0  502  0.14485558619E+03 -0.13621753822E+03  0.27244863686E+03  0.33729307478E+03  0.00000000000E+00 0.  1.
<mgrwt>
<rscale>  0 0.14751189E+04</rscale>
<asrwt>0</asrwt>
<pdfrwt beam="1">  1        2 0.37492809E+00 0.14751189E+04</pdfrwt>
<pdfrwt beam="2">  1       -2 0.34341510E-01 0.14751189E+04</pdfrwt>
<totfact> 0.29183600E+01</totfact>
</mgrwt>
</event>
<event>
12    1  0.1114484E-007  0.2563690E+04  0.7818608E-02  0.8380641E-01
         -2   -1    0    0    0  501 -0.00000000000E+00  0.00000000000E+00  0.55412827672E+03  0.55412827672E+03  0.00000000000E+00 0.  1.
          2   -1    0    0  501    0  0.00000000000E+00 -0.00000000000E+00 -0.29652456980E+04  0.29652456980E+04  0.00000000000E+00 0. -1.
         23    2    1    2    0    0  0.54744272499E+03 -0.95884124584E+03 -0.13544578222E+04  0.17497255445E+04  0.88957388890E+02 0.  0.
        254    2    1    2    0    0 -0.54744272499E+03  0.95884124584E+03 -0.10566595990E+04  0.17696484302E+04  0.89221969626E+03 0.  0.
        -24    2    4    4    0    0 -0.56693825467E+03  0.24957301293E+03 -0.20343766714E+03  0.65704660634E+03  0.81349155453E+02 0.  0.
         24    2    4    4    0    0  0.19495529685E+02  0.70926823291E+03 -0.85322193190E+03  0.11126018239E+04  0.80334622017E+02 0.  0.
         11    1    3    3    0    0  0.38380957119E+03 -0.58652077896E+03 -0.86598833170E+03  0.11141149859E+04  0.00000000000E+00 0.  1.
        -11    1    3    3    0    0  0.16363315380E+03 -0.37232046688E+03 -0.48846949053E+03  0.63561055865E+03  0.00000000000E+00 0. -1.
          2    1    6    6  502    0  0.22280580658E+02  0.57712487353E+03 -0.73895932232E+03  0.93788614659E+03  0.00000000000E+00 0. -1.
          1    1    5    5  503    0 -0.37548547410E+03  0.20419418522E+03 -0.15244973740E+03  0.45379018166E+03  0.00000000000E+00 0. -1.
         -4    1    5    5    0  503 -0.19145278057E+03  0.45378827714E+02 -0.50987929736E+02  0.20325642468E+03  0.00000000000E+00 0.  1.
         -1    1    6    6    0  502 -0.27850509733E+01  0.13214335937E+03 -0.11426260958E+03  0.17471567727E+03  0.00000000000E+00 0.  1.
<mgrwt>
<rscale>  0 0.25636899E+04</rscale>
<asrwt>0</asrwt>
<pdfrwt beam="1">  1        2 0.45619164E+00 0.25636899E+04</pdfrwt>
<pdfrwt beam="2">  1       -2 0.85250505E-01 0.25636899E+04</pdfrwt>
<totfact> 0.19436734E+00</totfact>
</mgrwt>
</event>
<event>
12    1  0.1114484E-007  0.1214102E+04  0.7818608E-02  0.9100602E-01
         -1   -1    0    0    0  501 -0.00000000000E+00  0.00000000000E+00  0.64258326090E+03  0.64258326090E+03  0.00000000000E+00 0.  1.
          1   -1    0    0  501    0  0.00000000000E+00 -0.00000000000E+00 -0.57348386994E+03  0.57348386994E+03  0.00000000000E+00 0. -1.
         23    2    1    2    0    0 -0.17067113471E+03  0.16357665789E+02 -0.18508853984E+03  0.26972225506E+03  0.95373569952E+02 0.  0.
        254    2    1    2    0    0  0.17067113471E+03 -0.16357665789E+02  0.25418793080E+03  0.94634487578E+03  0.89529934117E+03 0.  0.
        -24    2    4    4    0    0 -0.42208630012E+02 -0.25685842185E+03 -0.23301823702E+03  0.35841530514E+03  0.80038833402E+02 0.  0.
         24    2    4    4    0    0  0.21287976472E+03  0.24050075606E+03  0.48720616783E+03  0.58792957063E+03  0.71644414746E+02 0.  0.
         11    1    3    3    0    0 -0.12660043124E+03 -0.32175691475E+02 -0.12180088224E+03  0.17860122963E+03  0.00000000000E+00 0. -1.
        -11    1    3    3    0    0 -0.44070703468E+02  0.48533357264E+02 -0.63287657598E+02  0.91121025432E+02  0.00000000000E+00 0.  1.
          4    1    6    6  502    0  0.17315585239E+03  0.18495949223E+03  0.42887070150E+03  0.49811950533E+03  0.00000000000E+00 0. -1.
          3    1    5    5  503    0 -0.33883189674E+02 -0.25597062885E+03 -0.23571923209E+03  0.34961777665E+03  0.00000000000E+00 0. -1.
         -4    1    5    5    0  503 -0.83254403375E+01 -0.88779300290E+00  0.27009950634E+01  0.87975284917E+01  0.00000000000E+00 0.  1.
         -3    1    6    6    0  502  0.39723912327E+02  0.55541263833E+02  0.58335466328E+02  0.89810065307E+02  0.00000000000E+00 0.  1.
<mgrwt>
<rscale>  0 0.12141024E+04</rscale>
<asrwt>0</asrwt>
<pdfrwt beam="1">  1        1 0.88228288E-01 0.12141024E+04</pdfrwt>
<pdfrwt beam="2">  1       -1 0.98858963E-01 0.12141024E+04</pdfrwt>
<totfact> 0.35379119E+01</totfact>
</mgrwt>
</event>
<event>
12    1  0.1114484E-007  0.2521513E+04  0.7818608E-02  0.8395361E-01
         -2   -1    0    0    0  501 -0.00000000000E+00  0.00000000000E+00  0.13465131232E+04  0.13465131232E+04  0.00000000000E+00 0.  1.
          2   -1    0    0  501    0  0.00000000000E+00 -0.00000000000E+00 -0.11804617060E+04  0.11804617060E+04  0.00000000000E+00 0. -1.
         23    2    1    2    0    0  0.94540100120E+03 -0.19498357153E+02 -0.48251584953E+03  0.10655411927E+04  0.91614678267E+02 0.  0.
        254    2    1    2    0    0 -0.94540100120E+03  0.19498357153E+02  0.64856726674E+03  0.14614336366E+04  0.90608252139E+03 0.  0.
        -24    2    4    4    0    0 -0.58245581694E+03  0.25679826020E+03 -0.41074023282E+02  0.64294453287E+03  0.80563464555E+02 0.  0.
         24    2    4    4    0    0 -0.36294518426E+03 -0.23729990305E+03  0.68964129002E+03  0.81848910369E+03  0.79239214976E+02 0.  0.
         13    1    3    3    0    0  0.13732038194E+03  0.79956030577E+01 -0.37300612744E+02  0.14252070964E+03  0.00000000000E+00 0. -1.
        -13    1    3    3    0    0  0.80808061926E+03 -0.27493960210E+02 -0.44521523679E+03  0.92302048306E+03  0.00000000000E+00 0.  1.
          2    1    6    6  502    0 -0.15930002497E+03 -0.60149578059E+02  0.24577183955E+03  0.29899542942E+03  0.00000000000E+00 0. -1.
          1    1    5    5  503    0 -0.18926056855E+03  0.10693808986E+03  0.17570912614E+02  0.21809184955E+03  0.00000000000E+00 0. -1.
         -2    1    5    5    0  503 -0.39319524840E+03  0.14986017034E+03 -0.58644935896E+02  0.42485268332E+03  0.00000000000E+00 0.  1.
         -1    1    6    6    0  502 -0.20364515928E+03 -0.17715032499E+03  0.44386945047E+03  0.51949367427E+03  0.00000000000E+00 0.  1.
<mgrwt>
<rscale>  0 0.25215132E+04</rscale>
<asrwt>0</asrwt>
<pdfrwt beam="1">  1        2 0.18160949E+00 0.25215132E+04</pdfrwt>
<pdfrwt beam="2">  1       -2 0.20715586E+00 0.25215132E+04</pdfrwt>
<totfact> 0.20693612E+00</totfact>
</mgrwt>
</event>
<event>
12    1  0.1114484E-007  0.1634038E+04  0.7818608E-02  0.8799906E-01
         -2   -1    0    0    0  501 -0.00000000000E+00  0.00000000000E+00  0.37916133954E+03  0.37916133954E+03  0.00000000000E+00 0.  1.
          2   -1    0    0  501    0  0.00000000000E+00 -0.00000000000E+00 -0.17605179653E+04  0.17605179653E+04  0.00000000000E+00 0. -1.
         23    2    1    2    0    0  0.41002913505E+03  0.90976367199E+02 -0.97687743730E+03  0.10673302566E+04  0.92215824078E+02 0.  0.
        254    2    1    2    0    0 -0.41002913505E+03 -0.90976367199E+02 -0.40447918847E+03  0.10723490482E+04  0.89996026375E+03 0.  0.
        -24    2    4    4    0    0 -0.36720835246E+03 -0.30311783877E+03  0.12187670487E+03  0.49802425458E+03  0.80323275977E+02 0.  0.
         24    2    4    4    0    0 -0.42820782596E+02  0.21214147157E+03 -0.52635589334E+03  0.57432479364E+03  0.77206338883E+02 0.  0.
         11    1    3    3    0    0  0.38290725422E+03  0.81318345192E+02 -0.83024733831E+03  0.91790047465E+03  0.00000000000E+00 0. -1.
        -11    1    3    3    0    0  0.27121880838E+02  0.96580220076E+01 -0.14663009899E+03  0.14942978197E+03  0.00000000000E+00 0.  1.
          2    1    6    6  502    0 -0.16220021501E+02  0.17951743057E+03 -0.47419523412E+03  0.50729746406E+03  0.00000000000E+00 0. -1.
          1    1    5    5  503    0 -0.24138288873E+03 -0.17098379092E+03  0.10849366961E+03  0.31507464525E+03  0.00000000000E+00 0. -1.
         -2    1    5    5    0  503 -0.12582546372E+03 -0.13213404784E+03  0.13383035257E+02  0.18294960933E+03  0.00000000000E+00 0.  1.
         -1    1    6    6    0  502 -0.26600761095E+02  0.32624040992E+02 -0.52160659215E+02  0.67027329584E+02  0.00000000000E+00 0.  1.
<mgrwt>
<rscale>  0 0.16340384E+04</rscale>
<asrwt>0</asrwt>
<pdfrwt beam="1">  1        2 0.27084892E+00 0.16340384E+04</pdfrwt>
<pdfrwt beam="2">  1       -2 0.58332513E-01 0.16340384E+04</pdfrwt>
<totfact> 0.23857429E+01</totfact>
</mgrwt>
</event>
<event>
12    1  0.1114484E-007  0.2415180E+04  0.7818608E-02  0.8433842E-01
         -2   -1    0    0    0  501 -0.00000000000E+00  0.00000000000E+00  0.89029969717E+03  0.89029969717E+03  0.00000000000E+00 0.  1.
          2   -1    0    0  501    0  0.00000000000E+00 -0.00000000000E+00 -0.16379580115E+04  0.16379580115E+04  0.00000000000E+00 0. -1.
         23    2    1    2    0    0 -0.19535835559E+03  0.96033940650E+03  0.33706918851E+02  0.98470631440E+03  0.89965029099E+02 0.  0.
        254    2    1    2    0    0  0.19535835559E+03 -0.96033940650E+03 -0.78136523315E+03  0.15435513943E+04  0.90088990246E+03 0.  0.
        -24    2    4    4    0    0  0.13911328148E+03 -0.10477674879E+03 -0.64324620186E+03  0.67141852676E+03  0.81893160269E+02 0.  0.
         24    2    4    4    0    0  0.56245074114E+02 -0.85556265771E+03 -0.13811903130E+03  0.87213286750E+03  0.79924352529E+02 0.  0.
         13    1    3    3    0    0 -0.15718386927E+03  0.74885620541E+03 -0.10772186306E+02  0.76525056363E+03  0.00000000000E+00 0.  1.
        -13    1    3    3    0    0 -0.38174486324E+02  0.21148320109E+03  0.44479105157E+02  0.21945575077E+03  0.00000000000E+00 0. -1.
          4    1    6    6  502    0 -0.48466356768E+01 -0.29982030156E+03 -0.77872301232E+02  0.30980606580E+03  0.00000000000E+00 0. -1.
          3    1    5    5  503    0 -0.66382851337E+01  0.41412294502E+01 -0.10914746627E+02  0.13429382145E+02  0.00000000000E+00 0. -1.
         -4    1    5    5    0  503  0.14575156661E+03 -0.10891797824E+03 -0.63233145523E+03  0.65798914461E+03  0.00000000000E+00 0.  1.
         -3    1    6    6    0  502  0.61091709790E+02 -0.55574235615E+03 -0.60246730064E+02  0.56232680170E+03  0.00000000000E+00 0.  1.
<mgrwt>
<rscale>  0 0.24151799E+04</rscale>
<asrwt>0</asrwt>
<pdfrwt beam="1">  1        2 0.25199354E+00 0.24151799E+04</pdfrwt>
<pdfrwt beam="2">  1       -2 0.13696918E+00 0.24151799E+04</pdfrwt>
<totfact> 0.36262464E+00</totfact>
</mgrwt>
</event>
<event>
12    1  0.1114484E-007  0.3011036E+04  0.7818608E-02  0.8240587E-01
         -1   -1    0    0    0  501 -0.00000000000E+00  0.00000000000E+00  0.13629721538E+04  0.13629721538E+04  0.00000000000E+00 0.  1.
          1   -1    0    0  501    0  0.00000000000E+00 -0.00000000000E+00 -0.16629718707E+04  0.16629718707E+04  0.00000000000E+00 0. -1.
         23    2    1    2    0    0  0.19900550683E+03 -0.13710352497E+03 -0.14768206834E+04  0.14990848952E+04  0.88631957050E+02 0.  0.
        254    2    1    2    0    0 -0.19900550683E+03  0.13710352497E+03  0.11768209665E+04  0.15268591293E+04  0.94233255558E+03 0.  0.
        -24    2    4    4    0    0 -0.55753127929E+03  0.17010337967E+03  0.58607148159E+03  0.83054241775E+03  0.80898943118E+02 0.  0.
         24    2    4    4    0    0  0.35852577246E+03 -0.32999854699E+02  0.59074948489E+03  0.69631671155E+03  0.79008157547E+02 0.  0.
         13    1    3    3    0    0  0.54258847392E+02  0.50476171095E+01 -0.30285175949E+03  0.30771527292E+03  0.00000000000E+00 0.  1.
        -13    1    3    3    0    0  0.14474665943E+03 -0.14215114208E+03 -0.11739689239E+04  0.11913696223E+04  0.00000000000E+00 0. -1.
          2    1    6    6  502    0  0.99452096688E+02  0.19858078805E+02  0.20404123470E+03  0.22785497205E+03  0.00000000000E+00 0. -1.
          1    1    5    5  503    0 -0.23833672364E+03  0.31504607167E+02  0.24676193260E+03  0.34451180747E+03  0.00000000000E+00 0. -1.
         -2    1    5    5    0  503 -0.31919455565E+03  0.13859877251E+03  0.33930954899E+03  0.48603061029E+03  0.00000000000E+00 0.  1.
         -1    1    6    6    0  502  0.25907367578E+03 -0.52857933504E+02  0.38670825019E+03  0.46846173951E+03  0.00000000000E+00 0.  1.
<mgrwt>
<rscale>  0 0.30110359E+04</rscale>
<asrwt>0</asrwt>
<pdfrwt beam="1">  1        1 0.25584182E+00 0.30110359E+04</pdfrwt>
<pdfrwt beam="2">  1       -1 0.20968802E+00 0.30110359E+04</pdfrwt>
<totfact> 0.55496006E-01</totfact>
</mgrwt>
</event>
<event>
12    1  0.1114484E-007  0.1726418E+04  0.7818608E-02  0.8746439E-01
          2   -1    0    0  501    0  0.00000000000E+00  0.00000000000E+00  0.17920226653E+04  0.17920226653E+04  0.00000000000E+00 0. -1.
         -2   -1    0    0    0  501 -0.00000000000E+00 -0.00000000000E+00 -0.41580390379E+03  0.41580390379E+03  0.00000000000E+00 0.  1.
         23    2    1    2    0    0  0.57706162399E+03 -0.13363085504E+03  0.25268132273E+03  0.65035736076E+03  0.90881915350E+02 0.  0.
        254    2    1    2    0    0 -0.57706162399E+03  0.13363085504E+03  0.11235374388E+04  0.15574692083E+04  0.90139704641E+03 0.  0.
        -24    2    4    4    0    0 -0.53108302701E+03  0.31628933084E+03  0.27004142276E+03  0.67921587553E+03  0.79521778084E+02 0.  0.
         24    2    4    4    0    0 -0.45978596987E+02 -0.18265847580E+03  0.85349601602E+03  0.87825333281E+03  0.85996029298E+02 0.  0.
         13    1    3    3    0    0  0.54918159280E+03 -0.14635728226E+03  0.24393704442E+03  0.61848699063E+03  0.00000000000E+00 0.  1.
        -13    1    3    3    0    0  0.27880031194E+02  0.12726427219E+02  0.87442783061E+01  0.31870370130E+02  0.00000000000E+00 0. -1.
          4    1    6    6  502    0 -0.70252074421E+01 -0.97954605588E+01  0.22313153255E+03  0.22345689832E+03  0.00000000000E+00 0. -1.
          1    1    5    5  503    0 -0.23631700687E+03  0.10343086527E+03  0.13675012185E+03  0.29196620944E+03  0.00000000000E+00 0. -1.
         -2    1    5    5    0  503 -0.29476602013E+03  0.21285846557E+03  0.13329130090E+03  0.38724966609E+03  0.00000000000E+00 0.  1.
         -3    1    6    6    0  502 -0.38953389545E+02 -0.17286301524E+03  0.63036448347E+03  0.65479643449E+03  0.00000000000E+00 0.  1.
<mgrwt>
<rscale>  0 0.17264183E+04</rscale>
<asrwt>0</asrwt>
<pdfrwt beam="1">  1        2 0.27569579E+00 0.17264183E+04</pdfrwt>
<pdfrwt beam="2">  1       -2 0.63969832E-01 0.17264183E+04</pdfrwt>
<totfact> 0.18700932E+01</totfact>
</mgrwt>
</event>
<event>
12    1  0.1114484E-007  0.1342674E+04  0.7818608E-02  0.8996392E-01
          2   -1    0    0  501    0  0.00000000000E+00  0.00000000000E+00  0.17797804605E+04  0.17797804605E+04  0.00000000000E+00 0. -1.
         -2   -1    0    0    0  501 -0.00000000000E+00 -0.00000000000E+00 -0.25322983581E+03  0.25322983581E+03  0.00000000000E+00 0.  1.
         23    2    1    2    0    0  0.17201878285E+03 -0.19433069490E+03  0.82944315896E+03  0.87401920209E+03  0.92621439430E+02 0.  0.
        254    2    1    2    0    0 -0.17201878285E+03  0.19433069490E+03  0.69710746570E+03  0.11589910942E+04  0.88878943348E+03 0.  0.
        -24    2    4    4    0    0 -0.22997470359E+03 -0.10994063256E+03  0.78306500805E+03  0.82785579653E+03  0.84729605482E+02 0.  0.
         24    2    4    4    0    0  0.57955920743E+02  0.30427132746E+03 -0.85957542346E+02  0.33113529767E+03  0.79510733937E+02 0.  0.
         11    1    3    3    0    0  0.75494599702E+02 -0.11976853191E+03  0.57025670257E+03  0.58756841529E+03  0.00000000000E+00 0. -1.
        -11    1    3    3    0    0  0.96524183145E+02 -0.74562162996E+02  0.25918645639E+03  0.28645078680E+03  0.00000000000E+00 0.  1.
          2    1    6    6  502    0  0.58279702401E+02  0.14702272665E+03 -0.70415900697E+02  0.17312020372E+03  0.00000000000E+00 0. -1.
          3    1    5    5  503    0 -0.22465474052E+03 -0.96796127218E+02  0.77211802022E+03  0.80994165211E+03  0.00000000000E+00 0. -1.
         -4    1    5    5    0  503 -0.53199630740E+01 -0.13144505340E+02  0.10946987828E+02  0.17914144419E+02  0.00000000000E+00 0.  1.
         -1    1    6    6    0  502 -0.32378165720E+00  0.15724860081E+03 -0.15541641649E+02  0.15801509395E+03  0.00000000000E+00 0.  1.
<mgrwt>
<rscale>  0 0.13426742E+04</rscale>
<asrwt>0</asrwt>
<pdfrwt beam="1">  1        2 0.27381237E+00 0.13426742E+04</pdfrwt>
<pdfrwt beam="2">  1       -2 0.38958437E-01 0.13426742E+04</pdfrwt>
<totfact> 0.53891016E+01</totfact>
</mgrwt>
</event>
<event>
12    1  0.1114484E-007  0.2239046E+04  0.7818608E-02  0.8502350E-01
          2   -1    0    0  501    0  0.00000000000E+00  0.00000000000E+00  0.23521626206E+04  0.23521626206E+04  0.00000000000E+00 0. -1.
         -2   -1    0    0    0  501 -0.00000000000E+00 -0.00000000000E+00 -0.53284242859E+03  0.53284242859E+03  0.00000000000E+00 0.  1.
         23    2    1    2    0    0  0.86140989056E+03 -0.35953457975E+03  0.96773932296E+03  0.13474323357E+04  0.88104417563E+02 0.  0.
        254    2    1    2    0    0 -0.86140989056E+03  0.35953457975E+03  0.85158086903E+03  0.15375727135E+04  0.87615509999E+03 0.  0.
        -24    2    4    4    0    0 -0.39793852996E+03 -0.16435063610E+03  0.68716197890E+03  0.81470969252E+03  0.78702557939E+02 0.  0.
         24    2    4    4    0    0 -0.46347136060E+03  0.52388521584E+03  0.16441889013E+03  0.72286302099E+03  0.78968058148E+02 0.  0.
         13    1    3    3    0    0  0.55203268407E+03 -0.27514727746E+03  0.64583655547E+03  0.89305708942E+03  0.00000000000E+00 0.  1.
        -13    1    3    3    0    0  0.30937720649E+03 -0.84387302287E+02  0.32190276749E+03  0.45437524624E+03  0.00000000000E+00 0. -1.
          2    1    6    6  502    0 -0.18663162988E+03  0.26072997236E+03  0.97074797081E+02  0.33501492502E+03  0.00000000000E+00 0. -1.
          3    1    5    5  503    0 -0.18406964447E+02 -0.16944818888E+02  0.15973819138E+02  0.29683431828E+02  0.00000000000E+00 0. -1.
         -4    1    5    5    0  503 -0.37953156551E+03 -0.14740581721E+03  0.67118815976E+03  0.78502626069E+03  0.00000000000E+00 0.  1.
         -1    1    6    6    0  502 -0.27683973073E+03  0.26315524348E+03  0.67344093054E+02  0.38784809597E+03  0.00000000000E+00 0.  1.
<mgrwt>
<rscale>  0 0.22390463E+04</rscale>
<asrwt>0</asrwt>
<pdfrwt beam="1">  1        2 0.36187117E+00 0.22390463E+04</pdfrwt>
<pdfrwt beam="2">  1       -2 0.81975760E-01 0.22390463E+04</pdfrwt>
<totfact> 0.50464276E+00</totfact>
</mgrwt>
</event>
<event>
12    1  0.1114484E-007  0.1059444E+04  0.7818608E-02  0.9245648E-01
          2   -1    0    0  501    0  0.00000000000E+00  0.00000000000E+00  0.10026656450E+04  0.10026656450E+04  0.00000000000E+00 0. -1.
         -2   -1    0    0    0  501 -0.00000000000E+00 -0.00000000000E+00 -0.27985938038E+03  0.27985938038E+03  0.00000000000E+00 0.  1.
         23    2    1    2    0    0 -0.35263369170E+02 -0.38371057378E+02 -0.45582111472E+02  0.11425501501E+03  0.90888042775E+02 0.  0.
        254    2    1    2    0    0  0.35263369170E+02  0.38371057378E+02  0.76838837606E+03  0.11682700103E+04  0.87847497252E+03 0.  0.
        -24    2    4    4    0    0  0.37800940957E+03 -0.21689843483E+03  0.42885343552E+03  0.61667183576E+03  0.80204981785E+02 0.  0.
         24    2    4    4    0    0 -0.34274604040E+03  0.25526949221E+03  0.33953494054E+03  0.55159817458E+03  0.79619146508E+02 0.  0.
         13    1    3    3    0    0  0.29896942600E+02 -0.22494960866E+02 -0.20415503239E+02  0.42622097716E+02  0.00000000000E+00 0. -1.
        -13    1    3    3    0    0 -0.65160311769E+02 -0.15876096512E+02 -0.25166608232E+02  0.71632917295E+02  0.00000000000E+00 0.  1.
          4    1    6    6  502    0 -0.27265017585E+02  0.35089368784E+02  0.11216114685E+02  0.45830625287E+02  0.00000000000E+00 0. -1.
          3    1    5    5  503    0  0.15121102041E+03 -0.11522684372E+03  0.14308683639E+03  0.23794083499E+03  0.00000000000E+00 0. -1.
         -4    1    5    5    0  503  0.22679838917E+03 -0.10167159111E+03  0.28576659913E+03  0.37873100077E+03  0.00000000000E+00 0.  1.
         -3    1    6    6    0  502 -0.31548102282E+03  0.22018012343E+03  0.32831882585E+03  0.50576754929E+03  0.00000000000E+00 0.  1.
<mgrwt>
<rscale>  0 0.10594440E+04</rscale>
<asrwt>0</asrwt>
<pdfrwt beam="1">  1        2 0.15425625E+00 0.10594440E+04</pdfrwt>
<pdfrwt beam="2">  1       -2 0.43055290E-01 0.10594440E+04</pdfrwt>
<totfact> 0.12762648E+02</totfact>
</mgrwt>
</event>
<event>
12    1  0.1114484E-007  0.1690315E+04  0.7818608E-02  0.8766907E-01
         -2   -1    0    0    0  501 -0.00000000000E+00  0.00000000000E+00  0.27021803914E+04  0.27021803914E+04  0.00000000000E+00 0.  1.
          2   -1    0    0  501    0  0.00000000000E+00 -0.00000000000E+00 -0.26433892055E+03  0.26433892055E+03  0.00000000000E+00 0. -1.
         23    2    1    2    0    0 -0.36437914127E+03  0.32612861308E+03  0.26084960133E+03  0.56249742516E+03  0.96066684847E+02 0.  0.
        254    2    1    2    0    0  0.36437914127E+03 -0.32612861308E+03  0.21769918695E+04  0.24040218868E+04  0.89492770730E+03 0.  0.
        -24    2    4    4    0    0 -0.10361449070E+03  0.21826371062E+03  0.30696543115E+03  0.39930279721E+03  0.82703916961E+02 0.  0.
         24    2    4    4    0    0  0.46799363197E+03 -0.54439232370E+03  0.18700264383E+04  0.20047190896E+04  0.80738505191E+02 0.  0.
         13    1    3    3    0    0 -0.14792634111E+03  0.90343735699E+02  0.13020420412E+03  0.21678867070E+03  0.00000000000E+00 0.  1.
        -13    1    3    3    0    0 -0.21645280016E+03  0.23578487738E+03  0.13064539721E+03  0.34570875446E+03  0.00000000000E+00 0. -1.
          2    1    6    6  502    0  0.11923714551E+03 -0.10400256827E+03  0.34615117892E+03  0.38059777948E+03  0.00000000000E+00 0. -1.
          1    1    5    5  503    0 -0.67642308149E+01  0.20894115076E+02  0.28956254496E+00  0.21963667950E+02  0.00000000000E+00 0. -1.
         -2    1    5    5    0  503 -0.96850259885E+02  0.19736959555E+03  0.30667586861E+03  0.37733912926E+03  0.00000000000E+00 0.  1.
         -1    1    6    6    0  502  0.34875648646E+03 -0.44038975543E+03  0.15238752594E+04  0.16241213101E+04  0.00000000000E+00 0.  1.
<mgrwt>
<rscale>  0 0.16903153E+04</rscale>
<asrwt>0</asrwt>
<pdfrwt beam="1">  1        2 0.40667528E-01 0.16903153E+04</pdfrwt>
<pdfrwt beam="2">  1       -2 0.41572004E+00 0.16903153E+04</pdfrwt>
<totfact> 0.70898715E-01</totfact>
</mgrwt>
</event>
<event>
12    1  0.1114484E-007  0.1382328E+04  0.7818608E-02  0.8966711E-01
         -1   -1    0    0    0  501 -0.00000000000E+00  0.00000000000E+00  0.44499371052E+03  0.44499371052E+03  0.00000000000E+00 0.  1.
          1   -1    0    0  501    0  0.00000000000E+00 -0.00000000000E+00 -0.10735159513E+04  0.10735159513E+04  0.00000000000E+00 0. -1.
         23    2    1    2    0    0 -0.24784536138E+03  0.19783056033E+03  0.74185554497E+02  0.33818418468E+03  0.91108685187E+02 0.  0.
        254    2    1    2    0    0  0.24784536138E+03 -0.19783056033E+03 -0.70270779529E+03  0.11803254772E+04  0.89375932594E+03 0.  0.
        -24    2    4    4    0    0 -0.31946895999E+03 -0.12175056433E+02 -0.15221182638E+03  0.36349629868E+03  0.82173418248E+02 0.  0.
         24    2    4    4    0    0  0.56731432136E+03 -0.18565550390E+03 -0.55049596891E+03  0.81682917848E+03  0.88603553425E+02 0.  0.
         13    1    3    3    0    0 -0.13986661506E+03  0.14564098886E+03  0.10034257896E+02  0.20217481044E+03  0.00000000000E+00 0.  1.
        -13    1    3    3    0    0 -0.10797874632E+03  0.52189571472E+02  0.64151296601E+02  0.13600937424E+03  0.00000000000E+00 0. -1.
          4    1    6    6  502    0  0.16455772863E+03 -0.65164318366E+02 -0.21824355169E+03  0.28099089361E+03  0.00000000000E+00 0. -1.
          3    1    5    5  503    0 -0.38854050911E+02  0.59009709813E+01 -0.51558050556E+02  0.64828167550E+02  0.00000000000E+00 0. -1.
         -4    1    5    5    0  503 -0.28061490907E+03 -0.18076027414E+02 -0.10065377583E+03  0.29866813113E+03  0.00000000000E+00 0.  1.
         -3    1    6    6    0  502  0.40275659273E+03 -0.12049118554E+03 -0.33225241722E+03  0.53583828487E+03  0.00000000000E+00 0.  1.
<mgrwt>
<rscale>  0 0.13823282E+04</rscale>
<asrwt>0</asrwt>
<pdfrwt beam="1">  1        1 0.16515630E+00 0.13823282E+04</pdfrwt>
<pdfrwt beam="2">  1       -1 0.68460572E-01 0.13823282E+04</pdfrwt>
<totfact> 0.28001056E+01</totfact>
</mgrwt>
</event>
<event>
12    1  0.1114484E-007  0.3985356E+04  0.7818608E-02  0.8007507E-01
          2   -1    0    0  501    0  0.00000000000E+00  0.00000000000E+00  0.16924331403E+04  0.16924331403E+04  0.00000000000E+00 0.  1.
         -2   -1    0    0    0  501 -0.00000000000E+00 -0.00000000000E+00 -0.23461876245E+04  0.23461876245E+04  0.00000000000E+00 0. -1.
         23    2    1    2    0    0  0.22498300838E+03  0.17710740446E+04 -0.94640706353E+03  0.20227136668E+04  0.91452842033E+02 0.  0.
        254    2    1    2    0    0 -0.22498300838E+03 -0.17710740446E+04  0.29265257933E+03  0.20159070980E+04  0.88933417222E+03 0.  0.
        -24    2    4    4    0    0 -0.47794754129E+03 -0.66565423150E+03  0.30785325610E+03  0.87899234589E+03  0.79526779813E+02 0.  0.
         24    2    4    4    0    0  0.25296453291E+03 -0.11054198131E+04 -0.15200676777E+02  0.11369147521E+04  0.80000467269E+02 0.  0.
         11    1    3    3    0    0  0.16779397651E+03  0.14904978145E+04 -0.76491967445E+03  0.16836985069E+04  0.00000000000E+00 0. -1.
        -11    1    3    3    0    0  0.57189031871E+02  0.28057623008E+03 -0.18148738909E+03  0.33901515991E+03  0.00000000000E+00 0.  1.
          4    1    6    6  502    0  0.17949935263E+03 -0.61805035195E+03  0.53565364879E+01  0.64361086661E+03  0.00000000000E+00 0. -1.
          3    1    5    5  503    0 -0.42780213861E+03 -0.55065607815E+03  0.27238838959E+03  0.74862021145E+03  0.00000000000E+00 0. -1.
         -4    1    5    5    0  503 -0.50145402680E+02 -0.11499815334E+03  0.35464866518E+02  0.13037213444E+03  0.00000000000E+00 0.  1.
         -3    1    6    6    0  502  0.73465180286E+02 -0.48736946117E+03 -0.20557213265E+02  0.49330388547E+03  0.00000000000E+00 0.  1.
<mgrwt>
<rscale>  0 0.39853560E+04</rscale>
<asrwt>0</asrwt>
<pdfrwt beam="1">  1        2 0.26037433E+00 0.39853560E+04</pdfrwt>
<pdfrwt beam="2">  1       -2 0.36095194E+00 0.39853560E+04</pdfrwt>
<totfact> 0.10368465E-01</totfact>
</mgrwt>
</event>
<event>
12    1  0.1114484E-007  0.2172262E+04  0.7818608E-02  0.8530063E-01
          1   -1    0    0  501    0  0.00000000000E+00  0.00000000000E+00  0.22303035386E+04  0.22303035386E+04  0.00000000000E+00 0. -1.
         -1   -1    0    0    0  501 -0.00000000000E+00 -0.00000000000E+00 -0.52893266706E+03  0.52893266706E+03  0.00000000000E+00 0.  1.
         23    2    1    2    0    0 -0.66166837682E+02  0.12603599843E+03  0.18120127004E+04  0.18198588726E+04  0.90736798463E+02 0.  0.
        254    2    1    2    0    0  0.66166837682E+02 -0.12603599843E+03 -0.11064182883E+03  0.93937733306E+03  0.92191379004E+03 0.  0.
        -24    2    4    4    0    0  0.40143183600E+03 -0.13461979960E+03  0.20014724280E+03  0.47514573983E+03  0.80215621166E+02 0.  0.
         24    2    4    4    0    0 -0.33526499831E+03  0.85838011702E+01 -0.31078907163E+03  0.46423159323E+03  0.80279663510E+02 0.  0.
         13    1    3    3    0    0  0.12939647404E+02  0.75514969353E+01  0.52726015859E+02  0.54813249578E+02  0.00000000000E+00 0.  1.
        -13    1    3    3    0    0 -0.79106485086E+02  0.11848450149E+03  0.17592866845E+04  0.17650456230E+04  0.00000000000E+00 0. -1.
          2    1    6    6  502    0 -0.16561221564E+03 -0.35886464477E+02 -0.15101485513E+03  0.22698178512E+03  0.00000000000E+00 0. -1.
          3    1    5    5  503    0  0.44983703624E+02 -0.14567917171E+02  0.53619232339E+02  0.71489718694E+02  0.00000000000E+00 0. -1.
         -4    1    5    5    0  503  0.35644813237E+03 -0.12005188243E+03  0.14652801046E+03  0.40365602113E+03  0.00000000000E+00 0.  1.
         -1    1    6    6    0  502 -0.16965278267E+03  0.44470265647E+02 -0.15977421649E+03  0.23724980812E+03  0.00000000000E+00 0.  1.
<mgrwt>
<rscale>  0 0.21722619E+04</rscale>
<asrwt>0</asrwt>
<pdfrwt beam="1">  1        1 0.34312362E+00 0.21722619E+04</pdfrwt>
<pdfrwt beam="2">  1       -1 0.81374257E-01 0.21722619E+04</pdfrwt>
<totfact> 0.28550646E+00</totfact>
</mgrwt>
</event>
<event>
12    1  0.1114484E-007  0.1279601E+04  0.7818608E-02  0.9045900E-01
          2   -1    0    0  501    0  0.00000000000E+00  0.00000000000E+00  0.65731448453E+03  0.65731448453E+03  0.00000000000E+00 0. -1.
         -2   -1    0    0    0  501 -0.00000000000E+00 -0.00000000000E+00 -0.62275309029E+03  0.62275309029E+03  0.00000000000E+00 0.  1.
         23    2    1    2    0    0 -0.20880412533E+03  0.44506246583E+02 -0.22178605021E+03  0.32111182944E+03  0.91344327682E+02 0.  0.
        254    2    1    2    0    0  0.20880412533E+03 -0.44506246583E+02  0.25634744444E+03  0.95895574538E+03  0.89905624995E+03 0.  0.
        -24    2    4    4    0    0  0.55908415326E+03 -0.24188392388E+02  0.14126417975E+03  0.58257319554E+03  0.79219889752E+02 0.  0.
         24    2    4    4    0    0 -0.35028002793E+03 -0.20317854195E+02  0.11508326470E+03  0.37638254983E+03  0.72874912263E+02 0.  0.
         13    1    3    3    0    0 -0.19927413575E+03  0.42864517571E+02 -0.23077868453E+03  0.30790639695E+03  0.00000000000E+00 0.  1.
        -13    1    3    3    0    0 -0.95299895793E+01  0.16417290120E+01  0.89926343170E+01  0.13205432499E+02  0.00000000000E+00 0. -1.
          2    1    6    6  502    0 -0.34138190643E+03 -0.31758058362E+02  0.10447057493E+03  0.35841914198E+03  0.00000000000E+00 0. -1.
          3    1    5    5  503    0  0.46276414594E+03 -0.44629998966E+02  0.98546001493E+02  0.47524078737E+03  0.00000000000E+00 0. -1.
         -4    1    5    5    0  503  0.96320007324E+02  0.20441606578E+02  0.42718178254E+02  0.10733240817E+03  0.00000000000E+00 0.  1.
         -1    1    6    6    0  502 -0.88981214965E+01  0.11440204167E+02  0.10612689764E+02  0.17963407849E+02  0.00000000000E+00 0.  1.
<mgrwt>
<rscale>  0 0.12796009E+04</rscale>
<asrwt>0</asrwt>
<pdfrwt beam="1">  1        2 0.10112530E+00 0.12796009E+04</pdfrwt>
<pdfrwt beam="2">  1       -2 0.95808168E-01 0.12796009E+04</pdfrwt>
<totfact> 0.39780294E+01</totfact>
</mgrwt>
</event>
<event>
12    1  0.1114484E-007  0.1841126E+04  0.7818608E-02  0.8684730E-01
         -2   -1    0    0    0  501 -0.00000000000E+00  0.00000000000E+00  0.19815244368E+04  0.19815244368E+04  0.00000000000E+00 0.  1.
          2   -1    0    0  501    0  0.00000000000E+00 -0.00000000000E+00 -0.42766889790E+03  0.42766889790E+03  0.00000000000E+00 0. -1.
         23    2    1    2    0    0  0.63958223982E+03 -0.13237289138E+03  0.28284096848E+03  0.71746824564E+03  0.90408219670E+02 0.  0.
        254    2    1    2    0    0 -0.63958223982E+03  0.13237289138E+03  0.12710145705E+04  0.16917250891E+04  0.90546546867E+03 0.  0.
        -24    2    4    4    0    0  0.17259535091E+03  0.17328483478E+03  0.52779854872E+03  0.58714537965E+03  0.79696923944E+02 0.  0.
         24    2    4    4    0    0 -0.81217759073E+03 -0.40911943400E+02  0.74321602173E+03  0.11045797095E+04  0.80125236946E+02 0.  0.
         11    1    3    3    0    0  0.16736715012E+03 -0.10898637546E+02  0.38505194603E+02  0.17208484318E+03  0.00000000000E+00 0. -1.
        -11    1    3    3    0    0  0.47221508969E+03 -0.12147425383E+03  0.24433577388E+03  0.54538340246E+03  0.00000000000E+00 0.  1.
          4    1    6    6  502    0 -0.22969594691E+03  0.20351691399E+02  0.23303771142E+03  0.32784294153E+03  0.00000000000E+00 0. -1.
          1    1    5    5  503    0  0.38643976661E+02  0.45077599375E+01  0.11647338115E+03  0.12279953317E+03  0.00000000000E+00 0. -1.
         -2    1    5    5    0  503  0.13395137425E+03  0.16877707484E+03  0.41132516758E+03  0.46434584648E+03  0.00000000000E+00 0.  1.
         -3    1    6    6    0  502 -0.58248164382E+03 -0.61263634799E+02  0.51017831031E+03  0.77673676793E+03  0.00000000000E+00 0.  1.
<mgrwt>
<rscale>  0 0.18411261E+04</rscale>
<asrwt>0</asrwt>
<pdfrwt beam="1">  1        2 0.65795216E-01 0.18411261E+04</pdfrwt>
<pdfrwt beam="2">  1       -2 0.30484991E+00 0.18411261E+04</pdfrwt>
<totfact> 0.20621660E+00</totfact>
</mgrwt>
</event>
<event>
12    1  0.1114484E-007  0.1723911E+04  0.7818608E-02  0.8747843E-01
          1   -1    0    0  501    0  0.00000000000E+00  0.00000000000E+00  0.98781233864E+03  0.98781233864E+03  0.00000000000E+00 0. -1.
         -1   -1    0    0    0  501 -0.00000000000E+00 -0.00000000000E+00 -0.75213416294E+03  0.75213416294E+03  0.00000000000E+00 0.  1.
         23    2    1    2    0    0 -0.48475804437E+03 -0.48413868870E+02  0.48383121883E+03  0.69287194658E+03  0.92976458117E+02 0.  0.
        254    2    1    2    0    0  0.48475804437E+03  0.48413868870E+02 -0.24815304313E+03  0.10470745550E+04  0.89300107874E+03 0.  0.
        -24    2    4    4    0    0  0.64211943595E+03  0.29641901461E+03 -0.19785575507E+03  0.73864180171E+03  0.79140439489E+02 0.  0.
         24    2    4    4    0    0 -0.15736139158E+03 -0.24800514574E+03 -0.50297288061E+02  0.30843275329E+03  0.79572521895E+02 0.  0.
         11    1    3    3    0    0 -0.44862914990E+03 -0.64735557312E+02  0.42129458355E+03  0.61882786997E+03  0.00000000000E+00 0. -1.
        -11    1    3    3    0    0 -0.36128894467E+02  0.16321688443E+02  0.62536635280E+02  0.74044076611E+02  0.00000000000E+00 0.  1.
          4    1    6    6  502    0 -0.49711658428E+02 -0.61962150770E+02  0.20657798599E+02  0.82081068186E+02  0.00000000000E+00 0. -1.
          1    1    5    5  503    0 -0.79066354534E+00  0.28945492399E+01  0.26508926177E+01  0.40038476263E+01  0.00000000000E+00 0. -1.
         -2    1    5    5    0  503  0.64291009950E+03  0.29352446537E+03 -0.20050664769E+03  0.73463795408E+03  0.00000000000E+00 0.  1.
         -3    1    6    6    0  502 -0.10764973316E+03 -0.18604299497E+03 -0.70955086660E+02  0.22635168511E+03  0.00000000000E+00 0.  1.
<mgrwt>
<rscale>  0 0.17239111E+04</rscale>
<asrwt>0</asrwt>
<pdfrwt beam="1">  1        1 0.15197113E+00 0.17239111E+04</pdfrwt>
<pdfrwt beam="2">  1       -1 0.11571295E+00 0.17239111E+04</pdfrwt>
<totfact> 0.99364665E+00</totfact>
</mgrwt>
</event>
<event>
12    1  0.1114484E-007  0.1970148E+04  0.7818608E-02  0.8620706E-01
          1   -1    0    0  501    0  0.00000000000E+00  0.00000000000E+00  0.89568739997E+03  0.89568739997E+03  0.00000000000E+00 0. -1.
         -1   -1    0    0    0  501 -0.00000000000E+00 -0.00000000000E+00 -0.10833808540E+04  0.10833808540E+04  0.00000000000E+00 0.  1.
         23    2    1    2    0    0 -0.42556819773E+03  0.30940374443E+03  0.50359658766E+03  0.73402373288E+03  0.91336462246E+02 0.  0.
        254    2    1    2    0    0  0.42556819773E+03 -0.30940374443E+03 -0.69129004169E+03  0.12450445211E+04  0.89186039812E+03 0.  0.
        -24    2    4    4    0    0  0.38953355821E+03 -0.10980994180E+03 -0.87034538206E+03  0.96320051038E+03  0.80371156750E+02 0.  0.
         24    2    4    4    0    0  0.36034639519E+02 -0.19959380263E+03  0.17905534038E+03  0.28184401069E+03  0.78987658224E+02 0.  0.
         13    1    3    3    0    0 -0.36248141008E+03  0.25056290953E+03  0.37204071312E+03  0.57670515560E+03  0.00000000000E+00 0. -1.
        -13    1    3    3    0    0 -0.63086787651E+02  0.58840834907E+02  0.13155587454E+03  0.15731857727E+03  0.00000000000E+00 0.  1.
          2    1    6    6  502    0 -0.13719597378E+02 -0.47159169295E+02  0.12571754841E+02  0.50697767412E+02  0.00000000000E+00 0. -1.
          1    1    5    5  503    0  0.16060306775E+03 -0.47185385075E+02 -0.45515863989E+03  0.48496308457E+03  0.00000000000E+00 0. -1.
         -2    1    5    5    0  503  0.22893049046E+03 -0.62624556729E+02 -0.41518674217E+03  0.47823742581E+03  0.00000000000E+00 0.  1.
         -1    1    6    6    0  502  0.49754236897E+02 -0.15243463334E+03  0.16648358554E+03  0.23114624328E+03  0.00000000000E+00 0.  1.
<mgrwt>
<rscale>  0 0.19701478E+04</rscale>
<asrwt>0</asrwt>
<pdfrwt beam="1">  1        1 0.13779806E+00 0.19701478E+04</pdfrwt>
<pdfrwt beam="2">  1       -1 0.16667398E+00 0.19701478E+04</pdfrwt>
<totfact> 0.44430684E+00</totfact>
</mgrwt>
</event>
<event>
12    1  0.1114484E-007  0.2661142E+04  0.7818608E-02  0.8347724E-01
         -1   -1    0    0    0  501 -0.00000000000E+00  0.00000000000E+00  0.11837789665E+04  0.11837789665E+04  0.00000000000E+00 0.  1.
          1   -1    0    0  501    0  0.00000000000E+00 -0.00000000000E+00 -0.14955658118E+04  0.14955658118E+04  0.00000000000E+00 0. -1.
         23    2    1    2    0    0  0.60438570197E+03 -0.83819061903E+03  0.40811402304E+03  0.11147090544E+04  0.90408128239E+02 0.  0.
        254    2    1    2    0    0 -0.60438570197E+03  0.83819061903E+03 -0.71990086837E+03  0.15646357238E+04  0.92842990979E+03 0.  0.
        -24    2    4    4    0    0 -0.52431610678E+03  0.95404681991E+03 -0.82719637637E+03  0.13696573348E+04  0.81207483047E+02 0.  0.
         24    2    4    4    0    0 -0.80069595192E+02 -0.11585620088E+03  0.10729550800E+03  0.19497838901E+03  0.81672803236E+02 0.  0.
         11    1    3    3    0    0  0.51031988645E+03 -0.75704627561E+03  0.35423863383E+03  0.97930100562E+03  0.00000000000E+00 0.  1.
        -11    1    3    3    0    0  0.94065815529E+02 -0.81144343425E+02  0.53875389209E+02  0.13540804881E+03  0.00000000000E+00 0. -1.
          4    1    6    6  502    0 -0.70045036064E+02 -0.30451331274E+02  0.57574255048E+02  0.95647192838E+02  0.00000000000E+00 0. -1.
          3    1    5    5  503    0 -0.49527951895E+03  0.92854497352E+03 -0.78881389289E+03  0.13151900727E+04  0.00000000000E+00 0. -1.
         -4    1    5    5    0  503 -0.29036587836E+02  0.25501846389E+02 -0.38382483477E+02  0.54467262096E+02  0.00000000000E+00 0.  1.
         -3    1    6    6    0  502 -0.10024559128E+02 -0.85404869607E+02  0.49721252951E+02  0.99331196174E+02  0.00000000000E+00 0.  1.
<mgrwt>
<rscale>  0 0.26611421E+04</rscale>
<asrwt>0</asrwt>
<pdfrwt beam="1">  1        1 0.23008705E+00 0.26611421E+04</pdfrwt>
<pdfrwt beam="2">  1       -1 0.18211984E+00 0.26611421E+04</pdfrwt>
<totfact> 0.11599175E+00</totfact>
</mgrwt>
</event>
<event>
12    1  0.1114484E-007  0.1952617E+04  0.7818608E-02  0.8629100E-01
         -1   -1    0    0    0  501 -0.00000000000E+00  0.00000000000E+00  0.37319316201E+03  0.37319316201E+03  0.00000000000E+00 0.  1.
          1   -1    0    0  501    0  0.00000000000E+00 -0.00000000000E+00 -0.25541140890E+04  0.25541140890E+04  0.00000000000E+00 0. -1.
         23    2    1    2    0    0 -0.49360497203E+03 -0.57481834688E+03 -0.11526912020E+04  0.13824132633E+04  0.91145066030E+02 0.  0.
        254    2    1    2    0    0  0.49360497203E+03  0.57481834688E+03 -0.10282297251E+04  0.15448939878E+04  0.86912546024E+03 0.  0.
        -24    2    4    4    0    0 -0.75642328384E+02  0.72059769025E+02 -0.70331712866E+03  0.71539720168E+03  0.78891067676E+02 0.  0.
         24    2    4    4    0    0  0.56924730041E+03  0.50275857786E+03 -0.32491259640E+03  0.82949678609E+03  0.75419136806E+02 0.  0.
         11    1    3    3    0    0 -0.33698419980E+03 -0.40062372145E+03 -0.71748385149E+03  0.88816709816E+03  0.00000000000E+00 0. -1.
        -11    1    3    3    0    0 -0.15662077223E+03 -0.17419462543E+03 -0.43520735047E+03  0.49424616511E+03  0.00000000000E+00 0.  1.
          4    1    6    6  502    0  0.15919259196E+03  0.13872266901E+03 -0.54300072728E+02  0.21802467321E+03  0.00000000000E+00 0. -1.
          1    1    5    5  503    0  0.15046585784E+02  0.28637608620E+01 -0.12518655314E+03  0.12612007754E+03  0.00000000000E+00 0. -1.
         -2    1    5    5    0  503 -0.90688914169E+02  0.69196008163E+02 -0.57813057551E+03  0.58927712415E+03  0.00000000000E+00 0.  1.
         -3    1    6    6    0  502  0.41005470845E+03  0.36403590885E+03 -0.27061252368E+03  0.61147211288E+03  0.00000000000E+00 0.  1.
<mgrwt>
<rscale>  0 0.19526166E+04</rscale>
<asrwt>0</asrwt>
<pdfrwt beam="1">  1        1 0.39294064E+00 0.19526166E+04</pdfrwt>
<pdfrwt beam="2">  1       -1 0.57414331E-01 0.19526166E+04</pdfrwt>
<totfact> 0.35573434E+00</totfact>
</mgrwt>
</event>
<event>
12    1  0.1114484E-007  0.2249807E+04  0.7818608E-02  0.8497979E-01
         -2   -1    0    0    0  501 -0.00000000000E+00  0.00000000000E+00  0.83137646286E+03  0.83137646286E+03  0.00000000000E+00 0. -1.
          2   -1    0    0  501    0  0.00000000000E+00 -0.00000000000E+00 -0.15220632384E+04  0.15220632384E+04  0.00000000000E+00 0.  1.
         23    2    1    2    0    0  0.52525858484E+03 -0.69554717099E+03  0.10594660710E+03  0.88270686303E+03  0.90908055000E+02 0.  0.
        254    2    1    2    0    0 -0.52525858484E+03  0.69554717099E+03 -0.79663338264E+03  0.14707328382E+04  0.87678269090E+03 0.  0.
        -24    2    4    4    0    0 -0.17490886296E+03  0.49588321718E+03 -0.90105927774E+03  0.10463178176E+04  0.79874139001E+02 0.  0.
         24    2    4    4    0    0 -0.35034972188E+03  0.19966395381E+03  0.10442589510E+03  0.42441502058E+03  0.81318632895E+02 0.  0.
         13    1    3    3    0    0  0.76840157958E+02 -0.67555410924E+02 -0.82537129097E+01  0.10264632091E+03  0.00000000000E+00 0.  1.
        -13    1    3    3    0    0  0.44841842689E+03 -0.62799176007E+03  0.11420032001E+03  0.78006054212E+03  0.00000000000E+00 0. -1.
          4    1    6    6  502    0 -0.35471439703E+00  0.13684799519E+02 -0.24770144850E+01  0.13911691519E+02  0.00000000000E+00 0. -1.
          1    1    5    5  503    0 -0.34596465646E+02  0.33035218050E+02 -0.70371788403E+02  0.85090714358E+02  0.00000000000E+00 0. -1.
         -2    1    5    5    0  503 -0.14031239731E+03  0.46284799913E+03 -0.83068748934E+03  0.96122710328E+03  0.00000000000E+00 0.  1.
         -3    1    6    6    0  502 -0.34999500749E+03  0.18597915429E+03  0.10690290958E+03  0.41050332907E+03  0.00000000000E+00 0.  1.
<mgrwt>
<rscale>  0 0.22498067E+04</rscale>
<asrwt>0</asrwt>
<pdfrwt beam="1">  1        2 0.23416358E+00 0.22498067E+04</pdfrwt>
<pdfrwt beam="2">  1       -2 0.12790407E+00 0.22498067E+04</pdfrwt>
<totfact> 0.50822834E+00</totfact>
</mgrwt>
</event>
<event>
12    1  0.1114484E-007  0.2166869E+04  0.7818608E-02  0.8532346E-01
         -2   -1    0    0    0  501 -0.00000000000E+00  0.00000000000E+00  0.34149374830E+03  0.34149374830E+03  0.00000000000E+00 0.  1.
          2   -1    0    0  501    0  0.00000000000E+00 -0.00000000000E+00 -0.34373396311E+04  0.34373396311E+04  0.00000000000E+00 0. -1.
         23    2    1    2    0    0 -0.73845136134E+03 -0.26577829429E+03 -0.53729795649E+03  0.95549948446E+03  0.91332666535E+02 0.  0.
        254    2    1    2    0    0  0.73845136134E+03  0.26577829429E+03 -0.25585479263E+04  0.28233338949E+04  0.89949890290E+03 0.  0.
        -24    2    4    4    0    0  0.90030842448E+03  0.40456024278E+02 -0.19588018807E+04  0.21577126872E+04  0.81408128773E+02 0.  0.
         24    2    4    4    0    0 -0.16185706314E+03  0.22532227001E+03 -0.59974604557E+03  0.66562120774E+03  0.79927709634E+02 0.  0.
         11    1    3    3    0    0 -0.33771737888E+03 -0.12249932244E+03 -0.30126636396E+03  0.46885022561E+03  0.00000000000E+00 0. -1.
        -11    1    3    3    0    0 -0.40073398246E+03 -0.14327897185E+03 -0.23603159252E+03  0.48664925885E+03  0.00000000000E+00 0.  1.
          2    1    6    6  502    0 -0.10536900768E+03  0.12872322937E+03 -0.26718823930E+03  0.31474092962E+03  0.00000000000E+00 0. -1.
          1    1    5    5  503    0  0.80127749863E+03  0.11666867604E+02 -0.17550291608E+04  0.19293286659E+04  0.00000000000E+00 0. -1.
         -2    1    5    5    0  503  0.99030925847E+02  0.28789156674E+02 -0.20377271987E+03  0.22838402129E+03  0.00000000000E+00 0.  1.
         -1    1    6    6    0  502 -0.56488055455E+02  0.96599040646E+02 -0.33255780627E+03  0.35088027812E+03  0.00000000000E+00 0.  1.
<mgrwt>
<rscale>  0 0.21668687E+04</rscale>
<asrwt>0</asrwt>
<pdfrwt beam="1">  1        2 0.52882147E+00 0.21668687E+04</pdfrwt>
<pdfrwt beam="2">  1       -2 0.52537500E-01 0.21668687E+04</pdfrwt>
<totfact> 0.28257364E+00</totfact>
</mgrwt>
</event>
<event>
12    1  0.1114484E-007  0.2922826E+04  0.7818608E-02  0.8266118E-01
         -1   -1    0    0    0  501 -0.00000000000E+00  0.00000000000E+00  0.13810261878E+04  0.13810261878E+04  0.00000000000E+00 0. -1.
          1   -1    0    0  501    0  0.00000000000E+00 -0.00000000000E+00 -0.15464784440E+04  0.15464784440E+04  0.00000000000E+00 0.  1.
         23    2    1    2    0    0  0.47210113193E+03  0.10163837907E+04  0.62881720859E+03  0.12882861117E+04  0.91403145360E+02 0.  0.
        254    2    1    2    0    0 -0.47210113193E+03 -0.10163837907E+04 -0.79426946471E+03  0.16392185201E+04  0.89457134155E+03 0.  0.
        -24    2    4    4    0    0 -0.43220309739E+03 -0.11530108474E+03 -0.52685762350E+03  0.69583900635E+03  0.80741004341E+02 0.  0.
         24    2    4    4    0    0 -0.39898034539E+02 -0.90108270600E+03 -0.26741184122E+03  0.94337951372E+03  0.70099342936E+02 0.  0.
         13    1    3    3    0    0  0.46652298533E+03  0.10166678605E+04  0.62736621011E+03  0.12825153395E+04  0.00000000000E+00 0. -1.
        -13    1    3    3    0    0  0.55781466044E+01 -0.28406981038E+00  0.14509984780E+01  0.57707721997E+01  0.00000000000E+00 0.  1.
          4    1    6    6  502    0 -0.44808829219E+02 -0.88258472323E+03 -0.27004481898E+03  0.92406051161E+03  0.00000000000E+00 0. -1.
          1    1    5    5  503    0 -0.27308111068E+03 -0.88759646483E+02 -0.38988447044E+03  0.48421221396E+03  0.00000000000E+00 0. -1.
         -2    1    5    5    0  503 -0.15912198671E+03 -0.26541438257E+02 -0.13697315306E+03  0.21162679239E+03  0.00000000000E+00 0.  1.
         -1    1    6    6    0  502  0.49107946793E+01 -0.18497982771E+02  0.26329777600E+01  0.19319002119E+02  0.00000000000E+00 0.  1.
<mgrwt>
<rscale>  0 0.29228255E+04</rscale>
<asrwt>0</asrwt>
<pdfrwt beam="1">  1        1 0.23791976E+00 0.29228255E+04</pdfrwt>
<pdfrwt beam="2">  1       -1 0.21246557E+00 0.29228255E+04</pdfrwt>
<totfact> 0.64376886E-01</totfact>
</mgrwt>
</event>
<event>
12    1  0.1114484E-007  0.2183746E+04  0.7818608E-02  0.8525224E-01
          2   -1    0    0  501    0  0.00000000000E+00  0.00000000000E+00  0.17463747872E+04  0.17463747872E+04  0.00000000000E+00 0.  1.
         -2   -1    0    0    0  501 -0.00000000000E+00 -0.00000000000E+00 -0.68266358683E+03  0.68266358683E+03  0.00000000000E+00 0. -1.
         23    2    1    2    0    0  0.10657722436E+03  0.81304120112E+03  0.86369414534E+03  0.11943596743E+04  0.90181791024E+02 0.  0.
        254    2    1    2    0    0 -0.10657722436E+03 -0.81304120112E+03  0.20001705499E+03  0.12346786997E+04  0.90112705525E+03 0.  0.
        -24    2    4    4    0    0 -0.62418821300E+02 -0.21181018336E+03  0.50307022978E+03  0.55528938647E+03  0.80665876368E+02 0.  0.
         24    2    4    4    0    0 -0.44158403058E+02 -0.60123101776E+03 -0.30305317479E+03  0.67938931322E+03  0.79371977946E+02 0.  0.
         13    1    3    3    0    0 -0.41578769269E+01  0.49956535580E+00  0.87538790573E+01  0.97040148719E+01  0.00000000000E+00 0. -1.
        -13    1    3    3    0    0  0.11073510128E+03  0.81254163576E+03  0.85494026628E+03  0.11846556594E+04  0.00000000000E+00 0.  1.
          2    1    6    6  502    0  0.19132068329E+02 -0.16393282641E+03 -0.64058250863E+02  0.17704086284E+03  0.00000000000E+00 0. -1.
          3    1    5    5  503    0 -0.70995955324E+02 -0.11539673278E+03  0.33463434461E+03  0.36102212702E+03  0.00000000000E+00 0. -1.
         -4    1    5    5    0  503  0.85771340244E+01 -0.96413450571E+02  0.16843588517E+03  0.19426725945E+03  0.00000000000E+00 0.  1.
         -1    1    6    6    0  502 -0.63290471387E+02 -0.43729819136E+03 -0.23899492392E+03  0.50234845037E+03  0.00000000000E+00 0.  1.
<mgrwt>
<rscale>  0 0.21837458E+04</rscale>
<asrwt>0</asrwt>
<pdfrwt beam="1">  1        2 0.26867304E+00 0.21837458E+04</pdfrwt>
<pdfrwt beam="2">  1       -2 0.10502517E+00 0.21837458E+04</pdfrwt>
<totfact> 0.62142381E+00</totfact>
</mgrwt>
</event>
<event>
12    1  0.1114484E-007  0.2914632E+04  0.7818608E-02  0.8268537E-01
         -1   -1    0    0    0  501 -0.00000000000E+00  0.00000000000E+00  0.79490041225E+03  0.79490041225E+03  0.00000000000E+00 0.  1.
          1   -1    0    0  501    0  0.00000000000E+00 -0.00000000000E+00 -0.26717427364E+04  0.26717427364E+04  0.00000000000E+00 0. -1.
         23    2    1    2    0    0 -0.17394384319E+03  0.12224099190E+04 -0.26268868090E+03  0.12654687447E+04  0.88675419555E+02 0.  0.
        254    2    1    2    0    0  0.17394384319E+03 -0.12224099190E+04 -0.16141536433E+04  0.22011744040E+04  0.84565613711E+03 0.  0.
        -24    2    4    4    0    0  0.57511205471E+01 -0.26491303146E+02 -0.64647377074E+03  0.65167724234E+03  0.77588835592E+02 0.  0.
         24    2    4    4    0    0  0.16819272264E+03 -0.11959186158E+04 -0.96767987254E+03  0.15494971617E+04  0.77633695663E+02 0.  0.
         13    1    3    3    0    0  0.47248450464E+01  0.18385189480E+03 -0.31455935380E+02  0.18658327700E+03  0.00000000000E+00 0. -1.
        -13    1    3    3    0    0 -0.17866868823E+03  0.10385580242E+04 -0.23123274552E+03  0.10788854677E+04  0.00000000000E+00 0.  1.
          2    1    6    6  502    0  0.35569287174E+02 -0.31217694099E+03 -0.29495631355E+03  0.43095109187E+03  0.00000000000E+00 0. -1.
          1    1    5    5  503    0 -0.12769799682E+02  0.22978398381E+02 -0.30637566518E+03  0.30750141917E+03  0.00000000000E+00 0. -1.
         -2    1    5    5    0  503  0.18520920229E+02 -0.49469701527E+02 -0.34009810556E+03  0.34417582318E+03  0.00000000000E+00 0.  1.
         -1    1    6    6    0  502  0.13262343547E+03 -0.88374167484E+03 -0.67272355899E+03  0.11185460698E+04  0.00000000000E+00 0.  1.
<mgrwt>
<rscale>  0 0.29146316E+04</rscale>
<asrwt>0</asrwt>
<pdfrwt beam="1">  1        1 0.41103734E+00 0.29146316E+04</pdfrwt>
<pdfrwt beam="2">  1       -1 0.12229237E+00 0.29146316E+04</pdfrwt>
<totfact> 0.52020218E-01</totfact>
</mgrwt>
</event>
<event>
12    1  0.1114484E-007  0.1397424E+04  0.7818608E-02  0.8955685E-01
          1   -1    0    0  501    0  0.00000000000E+00  0.00000000000E+00  0.20227795815E+04  0.20227795815E+04  0.00000000000E+00 0. -1.
         -1   -1    0    0    0  501 -0.00000000000E+00 -0.00000000000E+00 -0.24135035790E+03  0.24135035790E+03  0.00000000000E+00 0.  1.
         23    2    1    2    0    0  0.36474367581E+03  0.52417932414E+02  0.25601357472E+03  0.45766865090E+03  0.90177906924E+02 0.  0.
        254    2    1    2    0    0 -0.36474367581E+03 -0.52417932414E+02  0.15254156489E+04  0.18064612885E+04  0.89477589169E+03 0.  0.
        -24    2    4    4    0    0 -0.94434631486E+02  0.26942525721E+02  0.15077819444E+04  0.15130670540E+04  0.79509236780E+02 0.  0.
         24    2    4    4    0    0 -0.27030904432E+03 -0.79360458134E+02  0.17633704478E+02  0.29339423450E+03  0.80026042926E+02 0.  0.
         13    1    3    3    0    0  0.35146396146E+03  0.47260743464E+02  0.26328139356E+03  0.44167588374E+03  0.00000000000E+00 0.  1.
        -13    1    3    3    0    0  0.13279714347E+02  0.51571889494E+01 -0.72678188386E+01  0.15992767167E+02  0.00000000000E+00 0. -1.
          4    1    6    6  502    0 -0.15555103230E+03 -0.80943280653E+02  0.30224721825E+02  0.17793670824E+03  0.00000000000E+00 0. -1.
          3    1    5    5  503    0 -0.88959459363E+02 -0.90994371078E+01  0.11282746320E+04  0.11318128072E+04  0.00000000000E+00 0. -1.
         -4    1    5    5    0  503 -0.54751721234E+01  0.36041962829E+02  0.37950731239E+03  0.38125424686E+03  0.00000000000E+00 0.  1.
         -3    1    6    6    0  502 -0.11475801203E+03  0.15828225183E+01 -0.12591017347E+02  0.11545752626E+03  0.00000000000E+00 0.  1.
<mgrwt>
<rscale>  0 0.13974242E+04</rscale>
<asrwt>0</asrwt>
<pdfrwt beam="1">  1        1 0.31119685E+00 0.13974242E+04</pdfrwt>
<pdfrwt beam="2">  1       -1 0.37130826E-01 0.13974242E+04</pdfrwt>
<totfact> 0.19582984E+01</totfact>
</mgrwt>
</event>
<event>
12    1  0.1114484E-007  0.1936507E+04  0.7818608E-02  0.8636895E-01
          2   -1    0    0  501    0  0.00000000000E+00  0.00000000000E+00  0.13626891444E+04  0.13626891444E+04  0.00000000000E+00 0. -1.
         -2   -1    0    0    0  501 -0.00000000000E+00 -0.00000000000E+00 -0.68798901890E+03  0.68798901890E+03  0.00000000000E+00 0.  1.
         23    2    1    2    0    0 -0.71009934114E+03 -0.24908356156E+03  0.26190082053E+03  0.80160764166E+03  0.87744381281E+02 0.  0.
        254    2    1    2    0    0  0.71009934114E+03  0.24908356156E+03  0.41279930492E+03  0.12490705216E+04  0.90746361184E+03 0.  0.
        -24    2    4    4    0    0  0.35761702775E+03 -0.20763580912E+03 -0.14207290397E+03  0.44459723976E+03  0.80494892996E+02 0.  0.
         24    2    4    4    0    0  0.35248231339E+03  0.45671937068E+03  0.55487220890E+03  0.80447328182E+03  0.80359990960E+02 0.  0.
         11    1    3    3    0    0 -0.44225989352E+03 -0.13021324029E+03  0.12204489395E+03  0.47691116312E+03  0.00000000000E+00 0.  1.
        -11    1    3    3    0    0 -0.26783944762E+03 -0.11887032127E+03  0.13985592658E+03  0.32469647855E+03  0.00000000000E+00 0. -1.
          4    1    6    6  502    0  0.26946747036E+03  0.32639623204E+03  0.44971161227E+03  0.61756599007E+03  0.00000000000E+00 0. -1.
          3    1    5    5  503    0  0.21309802643E+03 -0.15614477673E+03 -0.11786128771E+03  0.28928056158E+03  0.00000000000E+00 0. -1.
         -4    1    5    5    0  503  0.14451900133E+03 -0.51491032383E+02 -0.24211616260E+02  0.15531667818E+03  0.00000000000E+00 0.  1.
         -3    1    6    6    0  502  0.83014843038E+02  0.13032313864E+03  0.10516059662E+03  0.18690729175E+03  0.00000000000E+00 0.  1.
<mgrwt>
<rscale>  0 0.19365073E+04</rscale>
<asrwt>0</asrwt>
<pdfrwt beam="1">  1        2 0.20964448E+00 0.19365073E+04</pdfrwt>
<pdfrwt beam="2">  1       -2 0.10584446E+00 0.19365073E+04</pdfrwt>
<totfact> 0.10238684E+01</totfact>
</mgrwt>
</event>
<event>
12    1  0.1114484E-007  0.1223256E+04  0.7818608E-02  0.9092741E-01
          2   -1    0    0  501    0  0.00000000000E+00  0.00000000000E+00  0.27976279902E+03  0.27976279902E+03  0.00000000000E+00 0. -1.
         -2   -1    0    0    0  501 -0.00000000000E+00 -0.00000000000E+00 -0.13371631952E+04  0.13371631952E+04  0.00000000000E+00 0.  1.
         23    2    1    2    0    0 -0.92263891202E+02 -0.20361997404E+03 -0.48171159231E+03  0.53821925071E+03  0.87522478348E+02 0.  0.
        254    2    1    2    0    0  0.92263891202E+02  0.20361997404E+03 -0.57568880389E+03  0.10787067435E+04  0.88443028000E+03 0.  0.
        -24    2    4    4    0    0 -0.13500404452E+03 -0.18023509797E+03 -0.57761528169E+03  0.62533682913E+03  0.81828806902E+02 0.  0.
         24    2    4    4    0    0  0.22726793572E+03  0.38385507201E+03  0.19264778004E+01  0.45336991441E+03  0.80902021409E+02 0.  0.
         13    1    3    3    0    0 -0.10765365962E+03 -0.16867221616E+03 -0.42627669144E+03  0.47090492097E+03  0.00000000000E+00 0.  1.
        -13    1    3    3    0    0  0.15389768415E+02 -0.34947757877E+02 -0.55434900875E+02  0.67314329734E+02  0.00000000000E+00 0. -1.
          4    1    6    6  502    0  0.24946992810E+02  0.64703784625E+02 -0.26930961026E+02  0.74392263420E+02  0.00000000000E+00 0. -1.
          3    1    5    5  503    0 -0.59966664892E+02 -0.96315611094E+02 -0.18610230754E+03  0.21796047052E+03  0.00000000000E+00 0. -1.
         -4    1    5    5    0  503 -0.75037379625E+02 -0.83919486876E+02 -0.39151297415E+03  0.40737635860E+03  0.00000000000E+00 0.  1.
         -3    1    6    6    0  502  0.20232094291E+03  0.31915128738E+03  0.28857438827E+02  0.37897765099E+03  0.00000000000E+00 0.  1.
<mgrwt>
<rscale>  0 0.12232555E+04</rscale>
<asrwt>0</asrwt>
<pdfrwt beam="1">  1        2 0.43040431E-01 0.12232555E+04</pdfrwt>
<pdfrwt beam="2">  1       -2 0.20571741E+00 0.12232555E+04</pdfrwt>
<totfact> 0.14265853E+01</totfact>
</mgrwt>
</event>
<event>
12    1  0.1114484E-007  0.2441622E+04  0.7818608E-02  0.8424083E-01
         -1   -1    0    0    0  501 -0.00000000000E+00  0.00000000000E+00  0.13601519179E+04  0.13601519179E+04  0.00000000000E+00 0.  1.
          1   -1    0    0  501    0  0.00000000000E+00 -0.00000000000E+00 -0.10957451983E+04  0.10957451983E+04  0.00000000000E+00 0. -1.
         23    2    1    2    0    0 -0.24080947408E+02  0.70577657837E+03 -0.66481384199E+03  0.97423231709E+03  0.91927648527E+02 0.  0.
        254    2    1    2    0    0  0.24080947408E+02 -0.70577657837E+03  0.92922056152E+03  0.14816647991E+04  0.91278653278E+03 0.  0.
        -24    2    4    4    0    0  0.20628543577E+03  0.47490121814E+02  0.58875132755E+03  0.63059929284E+03  0.78856513706E+02 0.  0.
         24    2    4    4    0    0 -0.18220448836E+03 -0.75326670018E+03  0.34046923397E+03  0.85106550629E+03  0.88226977368E+02 0.  0.
         11    1    3    3    0    0  0.16439308019E+02  0.27906254779E+03 -0.21300833663E+03  0.35145228396E+03  0.00000000000E+00 0. -1.
        -11    1    3    3    0    0 -0.40520255427E+02  0.42671403057E+03 -0.45180550537E+03  0.62278003313E+03  0.00000000000E+00 0.  1.
          2    1    6    6  502    0 -0.14505166225E+03 -0.41401418579E+03  0.19495143814E+03  0.48005603213E+03  0.00000000000E+00 0. -1.
          3    1    5    5  503    0  0.57341215636E+02  0.14531098738E+02  0.80161636786E+02  0.99624574545E+02  0.00000000000E+00 0. -1.
         -4    1    5    5    0  503  0.14894422014E+03  0.32959023075E+02  0.50858969077E+03  0.53097471830E+03  0.00000000000E+00 0.  1.
         -1    1    6    6    0  502 -0.37152826111E+02 -0.33925251439E+03  0.14551779582E+03  0.37100947415E+03  0.00000000000E+00 0.  1.
<mgrwt>
<rscale>  0 0.24416224E+04</rscale>
<asrwt>0</asrwt>
<pdfrwt beam="1">  1        1 0.16857618E+00 0.24416224E+04</pdfrwt>
<pdfrwt beam="2">  1       -1 0.20925414E+00 0.24416224E+04</pdfrwt>
<totfact> 0.14833981E+00</totfact>
</mgrwt>
</event>
<event>
12    1  0.1114484E-007  0.1221099E+04  0.7818608E-02  0.9094587E-01
          1   -1    0    0  501    0  0.00000000000E+00  0.00000000000E+00  0.25474452199E+04  0.25474452199E+04  0.00000000000E+00 0. -1.
         -1   -1    0    0    0  501 -0.00000000000E+00 -0.00000000000E+00 -0.14633116580E+03  0.14633116580E+03  0.00000000000E+00 0.  1.
         23    2    1    2    0    0 -0.23041107774E+02  0.19583196743E+03  0.94179899617E+03  0.96820027670E+03  0.10744940438E+03 0.  0.
        254    2    1    2    0    0  0.23041107774E+02 -0.19583196743E+03  0.14593150580E+04  0.17255761090E+04  0.89951732475E+03 0.  0.
        -24    2    4    4    0    0 -0.31630415126E+03 -0.39598346753E+03  0.72062066634E+03  0.88454350658E+03  0.79194997520E+02 0.  0.
         24    2    4    4    0    0  0.33934525903E+03  0.20015150010E+03  0.73869439164E+03  0.84103260245E+03  0.80315666746E+02 0.  0.
         11    1    3    3    0    0 -0.33152093928E+02  0.54891694861E+01  0.12301663918E+03  0.12752366772E+03  0.00000000000E+00 0.  1.
        -11    1    3    3    0    0  0.10110986154E+02  0.19034279795E+03  0.81878235699E+03  0.84067660898E+03  0.00000000000E+00 0. -1.
          2    1    6    6  502    0  0.15850602684E+03  0.60663391582E+02  0.25763919467E+03  0.30851606482E+03  0.00000000000E+00 0. -1.
          1    1    5    5  503    0 -0.62481188636E+02 -0.71551039381E+02  0.19351036322E+03  0.21556834379E+03  0.00000000000E+00 0. -1.
         -2    1    5    5    0  503 -0.25382296262E+03 -0.32443242815E+03  0.52711030311E+03  0.66897516279E+03  0.00000000000E+00 0.  1.
         -1    1    6    6    0  502  0.18083923219E+03  0.13948810852E+03  0.48105519696E+03  0.53251653762E+03  0.00000000000E+00 0.  1.
<mgrwt>
<rscale>  0 0.12210989E+04</rscale>
<asrwt>0</asrwt>
<pdfrwt beam="1">  1        1 0.39191462E+00 0.12210989E+04</pdfrwt>
<pdfrwt beam="2">  1       -1 0.22512489E-01 0.12210989E+04</pdfrwt>
<totfact> 0.20921808E+01</totfact>
</mgrwt>
</event>
<event>
12    1  0.1114484E-007  0.2405315E+04  0.7818608E-02  0.8437516E-01
          2   -1    0    0  501    0  0.00000000000E+00  0.00000000000E+00  0.25795372252E+04  0.25795372252E+04  0.00000000000E+00 0.  1.
         -2   -1    0    0    0  501 -0.00000000000E+00 -0.00000000000E+00 -0.56071515051E+03  0.56071515051E+03  0.00000000000E+00 0. -1.
         23    2    1    2    0    0  0.28230810797E+03  0.52222763400E+03  0.19723582892E+04  0.20620731015E+04  0.97614984595E+02 0.  0.
        254    2    1    2    0    0 -0.28230810797E+03 -0.52222763400E+03  0.46463785458E+02  0.10781792742E+04  0.89882817849E+03 0.  0.
        -24    2    4    4    0    0  0.28386222977E+03 -0.50532609297E+02 -0.11373513373E+03  0.31988224939E+03  0.79105390064E+02 0.  0.
         24    2    4    4    0    0 -0.56617033775E+03 -0.47169502471E+03  0.16019891919E+03  0.75829702483E+03  0.79408037908E+02 0.  0.
         11    1    3    3    0    0  0.25820614934E+03  0.42903819855E+03  0.17385470113E+04  0.18092235632E+04  0.00000000000E+00 0.  1.
        -11    1    3    3    0    0  0.24101958631E+02  0.93189435453E+02  0.23381127796E+03  0.25284953825E+03  0.00000000000E+00 0. -1.
          4    1    6    6  502    0 -0.30394608785E+03 -0.22676713131E+03  0.11716883204E+03  0.39690690516E+03  0.00000000000E+00 0. -1.
          1    1    5    5  503    0  0.82049500934E+02 -0.46586525969E+02 -0.56900831940E+02  0.11018225665E+03  0.00000000000E+00 0. -1.
         -2    1    5    5    0  503  0.20181272884E+03 -0.39460833278E+01 -0.56834301787E+02  0.20969999274E+03  0.00000000000E+00 0.  1.
         -3    1    6    6    0  502 -0.26222424989E+03 -0.24492789340E+03  0.43030087149E+02  0.36139011967E+03  0.00000000000E+00 0.  1.
<mgrwt>
<rscale>  0 0.24053154E+04</rscale>
<asrwt>0</asrwt>
<pdfrwt beam="1">  1        2 0.39685188E+00 0.24053154E+04</pdfrwt>
<pdfrwt beam="2">  1       -2 0.86263870E-01 0.24053154E+04</pdfrwt>
<totfact> 0.32757556E+00</totfact>
</mgrwt>
</event>
<event>
12    1  0.1114484E-007  0.2703172E+04  0.7818608E-02  0.8333976E-01
         -2   -1    0    0    0  501 -0.00000000000E+00  0.00000000000E+00  0.12202987574E+04  0.12202987574E+04  0.00000000000E+00 0.  1.
          2   -1    0    0  501    0  0.00000000000E+00 -0.00000000000E+00 -0.14969981327E+04  0.14969981327E+04  0.00000000000E+00 0. -1.
         23    2    1    2    0    0 -0.93290484270E+03 -0.33464133798E+03 -0.79817981106E+03  0.12758088141E+04  0.91108994354E+02 0.  0.
        254    2    1    2    0    0  0.93290484270E+03  0.33464133798E+03  0.52148043579E+03  0.14414880760E+04  0.90755151792E+03 0.  0.
        -24    2    4    4    0    0  0.58028014204E+03  0.46468764032E+03 -0.54416080049E+02  0.74950635482E+03  0.78351897413E+02 0.  0.
         24    2    4    4    0    0  0.35262470066E+03 -0.13004630234E+03  0.57589651584E+03  0.69198172117E+03  0.76978472374E+02 0.  0.
         11    1    3    3    0    0 -0.30946012402E+03 -0.75400510899E+02 -0.22276823479E+03  0.38868559509E+03  0.00000000000E+00 0.  1.
        -11    1    3    3    0    0 -0.62344471868E+03 -0.25924082708E+03 -0.57541157627E+03  0.88712321906E+03  0.00000000000E+00 0. -1.
          4    1    6    6  502    0  0.16233639921E+03 -0.99951021814E+02  0.30121839877E+03  0.35647697966E+03  0.00000000000E+00 0. -1.
          3    1    5    5  503    0  0.28719109560E+03  0.18684318305E+03 -0.51688010827E+01  0.34265991442E+03  0.00000000000E+00 0. -1.
         -4    1    5    5    0  503  0.29308904644E+03  0.27784445727E+03 -0.49247278966E+02  0.40684644040E+03  0.00000000000E+00 0.  1.
         -1    1    6    6    0  502  0.19028830144E+03 -0.30095280525E+02  0.27467811706E+03  0.33550474150E+03  0.00000000000E+00 0.  1.
<mgrwt>
<rscale>  0 0.27031722E+04</rscale>
<asrwt>0</asrwt>
<pdfrwt beam="1">  1        2 0.23030740E+00 0.27031722E+04</pdfrwt>
<pdfrwt beam="2">  1       -2 0.18773827E+00 0.27031722E+04</pdfrwt>
<totfact> 0.17945328E+00</totfact>
</mgrwt>
</event>
<event>
12    1  0.1114484E-007  0.1421294E+04  0.7818608E-02  0.8938547E-01
          2   -1    0    0  501    0  0.00000000000E+00  0.00000000000E+00  0.16634026590E+04  0.16634026590E+04  0.00000000000E+00 0. -1.
         -2   -1    0    0    0  501 -0.00000000000E+00 -0.00000000000E+00 -0.30360615997E+03  0.30360615997E+03  0.00000000000E+00 0.  1.
         23    2    1    2    0    0 -0.20523934834E+03  0.12206120635E+03  0.86953952642E+03  0.90630915993E+03  0.90968000838E+02 0.  0.
        254    2    1    2    0    0  0.20523934834E+03 -0.12206120635E+03  0.49025697265E+03  0.10606996591E+04  0.90978554579E+03 0.  0.
        -24    2    4    4    0    0 -0.95002276052E+02  0.16949054309E+03 -0.17330714440E+03  0.27198843285E+03  0.78675692885E+02 0.  0.
         24    2    4    4    0    0  0.30024162439E+03 -0.29155174944E+03  0.66356411705E+03  0.78871122622E+03  0.81244109387E+02 0.  0.
         11    1    3    3    0    0 -0.15741655087E+03  0.69264188072E+02  0.72564980579E+03  0.74575139214E+03  0.00000000000E+00 0. -1.
        -11    1    3    3    0    0 -0.47822797468E+02  0.52797018275E+02  0.14388972063E+03  0.16055776779E+03  0.00000000000E+00 0.  1.
          4    1    6    6  502    0  0.24489895235E+03 -0.19183367686E+03  0.45864404785E+03  0.55419312434E+03  0.00000000000E+00 0. -1.
          3    1    5    5  503    0 -0.10542243005E+03  0.16764126706E+03 -0.16972930549E+03  0.26081702460E+03  0.00000000000E+00 0. -1.
         -4    1    5    5    0  503  0.10420153993E+02  0.18492760366E+01 -0.35778389098E+01  0.11171408254E+02  0.00000000000E+00 0.  1.
         -3    1    6    6    0  502  0.55342672049E+02 -0.99718072585E+02  0.20492006921E+03  0.23451810189E+03  0.00000000000E+00 0.  1.
<mgrwt>
<rscale>  0 0.14212942E+04</rscale>
<asrwt>0</asrwt>
<pdfrwt beam="1">  1        2 0.25590810E+00 0.14212942E+04</pdfrwt>
<pdfrwt beam="2">  1       -2 0.46708641E-01 0.14212942E+04</pdfrwt>
<totfact> 0.43395827E+01</totfact>
</mgrwt>
</event>
<event>
12    1  0.1114484E-007  0.1209729E+04  0.7818608E-02  0.9104383E-01
         -1   -1    0    0    0  501 -0.00000000000E+00  0.00000000000E+00  0.67622035007E+03  0.67622035007E+03  0.00000000000E+00 0.  1.
          1   -1    0    0  501    0  0.00000000000E+00 -0.00000000000E+00 -0.54103849538E+03  0.54103849538E+03  0.00000000000E+00 0. -1.
         23    2    1    2    0    0 -0.15346706112E+03  0.67506424165E+01  0.20558162469E+03  0.27191272434E+03  0.89861088486E+02 0.  0.
        254    2    1    2    0    0  0.15346706112E+03 -0.67506424165E+01 -0.70399770003E+02  0.94534612111E+03  0.93012120235E+03 0.  0.
        -24    2    4    4    0    0  0.74073083385E+02  0.76241574420E+02  0.41751320433E+03  0.43801819356E+03  0.79013054272E+02 0.  0.
         24    2    4    4    0    0  0.79393977738E+02 -0.82992216837E+02 -0.48791297433E+03  0.50732792755E+03  0.78303536303E+02 0.  0.
         11    1    3    3    0    0 -0.81645041029E+02  0.26561863911E+02  0.49857825453E+02  0.99283674881E+02  0.00000000000E+00 0. -1.
        -11    1    3    3    0    0 -0.71822020095E+02 -0.19811221494E+02  0.15572379924E+03  0.17262904946E+03  0.00000000000E+00 0.  1.
          4    1    6    6  502    0  0.34723713378E+02 -0.47549192230E+02 -0.38670186992E+03  0.39115853327E+03  0.00000000000E+00 0. -1.
          1    1    5    5  503    0  0.89547718285E+02  0.62862324552E+02  0.37811202609E+03  0.39362313190E+03  0.00000000000E+00 0. -1.
         -2    1    5    5    0  503 -0.15474634900E+02  0.13379249868E+02  0.39401178243E+02  0.44395061654E+02  0.00000000000E+00 0.  1.
         -3    1    6    6    0  502  0.44670264360E+02 -0.35443024607E+02 -0.10121110441E+03  0.11616939428E+03  0.00000000000E+00 0.  1.
<mgrwt>
<rscale>  0 0.12097293E+04</rscale>
<asrwt>0</asrwt>
<pdfrwt beam="1">  1        1 0.83236692E-01 0.12097293E+04</pdfrwt>
<pdfrwt beam="2">  1       -1 0.10403390E+00 0.12097293E+04</pdfrwt>
<totfact> 0.34175588E+01</totfact>
</mgrwt>
</event>
<event>
12    1  0.1114484E-007  0.2359934E+04  0.7818608E-02  0.8454658E-01
         -1   -1    0    0    0  501 -0.00000000000E+00  0.00000000000E+00  0.10043394940E+04  0.10043394940E+04  0.00000000000E+00 0.  1.
          1   -1    0    0  501    0  0.00000000000E+00 -0.00000000000E+00 -0.13863059921E+04  0.13863059921E+04  0.00000000000E+00 0. -1.
         23    2    1    2    0    0 -0.41508310595E+03  0.90245454470E+03 -0.34938309179E+03  0.10568992836E+04  0.90825991881E+02 0.  0.
        254    2    1    2    0    0  0.41508310595E+03 -0.90245454470E+03 -0.32583406277E+02  0.13337462024E+04  0.88943749869E+03 0.  0.
        -24    2    4    4    0    0  0.12785980015E+03 -0.98016150155E+03  0.10293079318E+03  0.99727217171E+03  0.83020109904E+02 0.  0.
         24    2    4    4    0    0  0.28722330580E+03  0.77706956859E+02 -0.13551419946E+03  0.33647403074E+03  0.79467456034E+02 0.  0.
         13    1    3    3    0    0 -0.13816634084E+03  0.40059866911E+03 -0.16570141353E+03  0.45500130756E+03  0.00000000000E+00 0.  1.
        -13    1    3    3    0    0 -0.27691676511E+03  0.50185587558E+03 -0.18368167826E+03  0.60189797606E+03  0.00000000000E+00 0. -1.
          4    1    6    6  502    0  0.70713987807E+02  0.23976590549E+02 -0.73876357857E+02  0.10503837973E+03  0.00000000000E+00 0. -1.
          1    1    5    5  503    0  0.24766883478E+02 -0.22503524020E+03  0.58588272030E+02  0.23385218295E+03  0.00000000000E+00 0. -1.
         -2    1    5    5    0  503  0.10309291667E+03 -0.75512626135E+03  0.44342521151E+02  0.76341998876E+03  0.00000000000E+00 0.  1.
         -3    1    6    6    0  502  0.21650931799E+03  0.53730366310E+02 -0.61637841601E+02  0.23143565101E+03  0.00000000000E+00 0.  1.
<mgrwt>
<rscale>  0 0.23599338E+04</rscale>
<asrwt>0</asrwt>
<pdfrwt beam="1">  1        1 0.21327784E+00 0.23599338E+04</pdfrwt>
<pdfrwt beam="2">  1       -1 0.15451377E+00 0.23599338E+04</pdfrwt>
<totfact> 0.22738374E+00</totfact>
</mgrwt>
</event>
<event>
12    1  0.1114484E-007  0.1460840E+04  0.7818608E-02  0.8910920E-01
          3   -1    0    0  501    0  0.00000000000E+00  0.00000000000E+00  0.23717701222E+03  0.23717701222E+03  0.00000000000E+00 0. -1.
         -3   -1    0    0    0  501 -0.00000000000E+00 -0.00000000000E+00 -0.22494300231E+04  0.22494300231E+04  0.00000000000E+00 0.  1.
         23    2    1    2    0    0 -0.38957658303E+03  0.52763532994E+01 -0.99399362586E+03  0.10720140795E+04  0.96918029644E+02 0.  0.
        254    2    1    2    0    0  0.38957658303E+03 -0.52763532994E+01 -0.10182593850E+04  0.14145929558E+04  0.90134527316E+03 0.  0.
        -24    2    4    4    0    0  0.93795464671E+02  0.42850571188E+03 -0.53724706723E+03  0.69803389772E+03  0.78753900302E+02 0.  0.
         24    2    4    4    0    0  0.29578111836E+03 -0.43378206518E+03 -0.48101231775E+03  0.71655905804E+03  0.80191544364E+02 0.  0.
         13    1    3    3    0    0 -0.38861449076E+03  0.79726153662E+01 -0.93005572075E+03  0.10080121174E+04  0.00000000000E+00 0. -1.
        -13    1    3    3    0    0 -0.96209227118E+00 -0.26962620668E+01 -0.63937905109E+02  0.64001962161E+02  0.00000000000E+00 0.  1.
          4    1    6    6  502    0  0.21712773730E+03 -0.26256492117E+03 -0.33885754187E+03  0.48053015079E+03  0.00000000000E+00 0. -1.
          1    1    5    5  503    0 -0.21819330500E+01  0.15428260925E+03 -0.16635764398E+03  0.22689810502E+03  0.00000000000E+00 0. -1.
         -2    1    5    5    0  503  0.95977397721E+02  0.27422310262E+03 -0.37088942324E+03  0.47113579270E+03  0.00000000000E+00 0.  1.
         -3    1    6    6    0  502  0.78653381058E+02 -0.17121714401E+03 -0.14215477588E+03  0.23602890725E+03  0.00000000000E+00 0.  1.
<mgrwt>
<rscale>  0 0.14608396E+04</rscale>
<asrwt>0</asrwt>
<pdfrwt beam="1">  1        3 0.36488772E-01 0.14608396E+04</pdfrwt>
<pdfrwt beam="2">  1       -3 0.34606615E+00 0.14608396E+04</pdfrwt>
<totfact> 0.40092640E-01</totfact>
</mgrwt>
</event>
<event>
12    1  0.1114484E-007  0.1915371E+04  0.7818608E-02  0.8647243E-01
         -1   -1    0    0    0  501 -0.00000000000E+00  0.00000000000E+00  0.11445746676E+04  0.11445746676E+04  0.00000000000E+00 0.  1.
          1   -1    0    0  501    0  0.00000000000E+00 -0.00000000000E+00 -0.80131190219E+03  0.80131190219E+03  0.00000000000E+00 0. -1.
         23    2    1    2    0    0 -0.25342343164E+03 -0.25273019785E+03  0.79753918753E+03  0.87931538895E+03  0.95030568713E+02 0.  0.
        254    2    1    2    0    0  0.25342343164E+03  0.25273019785E+03 -0.45427642210E+03  0.10665711809E+04  0.89616462079E+03 0.  0.
        -24    2    4    4    0    0  0.28214762427E+03 -0.28609795716E+03 -0.11955347913E+03  0.42657894569E+03  0.78849474070E+02 0.  0.
         24    2    4    4    0    0 -0.28724192635E+02  0.53882815501E+03 -0.33472294297E+03  0.63999223517E+03  0.79935928443E+02 0.  0.
         11    1    3    3    0    0 -0.22517547824E+03 -0.25312104630E+03  0.76198672950E+03  0.83390529199E+03  0.00000000000E+00 0.  1.
        -11    1    3    3    0    0 -0.28247953396E+02  0.39084844897E+00  0.35552458027E+02  0.45410096954E+02  0.00000000000E+00 0. -1.
          4    1    6    6  502    0  0.46168817190E+01  0.45153537302E+03 -0.26701910653E+03  0.52459957295E+03  0.00000000000E+00 0. -1.
          1    1    5    5  503    0  0.23267116178E+03 -0.19102886545E+03 -0.73231503075E+02  0.30982374022E+03  0.00000000000E+00 0. -1.
         -2    1    5    5    0  503  0.49476462489E+02 -0.95069091711E+02 -0.46321976057E+02  0.11675520547E+03  0.00000000000E+00 0.  1.
         -3    1    6    6    0  502 -0.33341074354E+02  0.87292781991E+02 -0.67703836432E+02  0.11539266222E+03  0.00000000000E+00 0.  1.
<mgrwt>
<rscale>  0 0.19153708E+04</rscale>
<asrwt>0</asrwt>
<pdfrwt beam="1">  1        1 0.12327875E+00 0.19153708E+04</pdfrwt>
<pdfrwt beam="2">  1       -1 0.17608841E+00 0.19153708E+04</pdfrwt>
<totfact> 0.45761365E+00</totfact>
</mgrwt>
</event>
<event>
12    1  0.1114484E-007  0.1242704E+04  0.7818608E-02  0.9076278E-01
         -1   -1    0    0    0  501 -0.00000000000E+00  0.00000000000E+00  0.23785144268E+03  0.23785144268E+03  0.00000000000E+00 0.  1.
          1   -1    0    0  501    0  0.00000000000E+00 -0.00000000000E+00 -0.16231900626E+04  0.16231900626E+04  0.00000000000E+00 0. -1.
         23    2    1    2    0    0  0.10487146012E+03  0.18195574368E+03 -0.35265221348E+02  0.22944493325E+03  0.85413264475E+02 0.  0.
        254    2    1    2    0    0 -0.10487146012E+03 -0.18195574368E+03 -0.13500733986E+04  0.16315965721E+04  0.89179777784E+03 0.  0.
        -24    2    4    4    0    0 -0.30406319486E+03  0.19435119167E+03 -0.24187371349E+03  0.44148608574E+03  0.78614619859E+02 0.  0.
         24    2    4    4    0    0  0.19919173473E+03 -0.37630693536E+03 -0.11081996851E+04  0.11901104863E+04  0.83499525747E+02 0.  0.
         11    1    3    3    0    0  0.82433585544E+02  0.15439139114E+03  0.58235694610E+01  0.17511685140E+03  0.00000000000E+00 0.  1.
        -11    1    3    3    0    0  0.22437874577E+02  0.27564352543E+02 -0.41088790809E+02  0.54328081843E+02  0.00000000000E+00 0. -1.
          4    1    6    6  502    0  0.14312464256E+03 -0.30421671569E+03 -0.94601422009E+03  0.10039797697E+04  0.00000000000E+00 0. -1.
          3    1    5    5  503    0 -0.20199322159E+03  0.14385996236E+03 -0.12280017494E+03  0.27672519456E+03  0.00000000000E+00 0. -1.
         -4    1    5    5    0  503 -0.10206997326E+03  0.50491229310E+02 -0.11907353855E+03  0.16476089118E+03  0.00000000000E+00 0.  1.
         -3    1    6    6    0  502  0.56067092173E+02 -0.72090219671E+02 -0.16218546500E+03  0.18613071658E+03  0.00000000000E+00 0.  1.
<mgrwt>
<rscale>  0 0.12427037E+04</rscale>
<asrwt>0</asrwt>
<pdfrwt beam="1">  1        1 0.24972154E+00 0.12427037E+04</pdfrwt>
<pdfrwt beam="2">  1       -1 0.36592530E-01 0.12427037E+04</pdfrwt>
<totfact> 0.38015421E+01</totfact>
</mgrwt>
</event>
<event>
12    1  0.1114484E-007  0.1239805E+04  0.7818608E-02  0.9078711E-01
          1   -1    0    0  501    0  0.00000000000E+00  0.00000000000E+00  0.90631433084E+03  0.90631433084E+03  0.00000000000E+00 0. -1.
         -1   -1    0    0    0  501 -0.00000000000E+00 -0.00000000000E+00 -0.42400210533E+03  0.42400210533E+03  0.00000000000E+00 0.  1.
         23    2    1    2    0    0 -0.12448603085E+03  0.24525873681E+03  0.16883123711E+03  0.33518194864E+03  0.90522550837E+02 0.  0.
        254    2    1    2    0    0  0.12448603085E+03 -0.24525873681E+03  0.31348098841E+03  0.99513448753E+03  0.90353400507E+03 0.  0.
        -24    2    4    4    0    0 -0.23763891215E+03  0.54735068296E+02  0.43337879478E+03  0.50353317868E+03  0.79122070191E+02 0.  0.
         24    2    4    4    0    0  0.36212494301E+03 -0.29999380510E+03 -0.11989780637E+03  0.49160130885E+03  0.78521369326E+02 0.  0.
         11    1    3    3    0    0 -0.50119664993E+01  0.81410482581E+02  0.20969501329E+02  0.84217020062E+02  0.00000000000E+00 0.  1.
        -11    1    3    3    0    0 -0.11947406436E+03  0.16384825423E+03  0.14786173578E+03  0.25096492857E+03  0.00000000000E+00 0. -1.
          2    1    6    6  502    0  0.20518322143E+03 -0.12191445200E+03 -0.46613266915E+02  0.24317912044E+03  0.00000000000E+00 0. -1.
          3    1    5    5  503    0 -0.10121784553E+03 -0.15774535877E+02  0.18680171834E+03  0.21304640389E+03  0.00000000000E+00 0. -1.
         -4    1    5    5    0  503 -0.13642106662E+03  0.70509604173E+02  0.24657707644E+03  0.29048677478E+03  0.00000000000E+00 0.  1.
         -1    1    6    6    0  502  0.15694172158E+03 -0.17807935310E+03 -0.73284539459E+02  0.24842218841E+03  0.00000000000E+00 0.  1.
<mgrwt>
<rscale>  0 0.12398051E+04</rscale>
<asrwt>0</asrwt>
<pdfrwt beam="1">  1        1 0.13943297E+00 0.12398051E+04</pdfrwt>
<pdfrwt beam="2">  1       -1 0.65231093E-01 0.12398051E+04</pdfrwt>
<totfact> 0.42285386E+01</totfact>
</mgrwt>
</event>
<event>
12    1  0.1114484E-007  0.2331663E+04  0.7818608E-02  0.8465541E-01
          2   -1    0    0  501    0  0.00000000000E+00  0.00000000000E+00  0.19414909992E+04  0.19414909992E+04  0.00000000000E+00 0. -1.
         -2   -1    0    0    0  501 -0.00000000000E+00 -0.00000000000E+00 -0.70006138255E+03  0.70006138255E+03  0.00000000000E+00 0.  1.
         23    2    1    2    0    0 -0.18843211228E+03  0.22983038469E+03 -0.54098569300E+03  0.62405168623E+03  0.91903864934E+02 0.  0.
        254    2    1    2    0    0  0.18843211228E+03 -0.22983038469E+03  0.17824153096E+04  0.20175006955E+04  0.89720457740E+03 0.  0.
        -24    2    4    4    0    0 -0.31327357561E+02  0.11553343691E+03 -0.35449066104E+02  0.15247405343E+03  0.87534692019E+02 0.  0.
         24    2    4    4    0    0  0.21975946984E+03 -0.34536382160E+03  0.18178643757E+04  0.18650266421E+04  0.78250196308E+02 0.  0.
         13    1    3    3    0    0 -0.28523048856E+02 -0.22140146679E+01 -0.38914122055E+02  0.48298810257E+02  0.00000000000E+00 0. -1.
        -13    1    3    3    0    0 -0.15990906342E+03  0.23204439935E+03 -0.50207157095E+03  0.57575287597E+03  0.00000000000E+00 0.  1.
          2    1    6    6  502    0  0.16374107644E+03 -0.25663855909E+03  0.14899926732E+04  0.15207737032E+04  0.00000000000E+00 0. -1.
          1    1    5    5  503    0 -0.49105560320E+02  0.78000413870E+02 -0.54179460231E+02  0.10691508092E+03  0.00000000000E+00 0. -1.
         -2    1    5    5    0  503  0.17778202759E+02  0.37533023040E+02  0.18730394127E+02  0.45558972508E+02  0.00000000000E+00 0.  1.
         -1    1    6    6    0  502  0.56018393400E+02 -0.88725262504E+02  0.32787170253E+03  0.34425293888E+03  0.00000000000E+00 0.  1.
<mgrwt>
<rscale>  0 0.23316628E+04</rscale>
<asrwt>0</asrwt>
<pdfrwt beam="1">  1        2 0.29869092E+00 0.23316628E+04</pdfrwt>
<pdfrwt beam="2">  1       -2 0.10770175E+00 0.23316628E+04</pdfrwt>
<totfact> 0.45024100E+00</totfact>
</mgrwt>
</event>
<event>
12    1  0.1114484E-007  0.1371513E+04  0.7818608E-02  0.8974701E-01
         -1   -1    0    0    0  501 -0.00000000000E+00  0.00000000000E+00  0.29304076889E+03  0.29304076889E+03  0.00000000000E+00 0.  1.
          1   -1    0    0  501    0  0.00000000000E+00 -0.00000000000E+00 -0.16047661137E+04  0.16047661137E+04  0.00000000000E+00 0. -1.
         23    2    1    2    0    0  0.28914024328E+03  0.72560869845E+02 -0.70615587321E+03  0.77308604115E+03  0.10069135827E+03 0.  0.
        254    2    1    2    0    0 -0.28914024328E+03 -0.72560869845E+02 -0.60556947159E+03  0.11247208414E+04  0.89967517811E+03 0.  0.
        -24    2    4    4    0    0 -0.53007980688E+02 -0.27822976293E+03  0.12983003657E+03  0.32150726070E+03  0.79305947399E+02 0.  0.
         24    2    4    4    0    0 -0.23613226259E+03  0.20566889308E+03 -0.73539950815E+03  0.80321358073E+03  0.79255792562E+02 0.  0.
         13    1    3    3    0    0  0.26562468311E+03  0.51904914335E+02 -0.68139151089E+03  0.73317459280E+03  0.00000000000E+00 0. -1.
        -13    1    3    3    0    0  0.23515560169E+02  0.20655955510E+02 -0.24764362315E+02  0.39911448345E+02  0.00000000000E+00 0.  1.
          4    1    6    6  502    0 -0.18205534656E+03  0.10885286945E+03 -0.48522244176E+03  0.52956011405E+03  0.00000000000E+00 0. -1.
          3    1    5    5  503    0  0.15193597244E+02 -0.13053529808E+03  0.60302381904E+02  0.14459144755E+03  0.00000000000E+00 0. -1.
         -4    1    5    5    0  503 -0.68201577932E+02 -0.14769446485E+03  0.69527654661E+02  0.17691581315E+03  0.00000000000E+00 0.  1.
         -1    1    6    6    0  502 -0.54076916036E+02  0.96816023628E+02 -0.25017706639E+03  0.27365346668E+03  0.00000000000E+00 0.  1.
<mgrwt>
<rscale>  0 0.13715129E+04</rscale>
<asrwt>0</asrwt>
<pdfrwt beam="1">  1        1 0.24688710E+00 0.13715129E+04</pdfrwt>
<pdfrwt beam="2">  1       -1 0.45083195E-01 0.13715129E+04</pdfrwt>
<totfact> 0.26413595E+01</totfact>
</mgrwt>
</event>
<event>
12    1  0.1114484E-007  0.1543509E+04  0.7818608E-02  0.8856024E-01
         -2   -1    0    0    0  501 -0.00000000000E+00  0.00000000000E+00  0.24725741238E+03  0.24725741238E+03  0.00000000000E+00 0.  1.
          2   -1    0    0  501    0  0.00000000000E+00 -0.00000000000E+00 -0.24088472787E+04  0.24088472787E+04  0.00000000000E+00 0. -1.
         23    2    1    2    0    0 -0.19066250525E+03 -0.92722021493E+02  0.68746320902E+02  0.24149882830E+03  0.92984209721E+02 0.  0.
        254    2    1    2    0    0  0.19066250525E+03  0.92722021493E+02 -0.22303361872E+04  0.24146058627E+04  0.90054006039E+03 0.  0.
        -24    2    4    4    0    0  0.11796111348E+03  0.47210060131E+03 -0.15692134830E+04  0.16448195648E+04  0.78782253505E+02 0.  0.
         24    2    4    4    0    0  0.72701391761E+02 -0.37937857982E+03 -0.66112270422E+03  0.76978629798E+03  0.79209313408E+02 0.  0.
         13    1    3    3    0    0 -0.12196150088E+03 -0.24188720749E+02  0.31658352810E+01  0.12437734690E+03  0.00000000000E+00 0. -1.
        -13    1    3    3    0    0 -0.68701004363E+02 -0.68533300744E+02  0.65580485621E+02  0.11712148140E+03  0.00000000000E+00 0.  1.
          2    1    6    6  502    0  0.65352569594E+01 -0.15461845759E+03 -0.20336937299E+03  0.25555562776E+03  0.00000000000E+00 0. -1.
          1    1    5    5  503    0  0.32780381092E+01  0.13248634720E+03 -0.49170602355E+03  0.50925258107E+03  0.00000000000E+00 0. -1.
         -2    1    5    5    0  503  0.11468307537E+03  0.33961425412E+03 -0.10775074594E+04  0.11355669837E+04  0.00000000000E+00 0.  1.
         -1    1    6    6    0  502  0.66166134802E+02 -0.22476012223E+03 -0.45775333122E+03  0.51423067021E+03  0.00000000000E+00 0.  1.
<mgrwt>
<rscale>  0 0.15435094E+04</rscale>
<asrwt>0</asrwt>
<pdfrwt beam="1">  1        2 0.37059189E+00 0.15435094E+04</pdfrwt>
<pdfrwt beam="2">  1       -2 0.38039602E-01 0.15435094E+04</pdfrwt>
<totfact> 0.24734154E+01</totfact>
</mgrwt>
</event>
<event>
12    1  0.1114484E-007  0.1564767E+04  0.7818608E-02  0.8842490E-01
          1   -1    0    0  501    0  0.00000000000E+00  0.00000000000E+00  0.16584075899E+04  0.16584075899E+04  0.00000000000E+00 0. -1.
         -1   -1    0    0    0  501 -0.00000000000E+00 -0.00000000000E+00 -0.36910353518E+03  0.36910353518E+03  0.00000000000E+00 0.  1.
         23    2    1    2    0    0 -0.27809792400E+03 -0.41830615948E+03  0.61816936645E+03  0.80257868047E+03  0.98390417938E+02 0.  0.
        254    2    1    2    0    0  0.27809792400E+03  0.41830615948E+03  0.67113468827E+03  0.12249324446E+04  0.89315128934E+03 0.  0.
        -24    2    4    4    0    0 -0.18064066169E+03 -0.11880416167E+03 -0.22855747964E+02  0.23173756160E+03  0.80214928505E+02 0.  0.
         24    2    4    4    0    0  0.45873858569E+03  0.53711032115E+03  0.69399043623E+03  0.99319488301E+03  0.76712208698E+02 0.  0.
         11    1    3    3    0    0 -0.25798936177E+03 -0.35100761787E+03  0.48423015603E+03  0.65133992860E+03  0.00000000000E+00 0. -1.
        -11    1    3    3    0    0 -0.20108562227E+02 -0.67298541610E+02  0.13393921043E+03  0.15123875187E+03  0.00000000000E+00 0.  1.
          2    1    6    6  502    0  0.37369458494E+03  0.42822799985E+03  0.59773531653E+03  0.82481171870E+03  0.00000000000E+00 0. -1.
          3    1    5    5  503    0 -0.18046819475E+03 -0.12787622941E+03 -0.24437367168E+02  0.22252704168E+03  0.00000000000E+00 0. -1.
         -4    1    5    5    0  503 -0.17246693723E+00  0.90720677374E+01  0.15816192040E+01  0.92105199193E+01  0.00000000000E+00 0.  1.
         -1    1    6    6    0  502  0.85044000749E+02  0.10888232130E+03  0.96255119704E+02  0.16838316431E+03  0.00000000000E+00 0.  1.
<mgrwt>
<rscale>  0 0.15647672E+04</rscale>
<asrwt>0</asrwt>
<pdfrwt beam="1">  1        1 0.25513963E+00 0.15647672E+04</pdfrwt>
<pdfrwt beam="2">  1       -1 0.56785160E-01 0.15647672E+04</pdfrwt>
<totfact> 0.15371962E+01</totfact>
</mgrwt>
</event>
<event>
12    1  0.1114484E-007  0.3033862E+04  0.7818608E-02  0.8234127E-01
         -2   -1    0    0    0  501 -0.00000000000E+00  0.00000000000E+00  0.11535547571E+04  0.11535547571E+04  0.00000000000E+00 0.  1.
          2   -1    0    0  501    0  0.00000000000E+00 -0.00000000000E+00 -0.19947723671E+04  0.19947723671E+04  0.00000000000E+00 0. -1.
         23    2    1    2    0    0  0.86829619979E+03 -0.31944615338E+03  0.68123516648E+03  0.11525378660E+04  0.90983762069E+02 0.  0.
        254    2    1    2    0    0 -0.86829619979E+03  0.31944615338E+03 -0.15224527764E+04  0.19957892583E+04  0.89962668453E+03 0.  0.
        -24    2    4    4    0    0 -0.60741842850E+03 -0.23935309563E+03 -0.65153415372E+03  0.92565096608E+03  0.78012216180E+02 0.  0.
         24    2    4    4    0    0 -0.26087777128E+03  0.55879924901E+03 -0.87091862272E+03  0.10701382922E+04  0.79893083541E+02 0.  0.
         11    1    3    3    0    0  0.23484845165E+03 -0.12293513093E+03  0.16690624147E+03  0.31324836009E+03  0.00000000000E+00 0.  1.
        -11    1    3    3    0    0  0.63344774813E+03 -0.19651102245E+03  0.51432892501E+03  0.83928950587E+03  0.00000000000E+00 0. -1.
          2    1    6    6  502    0 -0.15816167610E+03  0.40459764199E+03 -0.56851858925E+03  0.71549126760E+03  0.00000000000E+00 0. -1.
          3    1    5    5  503    0 -0.51609137021E+03 -0.21956986150E+03 -0.52404908689E+03  0.76758626352E+03  0.00000000000E+00 0. -1.
         -4    1    5    5    0  503 -0.91327058293E+02 -0.19783234126E+02 -0.12748506684E+03  0.15806470256E+03  0.00000000000E+00 0.  1.
         -1    1    6    6    0  502 -0.10271609518E+03  0.15420160702E+03 -0.30240003347E+03  0.35464702460E+03  0.00000000000E+00 0.  1.
<mgrwt>
<rscale>  0 0.30338617E+04</rscale>
<asrwt>0</asrwt>
<pdfrwt beam="1">  1        2 0.30688805E+00 0.30338617E+04</pdfrwt>
<pdfrwt beam="2">  1       -2 0.17746997E+00 0.30338617E+04</pdfrwt>
<totfact> 0.10841957E+00</totfact>
</mgrwt>
</event>
<event>
12    1  0.1114484E-007  0.2053165E+04  0.7818608E-02  0.8582160E-01
         -2   -1    0    0    0  501 -0.00000000000E+00  0.00000000000E+00  0.50154809083E+03  0.50154809083E+03  0.00000000000E+00 0.  1.
          2   -1    0    0  501    0  0.00000000000E+00 -0.00000000000E+00 -0.21012368894E+04  0.21012368894E+04  0.00000000000E+00 0. -1.
         23    2    1    2    0    0 -0.64747878419E+03 -0.30993992923E+03 -0.12339912283E+03  0.73408319412E+03  0.91428970620E+02 0.  0.
        254    2    1    2    0    0  0.64747878419E+03  0.30993992923E+03 -0.14762896757E+04  0.18687017861E+04  0.89292979735E+03 0.  0.
        -24    2    4    4    0    0  0.84802997436E+03  0.22454461962E+03 -0.96110289300E+03  0.13036529288E+04  0.78848362231E+02 0.  0.
         24    2    4    4    0    0 -0.20055119018E+03  0.85395309610E+02 -0.51518678273E+03  0.56504885729E+03  0.79684698947E+02 0.  0.
         13    1    3    3    0    0 -0.25596708044E+03 -0.16123240533E+03 -0.22828043001E+02  0.30337461058E+03  0.00000000000E+00 0. -1.
        -13    1    3    3    0    0 -0.39151170374E+03 -0.14870752389E+03 -0.10057107983E+03  0.43070858353E+03  0.00000000000E+00 0.  1.
          4    1    6    6  502    0 -0.17734506237E+03  0.58238963916E+02 -0.35672959773E+03  0.40261526792E+03  0.00000000000E+00 0. -1.
          3    1    5    5  503    0  0.59934060246E+03  0.12227770652E+03 -0.68057625384E+03  0.91506558921E+03  0.00000000000E+00 0. -1.
         -2    1    5    5    0  503  0.24868937191E+03  0.10226691310E+03 -0.28052663916E+03  0.38858733959E+03  0.00000000000E+00 0.  1.
         -3    1    6    6    0  502 -0.23206127805E+02  0.27156345694E+02 -0.15845718500E+03  0.16243358938E+03  0.00000000000E+00 0.  1.
<mgrwt>
<rscale>  0 0.20531647E+04</rscale>
<asrwt>0</asrwt>
<pdfrwt beam="1">  1        2 0.32326722E+00 0.20531647E+04</pdfrwt>
<pdfrwt beam="2">  1       -2 0.77161244E-01 0.20531647E+04</pdfrwt>
<totfact> 0.81340202E+00</totfact>
</mgrwt>
</event>
<event>
12    1  0.1114484E-007  0.1841658E+04  0.7818608E-02  0.8684455E-01
          2   -1    0    0  501    0  0.00000000000E+00  0.00000000000E+00  0.49853839286E+03  0.49853839286E+03  0.00000000000E+00 0. -1.
         -2   -1    0    0    0  501 -0.00000000000E+00 -0.00000000000E+00 -0.17008235422E+04  0.17008235422E+04  0.00000000000E+00 0.  1.
         23    2    1    2    0    0  0.59058197842E+03 -0.28311901830E+03 -0.16053730890E+03  0.68030180328E+03  0.89971463451E+02 0.  0.
        254    2    1    2    0    0 -0.59058197842E+03  0.28311901830E+03 -0.10417478404E+04  0.15190601317E+04  0.89070852085E+03 0.  0.
        -24    2    4    4    0    0 -0.11546874022E+03 -0.16975231230E+03  0.65719951416E+02  0.22920037361E+03  0.77876965463E+02 0.  0.
         24    2    4    4    0    0 -0.47511323820E+03  0.45287133060E+03 -0.11074677918E+04  0.12898597581E+04  0.80176396490E+02 0.  0.
         13    1    3    3    0    0  0.55139534519E+03 -0.24999151398E+03 -0.16836719972E+03  0.62839485811E+03  0.00000000000E+00 0. -1.
        -13    1    3    3    0    0  0.39186633230E+02 -0.33127504319E+02  0.78298908163E+01  0.51906945167E+02  0.00000000000E+00 0.  1.
          4    1    6    6  502    0 -0.41256504114E+03  0.36753047674E+03 -0.97076285224E+03  0.11169910831E+04  0.00000000000E+00 0. -1.
          1    1    5    5  503    0 -0.59375275410E+02 -0.12131656827E+03  0.75028005326E+02  0.15450674630E+03  0.00000000000E+00 0. -1.
         -2    1    5    5    0  503 -0.56093464810E+02 -0.48435744024E+02 -0.93080539098E+01  0.74693627313E+02  0.00000000000E+00 0.  1.
         -3    1    6    6    0  502 -0.62548197067E+02  0.85340853865E+02 -0.13670493957E+03  0.17286867500E+03  0.00000000000E+00 0.  1.
<mgrwt>
<rscale>  0 0.18416578E+04</rscale>
<asrwt>0</asrwt>
<pdfrwt beam="1">  1        2 0.76698213E-01 0.18416578E+04</pdfrwt>
<pdfrwt beam="2">  1       -2 0.26166516E+00 0.18416578E+04</pdfrwt>
<totfact> 0.31692331E+00</totfact>
</mgrwt>
</event>
<event>
12    1  0.1114484E-007  0.1299811E+04  0.7818608E-02  0.9029715E-01
          1   -1    0    0  501    0  0.00000000000E+00  0.00000000000E+00  0.92386202603E+03  0.92386202603E+03  0.00000000000E+00 0. -1.
         -1   -1    0    0    0  501 -0.00000000000E+00 -0.00000000000E+00 -0.45718671963E+03  0.45718671963E+03  0.00000000000E+00 0.  1.
         23    2    1    2    0    0  0.30968941633E+03  0.21465850157E+02  0.25704604295E+02  0.32421796510E+03  0.89934670172E+02 0.  0.
        254    2    1    2    0    0 -0.30968941633E+03 -0.21465850157E+02  0.44097070211E+03  0.10568307806E+04  0.90888273244E+03 0.  0.
        -24    2    4    4    0    0 -0.35754667091E+03 -0.39290518333E+03  0.10544041950E+03  0.54770807462E+03  0.81561927263E+02 0.  0.
         24    2    4    4    0    0  0.47857254574E+02  0.37143933318E+03  0.33553028261E+03  0.50912270594E+03  0.79798897943E+02 0.  0.
         13    1    3    3    0    0  0.24389099745E+02 -0.58060077417E+01 -0.22385840112E+02  0.33610470836E+02  0.00000000000E+00 0. -1.
        -13    1    3    3    0    0  0.28530031659E+03  0.27271857898E+02  0.48090444407E+02  0.29060749426E+03  0.00000000000E+00 0.  1.
          4    1    6    6  502    0  0.33360270013E+02  0.19038550374E+03  0.22449481238E+03  0.29623887057E+03  0.00000000000E+00 0. -1.
          1    1    5    5  503    0 -0.13017591988E+02 -0.18321068094E+02  0.22968890722E+02  0.32135481610E+02  0.00000000000E+00 0. -1.
         -2    1    5    5    0  503 -0.34452907892E+03 -0.37458411524E+03  0.82471528780E+02  0.51557259301E+03  0.00000000000E+00 0.  1.
         -3    1    6    6    0  502  0.14496984560E+02  0.18105382943E+03  0.11103547023E+03  0.21288383537E+03  0.00000000000E+00 0.  1.
<mgrwt>
<rscale>  0 0.12998114E+04</rscale>
<asrwt>0</asrwt>
<pdfrwt beam="1">  1        1 0.14213262E+00 0.12998114E+04</pdfrwt>
<pdfrwt beam="2">  1       -1 0.70336418E-01 0.12998114E+04</pdfrwt>
<totfact> 0.34931868E+01</totfact>
</mgrwt>
</event>
<event>
12    1  0.1114484E-007  0.2031876E+04  0.7818608E-02  0.8591861E-01
         -2   -1    0    0    0  501 -0.00000000000E+00  0.00000000000E+00  0.12830275893E+04  0.12830275893E+04  0.00000000000E+00 0.  1.
          2   -1    0    0  501    0  0.00000000000E+00 -0.00000000000E+00 -0.80444869116E+03  0.80444869116E+03  0.00000000000E+00 0. -1.
         23    2    1    2    0    0 -0.30122136443E+02  0.39300228741E+03 -0.53379666395E+03  0.66941961638E+03  0.88462440271E+02 0.  0.
        254    2    1    2    0    0  0.30122136443E+02 -0.39300228741E+03  0.10123755621E+04  0.14180566641E+04  0.91138481600E+03 0.  0.
        -24    2    4    4    0    0  0.23558953741E+03 -0.45160471549E+03  0.10660078928E+04  0.11839847349E+04  0.77445307415E+02 0.  0.
         24    2    4    4    0    0 -0.20546740096E+03  0.58602428088E+02 -0.53632330751E+02  0.23407192921E+03  0.79133707761E+02 0.  0.
         13    1    3    3    0    0 -0.40033896318E+02  0.38825870998E+03 -0.50270374348E+03  0.63644213598E+03  0.00000000000E+00 0. -1.
        -13    1    3    3    0    0  0.99117598750E+01  0.47435774208E+01 -0.31092920468E+02  0.32977480404E+02  0.00000000000E+00 0.  1.
          2    1    6    6  502    0 -0.15900657294E+03  0.29987806137E+02 -0.64533172090E+01  0.16193827237E+03  0.00000000000E+00 0. -1.
          1    1    5    5  503    0  0.13222127108E+03 -0.24643920422E+03  0.49582736384E+03  0.56926225998E+03  0.00000000000E+00 0. -1.
         -2    1    5    5    0  503  0.10336826633E+03 -0.20516551127E+03  0.57018052899E+03  0.61472247489E+03  0.00000000000E+00 0.  1.
         -1    1    6    6    0  502 -0.46460828027E+02  0.28614621951E+02 -0.47179013542E+02  0.72133656840E+02  0.00000000000E+00 0.  1.
<mgrwt>
<rscale>  0 0.20318758E+04</rscale>
<asrwt>0</asrwt>
<pdfrwt beam="1">  1        2 0.12376134E+00 0.20318758E+04</pdfrwt>
<pdfrwt beam="2">  1       -2 0.19738886E+00 0.20318758E+04</pdfrwt>
<totfact> 0.43822260E+00</totfact>
</mgrwt>
</event>
<event>
12    1  0.1114484E-007  0.3326689E+04  0.7818608E-02  0.8156137E-01
          2   -1    0    0  501    0  0.00000000000E+00  0.00000000000E+00  0.22212119431E+04  0.22212119431E+04  0.00000000000E+00 0. -1.
         -2   -1    0    0    0  501 -0.00000000000E+00 -0.00000000000E+00 -0.12455877590E+04  0.12455877590E+04  0.00000000000E+00 0.  1.
         23    2    1    2    0    0  0.15007374451E+04 -0.35289795599E+03  0.41705351917E+03  0.15997339041E+04  0.92005867015E+02 0.  0.
        254    2    1    2    0    0 -0.15007374451E+04  0.35289795599E+03  0.55857066491E+03  0.18670657980E+04  0.89285142087E+03 0.  0.
        -24    2    4    4    0    0 -0.37764261646E+03  0.49123277514E+03  0.59205216075E+02  0.62739240464E+03  0.78691719068E+02 0.  0.
         24    2    4    4    0    0 -0.11230948287E+04 -0.13833481915E+03  0.49936544883E+03  0.12396733933E+04  0.83341192136E+02 0.  0.
         13    1    3    3    0    0  0.63651746683E+03 -0.14507820681E+03  0.22357829950E+03  0.69006479963E+03  0.00000000000E+00 0.  1.
        -13    1    3    3    0    0  0.86421997829E+03 -0.20781974918E+03  0.19347521967E+03  0.90966910448E+03  0.00000000000E+00 0. -1.
          4    1    6    6  502    0 -0.11077255239E+04 -0.13218523624E+03  0.50123380914E+03  0.12230143516E+04  0.00000000000E+00 0. -1.
          3    1    5    5  503    0 -0.32558279212E+03  0.37315920567E+03  0.38784965903E+02  0.49674562996E+03  0.00000000000E+00 0. -1.
         -4    1    5    5    0  503 -0.52059824337E+02  0.11807356947E+03  0.20420250172E+02  0.13064677468E+03  0.00000000000E+00 0.  1.
         -3    1    6    6    0  502 -0.15369304810E+02 -0.61495829110E+01 -0.18683603083E+01  0.16659041706E+02  0.00000000000E+00 0.  1.
<mgrwt>
<rscale>  0 0.33266887E+04</rscale>
<asrwt>0</asrwt>
<pdfrwt beam="1">  1        2 0.34172491E+00 0.33266887E+04</pdfrwt>
<pdfrwt beam="2">  1       -2 0.19162889E+00 0.33266887E+04</pdfrwt>
<totfact> 0.63283616E-01</totfact>
</mgrwt>
</event>
<event>
12    1  0.1114484E-007  0.1769850E+04  0.7818608E-02  0.8722499E-01
          1   -1    0    0  501    0  0.00000000000E+00  0.00000000000E+00  0.13249446075E+04  0.13249446075E+04  0.00000000000E+00 0. -1.
         -1   -1    0    0    0  501 -0.00000000000E+00 -0.00000000000E+00 -0.59103746632E+03  0.59103746632E+03  0.00000000000E+00 0.  1.
         23    2    1    2    0    0 -0.47086504838E+03 -0.44164775532E+03  0.21625610036E+03  0.69223165259E+03  0.12510526106E+03 0.  0.
        254    2    1    2    0    0  0.47086504838E+03  0.44164775532E+03  0.51765104086E+03  0.12237504213E+04  0.90157410117E+03 0.  0.
        -24    2    4    4    0    0 -0.89116122033E+02 -0.31909172142E+02  0.46849450796E+03  0.48445086031E+03  0.79029447681E+02 0.  0.
         24    2    4    4    0    0  0.55998117041E+03  0.47355692746E+03  0.49156532902E+02  0.73929956095E+03  0.79450622023E+02 0.  0.
         11    1    3    3    0    0 -0.87022606696E+02 -0.11956285425E+03  0.97967528411E+02  0.17738615170E+03  0.00000000000E+00 0. -1.
        -11    1    3    3    0    0 -0.38384244168E+03 -0.32208490106E+03  0.11828857195E+03  0.51484550089E+03  0.00000000000E+00 0.  1.
          2    1    6    6  502    0  0.46750016998E+03  0.36889494637E+03  0.15904665611E+02  0.59572883830E+03  0.00000000000E+00 0. -1.
          3    1    5    5  503    0 -0.48777957580E+02  0.23086967171E+02  0.24011045825E+03  0.24610024250E+03  0.00000000000E+00 0. -1.
         -4    1    5    5    0  503 -0.40338164454E+02 -0.54996139313E+02  0.22838404971E+03  0.23835061781E+03  0.00000000000E+00 0.  1.
         -1    1    6    6    0  502  0.92481000427E+02  0.10466198108E+03  0.33251867291E+02  0.14357072265E+03  0.00000000000E+00 0.  1.
<mgrwt>
<rscale>  0 0.17698496E+04</rscale>
<asrwt>0</asrwt>
<pdfrwt beam="1">  1        1 0.20383763E+00 0.17698496E+04</pdfrwt>
<pdfrwt beam="2">  1       -1 0.90928841E-01 0.17698496E+04</pdfrwt>
<totfact> 0.96989264E+00</totfact>
</mgrwt>
</event>
<event>
12    1  0.1114484E-007  0.2370165E+04  0.7818608E-02  0.8450758E-01
          2   -1    0    0  501    0  0.00000000000E+00  0.00000000000E+00  0.15220103996E+04  0.15220103996E+04  0.00000000000E+00 0. -1.
         -2   -1    0    0    0  501 -0.00000000000E+00 -0.00000000000E+00 -0.92274080457E+03  0.92274080457E+03  0.00000000000E+00 0.  1.
         23    2    1    2    0    0 -0.58594911076E+03 -0.80493349315E+03  0.75618888181E+02  0.10024890670E+04  0.89508795467E+02 0.  0.
        254    2    1    2    0    0  0.58594911076E+03  0.80493349315E+03  0.52365070681E+03  0.14422621371E+04  0.90258280540E+03 0.  0.
        -24    2    4    4    0    0  0.18214248103E+03  0.57428707440E+03 -0.14416836873E+03  0.62472435697E+03  0.80712306526E+02 0.  0.
         24    2    4    4    0    0  0.40380662973E+03  0.23064641875E+03  0.66781907554E+03  0.81753778014E+03  0.78282434876E+02 0.  0.
         13    1    3    3    0    0 -0.74984451348E+02 -0.11209535644E+03  0.40834017526E+02  0.14090938175E+03  0.00000000000E+00 0. -1.
        -13    1    3    3    0    0 -0.51096465942E+03 -0.69283813671E+03  0.34784870655E+02  0.86157968528E+03  0.00000000000E+00 0.  1.
          4    1    6    6  502    0  0.37697817929E+03  0.19516248310E+03  0.57616249518E+03  0.71565645622E+03  0.00000000000E+00 0. -1.
          1    1    5    5  503    0  0.15557241040E+03  0.53854158591E+03 -0.14871676601E+03  0.57995386982E+03  0.00000000000E+00 0. -1.
         -2    1    5    5    0  503  0.26570070637E+02  0.35745488492E+02  0.45483972847E+01  0.44770487144E+02  0.00000000000E+00 0.  1.
         -3    1    6    6    0  502  0.26828450443E+02  0.35483935649E+02  0.91656580359E+02  0.10188132393E+03  0.00000000000E+00 0.  1.
<mgrwt>
<rscale>  0 0.23701655E+04</rscale>
<asrwt>0</asrwt>
<pdfrwt beam="1">  1        2 0.23415545E+00 0.23701655E+04</pdfrwt>
<pdfrwt beam="2">  1       -2 0.14196012E+00 0.23701655E+04</pdfrwt>
<totfact> 0.38523383E+00</totfact>
</mgrwt>
</event>
<event>
12    1  0.1114484E-007  0.1369573E+04  0.7818608E-02  0.8976143E-01
          1   -1    0    0  501    0  0.00000000000E+00  0.00000000000E+00  0.12998315555E+04  0.12998315555E+04  0.00000000000E+00 0. -1.
         -1   -1    0    0    0  501 -0.00000000000E+00 -0.00000000000E+00 -0.36076385925E+03  0.36076385925E+03  0.00000000000E+00 0.  1.
         23    2    1    2    0    0 -0.10577878544E+03 -0.15292097250E+03 -0.13356100132E+03  0.24638276471E+03  0.91060147129E+02 0.  0.
        254    2    1    2    0    0  0.10577878544E+03  0.15292097250E+03  0.10726286976E+04  0.14142126501E+04  0.90271319997E+03 0.  0.
        -24    2    4    4    0    0 -0.33716903021E+03 -0.11603941508E+03  0.62757231122E+03  0.72657638122E+03  0.83175303731E+02 0.  0.
         24    2    4    4    0    0  0.44294781565E+03  0.26896038758E+03  0.44505638638E+03  0.68763626884E+03  0.78904966237E+02 0.  0.
         11    1    3    3    0    0 -0.95052684965E+02 -0.16521731009E+03 -0.12518053729E+03  0.22803933737E+03  0.00000000000E+00 0.  1.
        -11    1    3    3    0    0 -0.10726100477E+02  0.12296337586E+02 -0.83804640236E+01  0.18343427343E+02  0.00000000000E+00 0. -1.
          2    1    6    6  502    0  0.78963511273E+02  0.59861106023E+02  0.12644051511E+03  0.16064181270E+03  0.00000000000E+00 0. -1.
          3    1    5    5  503    0 -0.33997898055E+03 -0.10680841474E+03  0.61402509666E+03  0.70994405695E+03  0.00000000000E+00 0. -1.
         -4    1    5    5    0  503  0.28099503423E+01 -0.92310003339E+01  0.13547214564E+02  0.16632324267E+02  0.00000000000E+00 0.  1.
         -1    1    6    6    0  502  0.36398430438E+03  0.20909928155E+03  0.31861587127E+03  0.52699445614E+03  0.00000000000E+00 0.  1.
<mgrwt>
<rscale>  0 0.13695726E+04</rscale>
<asrwt>0</asrwt>
<pdfrwt beam="1">  1        1 0.19997408E+00 0.13695726E+04</pdfrwt>
<pdfrwt beam="2">  1       -1 0.55502133E-01 0.13695726E+04</pdfrwt>
<totfact> 0.29025251E+01</totfact>
</mgrwt>
</event>
<event>
12    1  0.1114484E-007  0.1735995E+04  0.7818608E-02  0.8741097E-01
         -2   -1    0    0    0  501 -0.00000000000E+00  0.00000000000E+00  0.54804092455E+03  0.54804092455E+03  0.00000000000E+00 0.  1.
          2   -1    0    0  501    0  0.00000000000E+00 -0.00000000000E+00 -0.13747511223E+04  0.13747511223E+04  0.00000000000E+00 0. -1.
         23    2    1    2    0    0 -0.17682986140E+03 -0.57295884482E+03 -0.27142915902E+02  0.60680996393E+03  0.89055919005E+02 0.  0.
        254    2    1    2    0    0  0.17682986140E+03  0.57295884482E+03 -0.79956728187E+03  0.13159820829E+04  0.85612520501E+03 0.  0.
        -24    2    4    4    0    0 -0.28658415541E+03  0.48113450639E+03 -0.40212503533E+03  0.69366243526E+03  0.76433884346E+02 0.  0.
         24    2    4    4    0    0  0.46341401681E+03  0.91824338428E+02 -0.39744224654E+03  0.62231964768E+03  0.78339928855E+02 0.  0.
         13    1    3    3    0    0 -0.11634821160E+03 -0.48260093580E+03 -0.85591687317E+01  0.49650159008E+03  0.00000000000E+00 0.  1.
        -13    1    3    3    0    0 -0.60481649801E+02 -0.90357909012E+02 -0.18583747170E+02  0.11030837386E+03  0.00000000000E+00 0. -1.
          4    1    6    6  502    0  0.21981705218E+02  0.15477468337E+02 -0.63131619867E+01  0.27615274844E+02  0.00000000000E+00 0. -1.
          3    1    5    5  503    0 -0.31899157104E+02  0.80368275597E+02 -0.93399978194E+02  0.12727989579E+03  0.00000000000E+00 0. -1.
         -4    1    5    5    0  503 -0.25468499831E+03  0.40076623079E+03 -0.30872505714E+03  0.56638253947E+03  0.00000000000E+00 0.  1.
         -3    1    6    6    0  502  0.44143231160E+03  0.76346870091E+02 -0.39112908455E+03  0.59470437284E+03  0.00000000000E+00 0.  1.
<mgrwt>
<rscale>  0 0.17359952E+04</rscale>
<asrwt>0</asrwt>
<pdfrwt beam="1">  1        2 0.21150017E+00 0.17359952E+04</pdfrwt>
<pdfrwt beam="2">  1       -2 0.84313990E-01 0.17359952E+04</pdfrwt>
<totfact> 0.17425685E+01</totfact>
</mgrwt>
</event>
<event>
12    1  0.1114484E-007  0.1532494E+04  0.7818608E-02  0.8863128E-01
          1   -1    0    0  501    0  0.00000000000E+00  0.00000000000E+00  0.31104175003E+03  0.31104175003E+03  0.00000000000E+00 0. -1.
         -1   -1    0    0    0  501 -0.00000000000E+00 -0.00000000000E+00 -0.18876396106E+04  0.18876396106E+04  0.00000000000E+00 0.  1.
         23    2    1    2    0    0  0.31242815442E+03  0.16583474373E+03 -0.10078875791E+04  0.10716307835E+04  0.86270795398E+02 0.  0.
        254    2    1    2    0    0 -0.31242815442E+03 -0.16583474373E+03 -0.56871028144E+03  0.11270505771E+04  0.90647620223E+03 0.  0.
        -24    2    4    4    0    0 -0.23485726976E+03  0.19936179531E+02 -0.78313208554E+03  0.82177026932E+03  0.80343784627E+02 0.  0.
         24    2    4    4    0    0 -0.77570884666E+02 -0.18577092327E+03  0.21442180409E+03  0.30528030778E+03  0.81800233293E+02 0.  0.
         11    1    3    3    0    0  0.27734557720E+03  0.17006791006E+03 -0.85736776184E+03  0.91701861609E+03  0.00000000000E+00 0.  1.
        -11    1    3    3    0    0  0.35082577224E+02 -0.42331663269E+01 -0.15051981726E+03  0.15461216740E+03  0.00000000000E+00 0. -1.
          4    1    6    6  502    0 -0.51522950816E+02 -0.82326906553E+02  0.49866464316E+02  0.10917416483E+03  0.00000000000E+00 0. -1.
          1    1    5    5  503    0 -0.48279350264E+02  0.18376263093E+02 -0.28907804532E+03  0.29365745180E+03  0.00000000000E+00 0. -1.
         -2    1    5    5    0  503 -0.18657791949E+03  0.15599164378E+01 -0.49405404021E+03  0.52811281752E+03  0.00000000000E+00 0.  1.
         -3    1    6    6    0  502 -0.26047933850E+02 -0.10344401671E+03  0.16455533978E+03  0.19610614294E+03  0.00000000000E+00 0.  1.
<mgrwt>
<rscale>  0 0.15324943E+04</rscale>
<asrwt>0</asrwt>
<pdfrwt beam="1">  1        1 0.47852579E-01 0.15324943E+04</pdfrwt>
<pdfrwt beam="2">  1       -1 0.29040608E+00 0.15324943E+04</pdfrwt>
<totfact> 0.30807195E+00</totfact>
</mgrwt>
</event>
<event>
12    1  0.1114484E-007  0.1428961E+04  0.7818608E-02  0.8933118E-01
          2   -1    0    0  501    0  0.00000000000E+00  0.00000000000E+00  0.13217616222E+04  0.13217616222E+04  0.00000000000E+00 0. -1.
         -2   -1    0    0    0  501 -0.00000000000E+00 -0.00000000000E+00 -0.38621369063E+03  0.38621369063E+03  0.00000000000E+00 0.  1.
         23    2    1    2    0    0  0.21145528689E+03 -0.21963864325E+03  0.64657036777E+03  0.72079026437E+03  0.92362832240E+02 0.  0.
        254    2    1    2    0    0 -0.21145528689E+03  0.21963864325E+03  0.28897756383E+03  0.98718504849E+03  0.89334865288E+03 0.  0.
        -24    2    4    4    0    0 -0.53751944168E+03  0.11923552534E+03  0.40274113048E+02  0.55725142318E+03  0.75913660004E+02 0.  0.
         24    2    4    4    0    0  0.32606415479E+03  0.10040311791E+03  0.24870345078E+03  0.42993362531E+03  0.81184337276E+02 0.  0.
         11    1    3    3    0    0  0.50136655275E+02 -0.84518086763E+02  0.12968766646E+03  0.16271411132E+03  0.00000000000E+00 0.  1.
        -11    1    3    3    0    0  0.16131863162E+03 -0.13512055648E+03  0.51688270131E+03  0.55807615305E+03  0.00000000000E+00 0. -1.
          2    1    6    6  502    0  0.22218494558E+03  0.79327704706E+02  0.21367008024E+03  0.31829850450E+03  0.00000000000E+00 0. -1.
          1    1    5    5  503    0 -0.24979197098E+03  0.35812987525E+02 -0.14270262958E+02  0.25274936053E+03  0.00000000000E+00 0. -1.
         -2    1    5    5    0  503 -0.28772747069E+03  0.83422537813E+02  0.54544376005E+02  0.30450206265E+03  0.00000000000E+00 0.  1.
         -3    1    6    6    0  502  0.10387920920E+03  0.21075413201E+02  0.35033370541E+02  0.11163512081E+03  0.00000000000E+00 0.  1.
<mgrwt>
<rscale>  0 0.14289611E+04</rscale>
<asrwt>0</asrwt>
<pdfrwt beam="1">  1        2 0.20334794E+00 0.14289611E+04</pdfrwt>
<pdfrwt beam="2">  1       -2 0.59417491E-01 0.14289611E+04</pdfrwt>
<totfact> 0.41227582E+01</totfact>
</mgrwt>
</event>
<event>
12    1  0.1114484E-007  0.2656269E+04  0.7818608E-02  0.8349335E-01
          2   -1    0    0  501    0  0.00000000000E+00  0.00000000000E+00  0.20486922663E+04  0.20486922663E+04  0.00000000000E+00 0. -1.
         -2   -1    0    0    0  501 -0.00000000000E+00 -0.00000000000E+00 -0.86100829356E+03  0.86100829356E+03  0.00000000000E+00 0.  1.
         23    2    1    2    0    0  0.10596332458E+04 -0.43332408318E+03  0.24740983436E+03  0.11747989650E+04  0.91370702812E+02 0.  0.
        254    2    1    2    0    0 -0.10596332458E+04  0.43332408318E+03  0.94027413838E+03  0.17349015949E+04  0.90287081685E+03 0.  0.
        -24    2    4    4    0    0 -0.55482159601E+03 -0.23601834197E+03  0.30919048159E+03  0.68240344093E+03  0.80895247928E+02 0.  0.
         24    2    4    4    0    0 -0.50481164979E+03  0.66934242515E+03  0.63108365679E+03  0.10524981539E+04  0.81435240047E+02 0.  0.
         13    1    3    3    0    0  0.45036103721E+03 -0.17381769458E+03  0.59322802797E+02  0.48637110288E+03  0.00000000000E+00 0. -1.
        -13    1    3    3    0    0  0.60927220859E+03 -0.25950638860E+03  0.18808703156E+03  0.68842786211E+03  0.00000000000E+00 0.  1.
          4    1    6    6  502    0 -0.24005458915E+03  0.25536920000E+03  0.27933487752E+03  0.44818256088E+03  0.00000000000E+00 0. -1.
          1    1    5    5  503    0 -0.28331815389E+02 -0.26128105633E+02  0.37840080006E+02  0.54011492499E+02  0.00000000000E+00 0. -1.
         -2    1    5    5    0  503 -0.52648978062E+03 -0.20989023634E+03  0.27135040159E+03  0.62839194843E+03  0.00000000000E+00 0.  1.
         -3    1    6    6    0  502 -0.26475706064E+03  0.41397322516E+03  0.35174877927E+03  0.60431559307E+03  0.00000000000E+00 0.  1.
<mgrwt>
<rscale>  0 0.26562688E+04</rscale>
<asrwt>0</asrwt>
<pdfrwt beam="1">  1        2 0.31518342E+00 0.26562688E+04</pdfrwt>
<pdfrwt beam="2">  1       -2 0.13246281E+00 0.26562688E+04</pdfrwt>
<totfact> 0.22883861E+00</totfact>
</mgrwt>
</event>
<event>
12    1  0.1114484E-007  0.2856617E+04  0.7818608E-02  0.8285903E-01
         -2   -1    0    0    0  501 -0.00000000000E+00  0.00000000000E+00  0.55169838030E+03  0.55169838030E+03  0.00000000000E+00 0.  1.
          2   -1    0    0  501    0  0.00000000000E+00 -0.00000000000E+00 -0.36977909292E+04  0.36977909292E+04  0.00000000000E+00 0. -1.
         23    2    1    2    0    0  0.45982070744E+02 -0.12178733533E+04 -0.81378006485E+03  0.14683358240E+04  0.91881676596E+02 0.  0.
        254    2    1    2    0    0 -0.45982070744E+02  0.12178733533E+04 -0.23323124840E+04  0.27811534855E+04  0.89989073285E+03 0.  0.
        -24    2    4    4    0    0 -0.40170682570E+03  0.48412398825E+03 -0.14170624788E+04  0.15527349302E+04  0.84707052190E+02 0.  0.
         24    2    4    4    0    0  0.35572475496E+03  0.73374936508E+03 -0.91525000515E+03  0.12284185553E+04  0.80008392838E+02 0.  0.
         13    1    3    3    0    0  0.31951209307E+02 -0.86154456324E+03 -0.52446827953E+03  0.10091317508E+04  0.00000000000E+00 0. -1.
        -13    1    3    3    0    0  0.14030861437E+02 -0.35632879009E+03 -0.28931178532E+03  0.45920407320E+03  0.00000000000E+00 0.  1.
          4    1    6    6  502    0  0.92958814801E+02  0.23809379858E+03 -0.24096390459E+03  0.35127425395E+03  0.00000000000E+00 0. -1.
          1    1    5    5  503    0 -0.21982979431E+03  0.22128879387E+03 -0.77797701254E+03  0.83817784557E+03  0.00000000000E+00 0. -1.
         -2    1    5    5    0  503 -0.18187703139E+03  0.26283519438E+03 -0.63908546630E+03  0.71455708463E+03  0.00000000000E+00 0.  1.
         -3    1    6    6    0  502  0.26276594016E+03  0.49565556650E+03 -0.67428610056E+03  0.87714430131E+03  0.00000000000E+00 0.  1.
<mgrwt>
<rscale>  0 0.28566171E+04</rscale>
<asrwt>0</asrwt>
<pdfrwt beam="1">  1        2 0.56889092E+00 0.28566171E+04</pdfrwt>
<pdfrwt beam="2">  1       -2 0.84876673E-01 0.28566171E+04</pdfrwt>
<totfact> 0.61337965E-01</totfact>
</mgrwt>
</event>
<event>
12    1  0.1114484E-007  0.1532126E+04  0.7818608E-02  0.8863366E-01
          2   -1    0    0  501    0  0.00000000000E+00  0.00000000000E+00  0.18687434262E+04  0.18687434262E+04  0.00000000000E+00 0.  1.
         -2   -1    0    0    0  501 -0.00000000000E+00 -0.00000000000E+00 -0.31403581565E+03  0.31403581565E+03  0.00000000000E+00 0. -1.
         23    2    1    2    0    0 -0.22005087647E+03 -0.31122327313E+03  0.58271549351E+02  0.39532204664E+03  0.87187344975E+02 0.  0.
        254    2    1    2    0    0  0.22005087647E+03  0.31122327313E+03  0.14964360612E+04  0.17874571952E+04  0.90022220897E+03 0.  0.
        -24    2    4    4    0    0 -0.39891867278E+02  0.29141498065E+03  0.41581736741E+02  0.30726265029E+03  0.78531798719E+02 0.  0.
         24    2    4    4    0    0  0.25994274375E+03  0.19808292472E+02  0.14548543245E+04  0.14801945449E+04  0.80076132217E+02 0.  0.
         11    1    3    3    0    0 -0.76701161066E+02 -0.64890139372E+02  0.44779841640E+02  0.10999560225E+03  0.00000000000E+00 0.  1.
        -11    1    3    3    0    0 -0.14334971541E+03 -0.24633313375E+03  0.13491707711E+02  0.28532644439E+03  0.00000000000E+00 0. -1.
          4    1    6    6  502    0  0.13704957539E+03 -0.52560170736E+01  0.55775417495E+03  0.57436915960E+03  0.00000000000E+00 0. -1.
          3    1    5    5  503    0  0.79792331834E+00 -0.31409719405E+01 -0.53239593758E+01  0.62327305242E+01  0.00000000000E+00 0. -1.
         -4    1    5    5    0  503 -0.40689790596E+02  0.29455595259E+03  0.46905696117E+02  0.30102991977E+03  0.00000000000E+00 0.  1.
         -3    1    6    6    0  502  0.12289316836E+03  0.25064309545E+02  0.89710014953E+03  0.90582538534E+03  0.00000000000E+00 0.  1.
<mgrwt>
<rscale>  0 0.15321258E+04</rscale>
<asrwt>0</asrwt>
<pdfrwt beam="1">  1        2 0.28749898E+00 0.15321258E+04</pdfrwt>
<pdfrwt beam="2">  1       -2 0.48313203E-01 0.15321258E+04</pdfrwt>
<totfact> 0.30914452E+01</totfact>
</mgrwt>
</event>
<event>
12    1  0.1114484E-007  0.2280977E+04  0.7818608E-02  0.8485459E-01
         -2   -1    0    0    0  501 -0.00000000000E+00  0.00000000000E+00  0.13504922938E+04  0.13504922938E+04  0.00000000000E+00 0. -1.
          2   -1    0    0  501    0  0.00000000000E+00 -0.00000000000E+00 -0.96314105171E+03  0.96314105171E+03  0.00000000000E+00 0.  1.
         23    2    1    2    0    0  0.94135707489E+03 -0.57430401330E+02 -0.41299265661E+01  0.94792504462E+03  0.95359532707E+02 0.  0.
        254    2    1    2    0    0 -0.94135707489E+03  0.57430401330E+02  0.39148116867E+03  0.13657083009E+04  0.90689043677E+03 0.  0.
        -24    2    4    4    0    0 -0.45733390718E+03  0.47465908927E+03  0.17896712349E+03  0.68759420680E+03  0.79378890480E+02 0.  0.
         24    2    4    4    0    0 -0.48402316772E+03 -0.41722868794E+03  0.21251404518E+03  0.67811409411E+03  0.79487736770E+02 0.  0.
         11    1    3    3    0    0  0.72452981308E+02 -0.30372837364E+02  0.17038725857E+01  0.78580194271E+02  0.00000000000E+00 0.  1.
        -11    1    3    3    0    0  0.86890409359E+03 -0.27057563966E+02 -0.58337991518E+01  0.86934485035E+03  0.00000000000E+00 0. -1.
          2    1    6    6  502    0 -0.89502734672E+02 -0.53417462187E+02  0.59711627456E+02  0.12012344997E+03  0.00000000000E+00 0. -1.
          3    1    5    5  503    0 -0.61985718323E+00 -0.27226200485E+01  0.25427230687E+01  0.37765491470E+01  0.00000000000E+00 0. -1.
         -4    1    5    5    0  503 -0.45671404999E+03  0.47738170932E+03  0.17642440042E+03  0.68381765766E+03  0.00000000000E+00 0.  1.
         -1    1    6    6    0  502 -0.39452043304E+03 -0.36381122576E+03  0.15280241773E+03  0.55799064413E+03  0.00000000000E+00 0.  1.
<mgrwt>
<rscale>  0 0.22809775E+04</rscale>
<asrwt>0</asrwt>
<pdfrwt beam="1">  1        2 0.14817555E+00 0.22809775E+04</pdfrwt>
<pdfrwt beam="2">  1       -2 0.20776804E+00 0.22809775E+04</pdfrwt>
<totfact> 0.28598766E+00</totfact>
</mgrwt>
</event>
<event>
12    1  0.1114484E-007  0.1728320E+04  0.7818608E-02  0.8745375E-01
          2   -1    0    0  501    0  0.00000000000E+00  0.00000000000E+00  0.17277160943E+04  0.17277160943E+04  0.00000000000E+00 0. -1.
         -2   -1    0    0    0  501 -0.00000000000E+00 -0.00000000000E+00 -0.43223091894E+03  0.43223091894E+03  0.00000000000E+00 0.  1.
         23    2    1    2    0    0 -0.24976186145E+03  0.53946400470E+03  0.20061487739E+03  0.63393215575E+03  0.90671104861E+02 0.  0.
        254    2    1    2    0    0  0.24976186145E+03 -0.53946400470E+03  0.10948702980E+04  0.15260148575E+04  0.88123661755E+03 0.  0.
        -24    2    4    4    0    0  0.31863894304E+03 -0.53137773426E+03  0.12151771399E+04  0.13661768569E+04  0.76750573576E+02 0.  0.
         24    2    4    4    0    0 -0.68877081590E+02 -0.80862704442E+01 -0.12030684193E+03  0.15983800058E+03  0.79151816621E+02 0.  0.
         11    1    3    3    0    0 -0.18217586192E+03  0.38781908428E+03  0.18651278227E+03  0.46731007345E+03  0.00000000000E+00 0. -1.
        -11    1    3    3    0    0 -0.67585999535E+02  0.15164492042E+03  0.14102095120E+02  0.16662208230E+03  0.00000000000E+00 0.  1.
          4    1    6    6  502    0 -0.69955054451E+02  0.13374762663E+02 -0.11852279224E+03  0.13827597839E+03  0.00000000000E+00 0. -1.
          1    1    5    5  503    0  0.12385266242E+03 -0.27990683215E+03  0.58065227058E+03  0.65638736734E+03  0.00000000000E+00 0. -1.
         -2    1    5    5    0  503  0.19478628062E+03 -0.25147090211E+03  0.63452486931E+03  0.70978948957E+03  0.00000000000E+00 0.  1.
         -3    1    6    6    0  502  0.10779728615E+01 -0.21461033107E+02 -0.17840496952E+01  0.21562022188E+02  0.00000000000E+00 0.  1.
<mgrwt>
<rscale>  0 0.17283198E+04</rscale>
<asrwt>0</asrwt>
<pdfrwt beam="1">  1        2 0.26580247E+00 0.17283198E+04</pdfrwt>
<pdfrwt beam="2">  1       -2 0.66497065E-01 0.17283198E+04</pdfrwt>
<totfact> 0.18675715E+01</totfact>
</mgrwt>
</event>
<event>
12    1  0.1114484E-007  0.3263988E+04  0.7818608E-02  0.8172120E-01
         -2   -1    0    0    0  501 -0.00000000000E+00  0.00000000000E+00  0.24933144706E+04  0.24933144706E+04  0.00000000000E+00 0. -1.
          2   -1    0    0  501    0  0.00000000000E+00 -0.00000000000E+00 -0.10682181506E+04  0.10682181506E+04  0.00000000000E+00 0.  1.
         23    2    1    2    0    0 -0.12406765253E+04  0.76250795147E+02  0.16316075018E+04  0.20531919134E+04  0.91441616748E+02 0.  0.
        254    2    1    2    0    0  0.12406765253E+04 -0.76250795147E+02 -0.20651118187E+03  0.15083407078E+04  0.82906718575E+03 0.  0.
        -24    2    4    4    0    0  0.41768263925E+03 -0.22015535592E+02  0.31471809218E+03  0.52942448739E+03  0.79368377563E+02 0.  0.
         24    2    4    4    0    0  0.82299388602E+03 -0.54235259556E+02 -0.52122927405E+03  0.97891622043E+03  0.79602830906E+02 0.  0.
         13    1    3    3    0    0 -0.48572507980E+03 -0.31375255635E+01  0.68665065470E+03  0.84108728370E+03  0.00000000000E+00 0.  1.
        -13    1    3    3    0    0 -0.75495144547E+03  0.79388320711E+02  0.94495684709E+03  0.12121046297E+04  0.00000000000E+00 0. -1.
          4    1    6    6  502    0  0.41879568395E+03 -0.25687395968E+02 -0.31207585784E+03  0.52291587111E+03  0.00000000000E+00 0. -1.
          1    1    5    5  503    0  0.98759272770E+02 -0.33885387196E+02  0.55337598381E+02  0.11816879122E+03  0.00000000000E+00 0. -1.
         -2    1    5    5    0  503  0.31892336648E+03  0.11869851605E+02  0.25938049380E+03  0.41125569617E+03  0.00000000000E+00 0.  1.
         -3    1    6    6    0  502  0.40419820206E+03 -0.28547863587E+02 -0.20915341621E+03  0.45600034932E+03  0.00000000000E+00 0.  1.
<mgrwt>
<rscale>  0 0.32639876E+04</rscale>
<asrwt>0</asrwt>
<pdfrwt beam="1">  1        2 0.16434125E+00 0.32639876E+04</pdfrwt>
<pdfrwt beam="2">  1       -2 0.38358684E+00 0.32639876E+04</pdfrwt>
<totfact> 0.18114745E-01</totfact>
</mgrwt>
</event>
<event>
12    1  0.1114484E-007  0.2288670E+04  0.7818608E-02  0.8482402E-01
          1   -1    0    0  501    0  0.00000000000E+00  0.00000000000E+00  0.14068230490E+04  0.14068230490E+04  0.00000000000E+00 0. -1.
         -1   -1    0    0    0  501 -0.00000000000E+00 -0.00000000000E+00 -0.93082283213E+03  0.93082283213E+03  0.00000000000E+00 0.  1.
         23    2    1    2    0    0 -0.93156092422E+03 -0.14393993694E+03  0.41029235384E+03  0.10321080911E+04  0.91557824099E+02 0.  0.
        254    2    1    2    0    0  0.93156092422E+03  0.14393993694E+03  0.65707863027E+02  0.13055377900E+04  0.90088120022E+03 0.  0.
        -24    2    4    4    0    0  0.99238086201E+03  0.21242522170E+03  0.28275518138E+03  0.10563957040E+04  0.77956017752E+02 0.  0.
         24    2    4    4    0    0 -0.60819937792E+02 -0.68485284765E+02 -0.21704731836E+03  0.24914208603E+03  0.81073679830E+02 0.  0.
         13    1    3    3    0    0 -0.60310820449E+03 -0.48920016586E+02  0.26681363291E+03  0.66130340166E+03  0.00000000000E+00 0.  1.
        -13    1    3    3    0    0 -0.32845271973E+03 -0.95019920352E+02  0.14347872093E+03  0.37080468945E+03  0.00000000000E+00 0. -1.
          4    1    6    6  502    0  0.17336124020E+02 -0.28376688053E+02 -0.76276864720E+02  0.83210201973E+02  0.00000000000E+00 0. -1.
          3    1    5    5  503    0  0.77923528385E+03  0.16490579595E+03  0.25468136637E+03  0.83622015493E+03  0.00000000000E+00 0. -1.
         -4    1    5    5    0  503  0.21314557816E+03  0.47519425756E+02  0.28073815012E+02  0.22017554906E+03  0.00000000000E+00 0.  1.
         -3    1    6    6    0  502 -0.78156061812E+02 -0.40108596711E+02 -0.14077045364E+03  0.16593188405E+03  0.00000000000E+00 0.  1.
<mgrwt>
<rscale>  0 0.22886704E+04</rscale>
<asrwt>0</asrwt>
<pdfrwt beam="1">  1        1 0.21643431E+00 0.22886704E+04</pdfrwt>
<pdfrwt beam="2">  1       -1 0.14320351E+00 0.22886704E+04</pdfrwt>
<totfact> 0.27152143E+00</totfact>
</mgrwt>
</event>
<event>
12    1  0.1234587E-007  0.1516090E+04  0.7818608E-02  0.8873823E-01
         -2   -1    0    0    0  501 -0.00000000000E+00  0.00000000000E+00  0.54591168081E+03  0.54591168081E+03  0.00000000000E+00 0.  1.
          2   -1    0    0  501    0  0.00000000000E+00 -0.00000000000E+00 -0.10526098170E+04  0.10526098170E+04  0.00000000000E+00 0. -1.
         23    2    1    2    0    0 -0.62421091729E+02 -0.38474935339E+03  0.13661138133E+03  0.42290285903E+03  0.90860888392E+02 0.  0.
        254    2    1    2    0    0  0.62421091729E+02  0.38474935339E+03 -0.64330951751E+03  0.11756186388E+04  0.90349520799E+03 0.  0.
        -24    2    4    4    0    0  0.32989234606E+02  0.65905069927E+03 -0.57768015077E+03  0.88067696471E+03  0.80258618022E+02 0.  0.
         24    2    4    4    0    0  0.29431857123E+02 -0.27430134589E+03 -0.65629366738E+02  0.29494167405E+03  0.81092014055E+02 0.  0.
         11    1    3    3    0    0 -0.16848003673E+02 -0.98756155683E+02  0.79100685644E+02  0.12764619846E+03  0.00000000000E+00 0. -1.
        -11    1    3    3    0    0 -0.45573088055E+02 -0.28599319771E+03  0.57510695687E+02  0.29525666056E+03  0.00000000000E+00 0.  1.
          4    1    6    6  502    0 -0.23567018542E+02 -0.10370742647E+03 -0.56396950967E+01  0.10650089590E+03  0.00000000000E+00 0. -1.
          1    1    5    5  503    0  0.23487796337E+02  0.62978940611E+02 -0.76631673048E+02  0.10193349229E+03  0.00000000000E+00 0. -1.
         -2    1    5    5    0  503  0.95014382692E+01  0.59607175866E+03 -0.50104847773E+03  0.77874347242E+03  0.00000000000E+00 0.  1.
         -3    1    6    6    0  502  0.52998875664E+02 -0.17059391942E+03 -0.59989671641E+02  0.18844077814E+03  0.00000000000E+00 0.  1.
<mgrwt>
<rscale>  0 0.15160897E+04</rscale>
<asrwt>0</asrwt>
<pdfrwt beam="1">  1        2 0.16193997E+00 0.15160897E+04</pdfrwt>
<pdfrwt beam="2">  1       -2 0.83986413E-01 0.15160897E+04</pdfrwt>
<totfact> 0.27872681E+01</totfact>
</mgrwt>
</event>
<event>
12    1  0.1114484E-007  0.1711904E+04  0.7818608E-02  0.8754604E-01
          2   -1    0    0  501    0  0.00000000000E+00  0.00000000000E+00  0.31680420048E+04  0.31680420048E+04  0.00000000000E+00 0.  1.
         -2   -1    0    0    0  501 -0.00000000000E+00 -0.00000000000E+00 -0.23126390778E+03  0.23126390778E+03  0.00000000000E+00 0. -1.
         23    2    1    2    0    0  0.22190723799E+03 -0.55270209836E+03  0.14671098010E+04  0.15859552951E+04  0.90114362079E+02 0.  0.
        254    2    1    2    0    0 -0.22190723799E+03  0.55270209836E+03  0.14696682960E+04  0.18133506174E+04  0.87954143140E+03 0.  0.
        -24    2    4    4    0    0 -0.37122728808E+03 -0.47962589593E+02  0.85620319319E+03  0.93807035674E+03  0.82352758009E+02 0.  0.
         24    2    4    4    0    0  0.14932005009E+03  0.60066468795E+03  0.61346510283E+03  0.87528026067E+03  0.81740795325E+02 0.  0.
         13    1    3    3    0    0  0.22448861354E+03 -0.51302212791E+03  0.14015226083E+04  0.15092555990E+04  0.00000000000E+00 0. -1.
        -13    1    3    3    0    0 -0.25813755456E+01 -0.39679970452E+02  0.65587192652E+02  0.76699696184E+02  0.00000000000E+00 0.  1.
          4    1    6    6  502    0  0.12991752142E+03  0.35941667773E+03  0.38383155450E+03  0.54165078494E+03  0.00000000000E+00 0. -1.
          3    1    5    5  503    0 -0.37063249980E+03 -0.40388071709E+02  0.85031315806E+03  0.92845684500E+03  0.00000000000E+00 0. -1.
         -4    1    5    5    0  503 -0.59478827951E+00 -0.75745178840E+01  0.58900351265E+01  0.96135117447E+01  0.00000000000E+00 0.  1.
         -3    1    6    6    0  502  0.19402528673E+02  0.24124801023E+03  0.22963354833E+03  0.33362947573E+03  0.00000000000E+00 0.  1.
<mgrwt>
<rscale>  0 0.17119039E+04</rscale>
<asrwt>0</asrwt>
<pdfrwt beam="1">  1        2 0.48739105E+00 0.17119039E+04</pdfrwt>
<pdfrwt beam="2">  1       -2 0.35579065E-01 0.17119039E+04</pdfrwt>
<totfact> 0.96600901E+00</totfact>
</mgrwt>
</event>
<event>
12    1  0.1114484E-007  0.1520988E+04  0.7818608E-02  0.8870615E-01
          2   -1    0    0  501    0  0.00000000000E+00  0.00000000000E+00  0.16915713773E+04  0.16915713773E+04  0.00000000000E+00 0. -1.
         -2   -1    0    0    0  501 -0.00000000000E+00 -0.00000000000E+00 -0.34190190246E+03  0.34190190246E+03  0.00000000000E+00 0.  1.
         23    2    1    2    0    0 -0.46237749314E+03  0.10901441404E+03  0.28319936793E+03  0.56066712503E+03  0.92025292460E+02 0.  0.
        254    2    1    2    0    0  0.46237749314E+03 -0.10901441404E+03  0.10664701069E+04  0.14728061547E+04  0.89784318889E+03 0.  0.
        -24    2    4    4    0    0  0.36765328043E+03  0.10596198304E+03  0.12890657715E+02  0.39049969653E+03  0.76986800608E+02 0.  0.
         24    2    4    4    0    0  0.94724212712E+02 -0.21497639708E+03  0.10535794492E+04  0.10823064582E+04  0.78549894565E+02 0.  0.
         13    1    3    3    0    0 -0.12864529182E+03  0.73202928059E+02  0.78864450386E+02  0.16771368853E+03  0.00000000000E+00 0. -1.
        -13    1    3    3    0    0 -0.33373220132E+03  0.35811485978E+02  0.20433491755E+03  0.39295343650E+03  0.00000000000E+00 0.  1.
          2    1    6    6  502    0  0.21972835982E+02 -0.13649552737E+03  0.51744005546E+03  0.53559130455E+03  0.00000000000E+00 0. -1.
          3    1    5    5  503    0  0.22217923682E+03  0.45184481020E+02  0.40855903156E+02  0.23037893875E+03  0.00000000000E+00 0. -1.
         -4    1    5    5    0  503  0.14547404361E+03  0.60777502021E+02 -0.27965245440E+02  0.16012075777E+03  0.00000000000E+00 0.  1.
         -3    1    6    6    0  502  0.72751376730E+02 -0.78480869709E+02  0.53613939370E+03  0.54671515363E+03  0.00000000000E+00 0.  1.
<mgrwt>
<rscale>  0 0.15209885E+04</rscale>
<asrwt>0</asrwt>
<pdfrwt beam="1">  1        2 0.26024175E+00 0.15209885E+04</pdfrwt>
<pdfrwt beam="2">  1       -2 0.52600294E-01 0.15209885E+04</pdfrwt>
<totfact> 0.32607618E+01</totfact>
</mgrwt>
</event>
<event>
12    1  0.1114484E-007  0.3911959E+04  0.7818608E-02  0.8022547E-01
         -2   -1    0    0    0  501 -0.00000000000E+00  0.00000000000E+00  0.97004435521E+03  0.97004435521E+03  0.00000000000E+00 0.  1.
          2   -1    0    0  501    0  0.00000000000E+00 -0.00000000000E+00 -0.39440004929E+04  0.39440004929E+04  0.00000000000E+00 0. -1.
         23    2    1    2    0    0  0.10860885443E+04  0.14895910745E+04 -0.11703647464E+04  0.21855623971E+04  0.91975305971E+02 0.  0.
        254    2    1    2    0    0 -0.10860885443E+04 -0.14895910745E+04 -0.18035913913E+04  0.27284824510E+04  0.89062039232E+03 0.  0.
        -24    2    4    4    0    0 -0.30692012766E+03 -0.48453393766E+03 -0.11699197074E+04  0.13054277908E+04  0.80352310709E+02 0.  0.
         24    2    4    4    0    0 -0.77916841669E+03 -0.10050571368E+04 -0.63367168394E+03  0.14230546602E+04  0.79381943668E+02 0.  0.
         11    1    3    3    0    0  0.33725077152E+03  0.40240017045E+03 -0.35875749608E+03  0.63590165990E+03  0.00000000000E+00 0. -1.
        -11    1    3    3    0    0  0.74883777283E+03  0.10871909040E+04 -0.81160725027E+03  0.15496607372E+04  0.00000000000E+00 0.  1.
          4    1    6    6  502    0 -0.62712241211E+03 -0.78249175872E+03 -0.46749049403E+03  0.11064010278E+04  0.00000000000E+00 0. -1.
          3    1    5    5  503    0 -0.27769083198E+03 -0.41152214922E+03 -0.10574608352E+04  0.11681977980E+04  0.00000000000E+00 0. -1.
         -4    1    5    5    0  503 -0.29229295676E+02 -0.73011788437E+02 -0.11245887222E+03  0.13722999278E+03  0.00000000000E+00 0.  1.
         -1    1    6    6    0  502 -0.15204600458E+03 -0.22256537807E+03 -0.16618118991E+03  0.31665363239E+03  0.00000000000E+00 0.  1.
<mgrwt>
<rscale>  0 0.39119588E+04</rscale>
<asrwt>0</asrwt>
<pdfrwt beam="1">  1        2 0.60676930E+00 0.39119588E+04</pdfrwt>
<pdfrwt beam="2">  1       -2 0.14923759E+00 0.39119588E+04</pdfrwt>
<totfact> 0.91249529E-02</totfact>
</mgrwt>
</event>
<event>
12    1  0.1114484E-007  0.1182670E+04  0.7818608E-02  0.9128162E-01
         -2   -1    0    0    0  501 -0.00000000000E+00  0.00000000000E+00  0.21029800125E+03  0.21029800125E+03  0.00000000000E+00 0.  1.
          2   -1    0    0  501    0  0.00000000000E+00 -0.00000000000E+00 -0.16627689070E+04  0.16627689070E+04  0.00000000000E+00 0. -1.
         23    2    1    2    0    0  0.30871059286E+02 -0.21983167622E+03 -0.23844213872E+03  0.33838919348E+03  0.91507401736E+02 0.  0.
        254    2    1    2    0    0 -0.30871059286E+02  0.21983167622E+03 -0.12140287670E+04  0.15346777147E+04  0.91219014074E+03 0.  0.
        -24    2    4    4    0    0 -0.13663062714E+03  0.19365310327E+02  0.10643094266E+03  0.19239891452E+03  0.81528235816E+02 0.  0.
         24    2    4    4    0    0  0.10575956785E+03  0.20046636590E+03 -0.13204597097E+04  0.13422788002E+04  0.82016356015E+02 0.  0.
         11    1    3    3    0    0  0.45199781401E+02 -0.22005747479E+03 -0.23106179874E+03  0.32226986717E+03  0.00000000000E+00 0. -1.
        -11    1    3    3    0    0 -0.14328722115E+02  0.22579856468E+00 -0.73803399862E+01  0.16119326312E+02  0.00000000000E+00 0.  1.
          2    1    6    6  502    0  0.97722035787E+02  0.99310907520E+02 -0.73460136959E+03  0.74769741529E+03  0.00000000000E+00 0. -1.
          3    1    5    5  503    0  0.66081445785E+01 -0.46618805363E+00  0.26206559205E+02  0.27030883290E+02  0.00000000000E+00 0. -1.
         -4    1    5    5    0  503 -0.14323877172E+03  0.19831498381E+02  0.80224383457E+02  0.16536803123E+03  0.00000000000E+00 0.  1.
         -1    1    6    6    0  502  0.80375320656E+01  0.10115545838E+03 -0.58585834007E+03  0.59458138494E+03  0.00000000000E+00 0.  1.
<mgrwt>
<rscale>  0 0.11826698E+04</rscale>
<asrwt>0</asrwt>
<pdfrwt beam="1">  1        2 0.25581060E+00 0.11826698E+04</pdfrwt>
<pdfrwt beam="2">  1       -2 0.32353538E-01 0.11826698E+04</pdfrwt>
<totfact> 0.90388552E+01</totfact>
</mgrwt>
</event>
<event>
12    1  0.1114484E-007  0.1832442E+04  0.7818608E-02  0.8689235E-01
          1   -1    0    0  501    0  0.00000000000E+00  0.00000000000E+00  0.12128600138E+04  0.12128600138E+04  0.00000000000E+00 0. -1.
         -1   -1    0    0    0  501 -0.00000000000E+00 -0.00000000000E+00 -0.69213336918E+03  0.69213336918E+03  0.00000000000E+00 0.  1.
         23    2    1    2    0    0  0.49252443707E+03 -0.45895781957E+03  0.36962216320E+03  0.77377149892E+03  0.94229442101E+02 0.  0.
        254    2    1    2    0    0 -0.49252443707E+03  0.45895781957E+03  0.15110448139E+03  0.11312218840E+04  0.89644173562E+03 0.  0.
        -24    2    4    4    0    0 -0.80407786093E+02 -0.15013325602E+03 -0.23148798283E+03  0.29806351848E+03  0.79055475643E+02 0.  0.
         24    2    4    4    0    0 -0.41211665098E+03  0.60909107559E+03  0.38259246422E+03  0.83315836555E+03  0.83329442747E+02 0.  0.
         13    1    3    3    0    0  0.38482104485E+03 -0.37797559745E+03  0.33383212453E+03  0.63434744123E+03  0.00000000000E+00 0. -1.
        -13    1    3    3    0    0  0.10770339222E+03 -0.80982222118E+02  0.35790038674E+02  0.13942405769E+03  0.00000000000E+00 0.  1.
          2    1    6    6  502    0 -0.82487097136E+02  0.18784482906E+03  0.10081096319E+03  0.22858838837E+03  0.00000000000E+00 0. -1.
          3    1    5    5  503    0 -0.91875694376E+02 -0.12103803030E+03 -0.16341133442E+03  0.22314706409E+03  0.00000000000E+00 0. -1.
         -4    1    5    5    0  503  0.11467908283E+02 -0.29095225722E+02 -0.68076648409E+02  0.74916454393E+02  0.00000000000E+00 0.  1.
         -1    1    6    6    0  502 -0.32962955384E+03  0.42124624653E+03  0.28178150103E+03  0.60456997717E+03  0.00000000000E+00 0.  1.
<mgrwt>
<rscale>  0 0.18324420E+04</rscale>
<asrwt>0</asrwt>
<pdfrwt beam="1">  1        1 0.18659385E+00 0.18324420E+04</pdfrwt>
<pdfrwt beam="2">  1       -1 0.10648206E+00 0.18324420E+04</pdfrwt>
<totfact> 0.81079898E+00</totfact>
</mgrwt>
</event>
<event>
12    1  0.1114484E-007  0.4230249E+04  0.7818608E-02  0.7959643E-01
          1   -1    0    0  501    0  0.00000000000E+00  0.00000000000E+00  0.22363337312E+04  0.22363337312E+04  0.00000000000E+00 0. -1.
         -1   -1    0    0    0  501 -0.00000000000E+00 -0.00000000000E+00 -0.20004850294E+04  0.20004850294E+04  0.00000000000E+00 0.  1.
         23    2    1    2    0    0 -0.60499395147E+03  0.17581576157E+04  0.89907191433E+03  0.20672489691E+04  0.89733551728E+02 0.  0.
        254    2    1    2    0    0  0.60499395147E+03 -0.17581576157E+04 -0.66322321253E+03  0.21695697914E+04  0.90001787060E+03 0.  0.
        -24    2    4    4    0    0  0.68477234632E+03 -0.87694500635E+03 -0.62839209167E+03  0.12804726685E+04  0.82388854809E+02 0.  0.
         24    2    4    4    0    0 -0.79778394849E+02 -0.88121260933E+03 -0.34831120855E+02  0.88909712296E+03  0.79876354101E+02 0.  0.
         11    1    3    3    0    0 -0.49851358928E+03  0.13565942999E+04  0.72290143753E+03  0.16159982616E+04  0.00000000000E+00 0.  1.
        -11    1    3    3    0    0 -0.10648036219E+03  0.40156331578E+03  0.17617047680E+03  0.45125070748E+03  0.00000000000E+00 0. -1.
          4    1    6    6  502    0 -0.34183983691E+02 -0.71330550525E+03 -0.37217014936E+02  0.71509327697E+03  0.00000000000E+00 0. -1.
          3    1    5    5  503    0  0.45831447734E+03 -0.58138668522E+03 -0.46200437822E+03  0.87264579492E+03  0.00000000000E+00 0. -1.
         -4    1    5    5    0  503  0.22645786898E+03 -0.29555832112E+03 -0.16638771346E+03  0.40782687356E+03  0.00000000000E+00 0.  1.
         -3    1    6    6    0  502 -0.45594411157E+02 -0.16790710408E+03  0.23858940812E+01  0.17400384599E+03  0.00000000000E+00 0.  1.
<mgrwt>
<rscale>  0 0.42302492E+04</rscale>
<asrwt>0</asrwt>
<pdfrwt beam="1">  1        1 0.34405134E+00 0.42302492E+04</pdfrwt>
<pdfrwt beam="2">  1       -1 0.30776693E+00 0.42302492E+04</pdfrwt>
<totfact> 0.46470335E-02</totfact>
</mgrwt>
</event>
<event>
12    1  0.1114484E-007  0.1255126E+04  0.7818608E-02  0.9065927E-01
          2   -1    0    0  501    0  0.00000000000E+00  0.00000000000E+00  0.20743027654E+04  0.20743027654E+04  0.00000000000E+00 0. -1.
         -2   -1    0    0    0  501 -0.00000000000E+00 -0.00000000000E+00 -0.18986407284E+03  0.18986407284E+03  0.00000000000E+00 0.  1.
         23    2    1    2    0    0 -0.24518009161E+03 -0.59962630182E+02  0.19240420180E+03  0.33176946259E+03  0.96658186903E+02 0.  0.
        254    2    1    2    0    0  0.24518009161E+03  0.59962630182E+02  0.16920344907E+04  0.19323973756E+04  0.89859340368E+03 0.  0.
        -24    2    4    4    0    0  0.56789027877E+03  0.93917434444E+02  0.88540878131E+03  0.10590672409E+04  0.79717360320E+02 0.  0.
         24    2    4    4    0    0 -0.32271018716E+03 -0.33954804262E+02  0.80662570943E+03  0.87333013472E+03  0.82253847719E+02 0.  0.
         13    1    3    3    0    0 -0.52511114126E+02 -0.50102223722E+02  0.81939472355E+02  0.10946107554E+03  0.00000000000E+00 0. -1.
        -13    1    3    3    0    0 -0.19266897748E+03 -0.98604064601E+01  0.11046472944E+03  0.22230838705E+03  0.00000000000E+00 0.  1.
          4    1    6    6  502    0 -0.90295078458E+01  0.60519003055E+01  0.81916067793E+02  0.82634131398E+02  0.00000000000E+00 0. -1.
          3    1    5    5  503    0  0.13182204463E+03  0.25787157568E+02  0.27222565948E+03  0.30356027182E+03  0.00000000000E+00 0. -1.
         -4    1    5    5    0  503  0.43606823414E+03  0.68130276877E+02  0.61318312183E+03  0.75550696910E+03  0.00000000000E+00 0.  1.
         -3    1    6    6    0  502 -0.31368067931E+03 -0.40006704568E+02  0.72470964164E+03  0.79069600332E+03  0.00000000000E+00 0.  1.
<mgrwt>
<rscale>  0 0.12551264E+04</rscale>
<asrwt>0</asrwt>
<pdfrwt beam="1">  1        2 0.31912349E+00 0.12551264E+04</pdfrwt>
<pdfrwt beam="2">  1       -2 0.29209859E-01 0.12551264E+04</pdfrwt>
<totfact> 0.64452667E+01</totfact>
</mgrwt>
</event>
<event>
12    1  0.1114484E-007  0.1920959E+04  0.7818608E-02  0.8644494E-01
         -1   -1    0    0    0  501 -0.00000000000E+00  0.00000000000E+00  0.68239321191E+03  0.68239321191E+03  0.00000000000E+00 0.  1.
          1   -1    0    0  501    0  0.00000000000E+00 -0.00000000000E+00 -0.13518900540E+04  0.13518900540E+04  0.00000000000E+00 0. -1.
         23    2    1    2    0    0  0.20817348335E+03  0.29755285557E+02 -0.10136678235E+04  0.10393104133E+04  0.91772014876E+02 0.  0.
        254    2    1    2    0    0 -0.20817348335E+03 -0.29755285557E+02  0.34417098144E+03  0.99497285253E+03  0.90955798970E+03 0.  0.
        -24    2    4    4    0    0  0.26294854975E+03  0.37327564694E+01  0.42763586701E+03  0.50872678354E+03  0.82308154190E+02 0.  0.
         24    2    4    4    0    0 -0.47112203310E+03 -0.33488042027E+02 -0.83464885567E+02  0.48624606900E+03  0.79946441218E+02 0.  0.
         11    1    3    3    0    0  0.19384908551E+03  0.25406243322E+02 -0.10003437360E+04  0.10192696087E+04  0.00000000000E+00 0. -1.
        -11    1    3    3    0    0  0.14324397832E+02  0.43490422356E+01 -0.13324087501E+02  0.20040804608E+02  0.00000000000E+00 0.  1.
          4    1    6    6  502    0 -0.15358092053E+03 -0.40330431680E+02 -0.51956517639E+02  0.16707220773E+03  0.00000000000E+00 0. -1.
          3    1    5    5  503    0  0.19315461110E+03  0.32373574149E+02  0.34589691956E+03  0.39749393839E+03  0.00000000000E+00 0. -1.
         -4    1    5    5    0  503  0.69793938650E+02 -0.28640817679E+02  0.81738947444E+02  0.11123284514E+03  0.00000000000E+00 0.  1.
         -3    1    6    6    0  502 -0.31754111257E+03  0.68423896531E+01 -0.31508367928E+02  0.31917386127E+03  0.00000000000E+00 0.  1.
<mgrwt>
<rscale>  0 0.19209587E+04</rscale>
<asrwt>0</asrwt>
<pdfrwt beam="1">  1        1 0.20798309E+00 0.19209587E+04</pdfrwt>
<pdfrwt beam="2">  1       -1 0.10498357E+00 0.19209587E+04</pdfrwt>
<totfact> 0.66083443E+00</totfact>
</mgrwt>
</event>
<event>
12    1  0.1114484E-007  0.2016416E+04  0.7818608E-02  0.8598984E-01
         -2   -1    0    0    0  501 -0.00000000000E+00  0.00000000000E+00  0.23368599601E+03  0.23368599601E+03  0.00000000000E+00 0.  1.
          2   -1    0    0  501    0  0.00000000000E+00 -0.00000000000E+00 -0.43497821257E+04  0.43497821257E+04  0.00000000000E+00 0. -1.
         23    2    1    2    0    0  0.51825985031E+03 -0.48616118388E+03 -0.82188762493E+03  0.10903591459E+04  0.91857660699E+02 0.  0.
        254    2    1    2    0    0 -0.51825985031E+03  0.48616118388E+03 -0.32942085047E+04  0.34931089758E+04  0.91926855435E+03 0.  0.
        -24    2    4    4    0    0  0.10064419844E+03  0.25332093614E+03 -0.21534560419E+04  0.21721368485E+04  0.80652419540E+02 0.  0.
         24    2    4    4    0    0 -0.61890404875E+03  0.23284024775E+03 -0.11407524628E+04  0.13209721273E+04  0.79964849616E+02 0.  0.
         13    1    3    3    0    0  0.45893144718E+03 -0.46405429094E+03 -0.76068537056E+03  0.10023006990E+04  0.00000000000E+00 0.  1.
        -13    1    3    3    0    0  0.59328403133E+02 -0.22106892940E+02 -0.61202254373E+02  0.88058446921E+02  0.00000000000E+00 0. -1.
          2    1    6    6  502    0 -0.26722851875E+02 -0.14473183584E+01 -0.72669325925E+02  0.77440535078E+02  0.00000000000E+00 0. -1.
          1    1    5    5  503    0 -0.12950814535E+02  0.13714349551E+02 -0.16634654584E+03  0.16741260494E+03  0.00000000000E+00 0. -1.
         -2    1    5    5    0  503  0.11359501297E+03  0.23960658658E+03 -0.19871094961E+04  0.20047242435E+04  0.00000000000E+00 0.  1.
         -1    1    6    6    0  502 -0.59218119687E+03  0.23428756611E+03 -0.10680831369E+04  0.12435315923E+04  0.00000000000E+00 0.  1.
<mgrwt>
<rscale>  0 0.20164158E+04</rscale>
<asrwt>0</asrwt>
<pdfrwt beam="1">  1        2 0.66919725E+00 0.20164158E+04</pdfrwt>
<pdfrwt beam="2">  1       -2 0.35951692E-01 0.20164158E+04</pdfrwt>
<totfact> 0.11702044E+00</totfact>
</mgrwt>
</event>
<event>
12    1  0.1114484E-007  0.2011221E+04  0.7818608E-02  0.8601393E-01
         -2   -1    0    0    0  501 -0.00000000000E+00  0.00000000000E+00  0.48789735815E+03  0.48789735815E+03  0.00000000000E+00 0.  1.
          2   -1    0    0  501    0  0.00000000000E+00 -0.00000000000E+00 -0.20726736430E+04  0.20726736430E+04  0.00000000000E+00 0. -1.
         23    2    1    2    0    0 -0.42339960615E+03  0.32326935408E+03 -0.14070859010E+04  0.15072917477E+04  0.90925123270E+02 0.  0.
        254    2    1    2    0    0  0.42339960615E+03 -0.32326935408E+03 -0.17769038389E+03  0.10532792535E+04  0.89109652203E+03 0.  0.
        -24    2    4    4    0    0  0.52145729819E+03 -0.56020184923E+03 -0.13203049217E+03  0.78081103412E+03  0.80560501682E+02 0.  0.
         24    2    4    4    0    0 -0.98057692047E+02  0.23693249514E+03 -0.45659891718E+02  0.27246821939E+03  0.80011165730E+02 0.  0.
         11    1    3    3    0    0 -0.36306569132E+03  0.23299221803E+03 -0.11475024567E+04  0.12259135198E+04  0.00000000000E+00 0. -1.
        -11    1    3    3    0    0 -0.60333914829E+02  0.90277136051E+02 -0.25958344431E+03  0.28137822789E+03  0.00000000000E+00 0.  1.
          4    1    6    6  502    0  0.41315555169E+01  0.67568380387E+02  0.61999573890E+01  0.67977902665E+02  0.00000000000E+00 0. -1.
          1    1    5    5  503    0  0.11072559555E+03 -0.79392133776E+02 -0.86023484952E+01  0.13651838270E+03  0.00000000000E+00 0. -1.
         -2    1    5    5    0  503  0.41073170264E+03 -0.48080971545E+03 -0.12342814367E+03  0.64429265142E+03  0.00000000000E+00 0.  1.
         -3    1    6    6    0  502 -0.10218924756E+03  0.16936411476E+03 -0.51859849107E+02  0.20449031672E+03  0.00000000000E+00 0.  1.
<mgrwt>
<rscale>  0 0.20112205E+04</rscale>
<asrwt>0</asrwt>
<pdfrwt beam="1">  1        2 0.31887288E+00 0.20112205E+04</pdfrwt>
<pdfrwt beam="2">  1       -2 0.75061130E-01 0.20112205E+04</pdfrwt>
<totfact> 0.90038964E+00</totfact>
</mgrwt>
</event>
<event>
12    1  0.1114484E-007  0.1256157E+04  0.7818608E-02  0.9065074E-01
         -1   -1    0    0    0  501 -0.00000000000E+00  0.00000000000E+00  0.85578073985E+03  0.85578073985E+03  0.00000000000E+00 0.  1.
          1   -1    0    0  501    0  0.00000000000E+00 -0.00000000000E+00 -0.46096256750E+03  0.46096256750E+03  0.00000000000E+00 0. -1.
         23    2    1    2    0    0  0.13564415145E+03 -0.18471991217E+03  0.25538322950E+03  0.35487256615E+03  0.90516089827E+02 0.  0.
        254    2    1    2    0    0 -0.13564415145E+03  0.18471991217E+03  0.13943494286E+03  0.96187074120E+03  0.92370581773E+03 0.  0.
        -24    2    4    4    0    0  0.15238611621E+02  0.25238096564E+03  0.49536356277E+03  0.56166972230E+03  0.78482166943E+02 0.  0.
         24    2    4    4    0    0 -0.15088276307E+03 -0.67661053470E+02 -0.35592861991E+03  0.40020101890E+03  0.78307386042E+02 0.  0.
         11    1    3    3    0    0  0.13078929373E+03 -0.15478213694E+03  0.17081520338E+03  0.26503053216E+03  0.00000000000E+00 0.  1.
        -11    1    3    3    0    0  0.48548577212E+01 -0.29937775235E+02  0.84568026121E+02  0.89842033990E+02  0.00000000000E+00 0. -1.
          4    1    6    6  502    0 -0.18624282262E+02 -0.43204669880E+02 -0.71741791109E+02  0.85792726852E+02  0.00000000000E+00 0. -1.
          3    1    5    5  503    0 -0.15818071975E+02  0.19553070590E+03  0.32773019047E+03  0.38195490061E+03  0.00000000000E+00 0. -1.
         -4    1    5    5    0  503  0.31056683596E+02  0.56850259740E+02  0.16763337230E+03  0.17971482169E+03  0.00000000000E+00 0.  1.
         -3    1    6    6    0  502 -0.13225848081E+03 -0.24456383590E+02 -0.28418682880E+03  0.31440829205E+03  0.00000000000E+00 0.  1.
<mgrwt>
<rscale>  0 0.12561575E+04</rscale>
<asrwt>0</asrwt>
<pdfrwt beam="1">  1        1 0.70917318E-01 0.12561575E+04</pdfrwt>
<pdfrwt beam="2">  1       -1 0.13165858E+00 0.12561575E+04</pdfrwt>
<totfact> 0.23995166E+01</totfact>
</mgrwt>
</event>
<event>
12    1  0.1114484E-007  0.3284466E+04  0.7818608E-02  0.8166859E-01
          2   -1    0    0  501    0  0.00000000000E+00  0.00000000000E+00  0.27848930501E+04  0.27848930501E+04  0.00000000000E+00 0. -1.
         -2   -1    0    0    0  501 -0.00000000000E+00 -0.00000000000E+00 -0.96841366291E+03  0.96841366291E+03  0.00000000000E+00 0.  1.
         23    2    1    2    0    0 -0.53378278839E+03  0.14082522967E+04  0.10548798793E+04  0.18410257796E+04  0.92226705009E+02 0.  0.
        254    2    1    2    0    0  0.53378278839E+03 -0.14082522967E+04  0.76159950792E+03  0.19122809334E+04  0.89926968219E+03 0.  0.
        -24    2    4    4    0    0  0.89487742025E+02  0.10567332670E+03  0.14659095968E+03  0.21702531557E+03  0.80225745173E+02 0.  0.
         24    2    4    4    0    0  0.44429504636E+03 -0.15139256234E+04  0.61500854823E+03  0.16952556178E+04  0.79291953186E+02 0.  0.
         13    1    3    3    0    0 -0.32730175678E+03  0.79035743598E+03  0.64455392342E+03  0.10710934025E+04  0.00000000000E+00 0.  1.
        -13    1    3    3    0    0 -0.20648103161E+03  0.61789486075E+03  0.41032595586E+03  0.76993237716E+03  0.00000000000E+00 0. -1.
          2    1    6    6  502    0  0.28059181595E+03 -0.89501616006E+03  0.32792675828E+03  0.99364060542E+03  0.00000000000E+00 0. -1.
          3    1    5    5  503    0  0.50417426114E+02  0.76467503755E+02  0.14070716841E+03  0.16789193914E+03  0.00000000000E+00 0. -1.
         -4    1    5    5    0  503  0.39070315912E+02  0.29205822946E+02  0.58837912703E+01  0.49133376427E+02  0.00000000000E+00 0.  1.
         -1    1    6    6    0  502  0.16370323042E+03 -0.61890946337E+03  0.28708178995E+03  0.70161501239E+03  0.00000000000E+00 0.  1.
<mgrwt>
<rscale>  0 0.32844655E+04</rscale>
<asrwt>0</asrwt>
<pdfrwt beam="1">  1        2 0.42844508E+00 0.32844655E+04</pdfrwt>
<pdfrwt beam="2">  1       -2 0.14898672E+00 0.32844655E+04</pdfrwt>
<totfact> 0.60216871E-01</totfact>
</mgrwt>
</event>
<event>
12    1  0.1114484E-007  0.2014029E+04  0.7818608E-02  0.8600089E-01
          1   -1    0    0  501    0  0.00000000000E+00  0.00000000000E+00  0.90491772935E+03  0.90491772935E+03  0.00000000000E+00 0. -1.
         -1   -1    0    0    0  501 -0.00000000000E+00 -0.00000000000E+00 -0.11206306564E+04  0.11206306564E+04  0.00000000000E+00 0.  1.
         23    2    1    2    0    0  0.41294335445E+03  0.12780832612E+03 -0.76226591193E+03  0.88128415991E+03  0.93569588080E+02 0.  0.
        254    2    1    2    0    0 -0.41294335445E+03 -0.12780832612E+03  0.54655298490E+03  0.11442642258E+04  0.90761405396E+03 0.  0.
        -24    2    4    4    0    0 -0.55077089287E+03 -0.33331752789E+03  0.59396992357E+03  0.87940083344E+03  0.78079478268E+02 0.  0.
         24    2    4    4    0    0  0.13782753842E+03  0.20550920177E+03 -0.47416938663E+02  0.26486339237E+03  0.81693256677E+02 0.  0.
         13    1    3    3    0    0  0.22919065063E+03  0.35637446251E+02 -0.33923727617E+03  0.41095049757E+03  0.00000000000E+00 0. -1.
        -13    1    3    3    0    0  0.18375270381E+03  0.92170879868E+02 -0.42302863577E+03  0.47033366234E+03  0.00000000000E+00 0.  1.
          4    1    6    6  502    0  0.10306461979E+03  0.16086143625E+03 -0.13685027071E-01  0.19104637582E+03  0.00000000000E+00 0. -1.
          3    1    5    5  503    0 -0.50009713824E+03 -0.32174955908E+03  0.52659127145E+03  0.79430365328E+03  0.00000000000E+00 0. -1.
         -4    1    5    5    0  503 -0.50673754623E+02 -0.11567968808E+02  0.67378652121E+02  0.85097180162E+02  0.00000000000E+00 0.  1.
         -3    1    6    6    0  502  0.34762918624E+02  0.44647765516E+02 -0.47403253636E+02  0.73817016549E+02  0.00000000000E+00 0.  1.
<mgrwt>
<rscale>  0 0.20140293E+04</rscale>
<asrwt>0</asrwt>
<pdfrwt beam="1">  1        1 0.13921811E+00 0.20140293E+04</pdfrwt>
<pdfrwt beam="2">  1       -1 0.17240472E+00 0.20140293E+04</pdfrwt>
<totfact> 0.39466030E+00</totfact>
</mgrwt>
</event>
<event>
12    1  0.1114484E-007  0.1824511E+04  0.7818608E-02  0.8693372E-01
         -1   -1    0    0    0  501 -0.00000000000E+00  0.00000000000E+00  0.40644274670E+03  0.40644274670E+03  0.00000000000E+00 0.  1.
          1   -1    0    0  501    0  0.00000000000E+00 -0.00000000000E+00 -0.20475456575E+04  0.20475456575E+04  0.00000000000E+00 0. -1.
         23    2    1    2    0    0 -0.39432867040E+02 -0.53912443386E+03 -0.50914628855E+02  0.55097364059E+03  0.93645859516E+02 0.  0.
        254    2    1    2    0    0  0.39432867040E+02  0.53912443386E+03 -0.15901882820E+04  0.19030147636E+04  0.89473812498E+03 0.  0.
        -24    2    4    4    0    0  0.21433896914E+03  0.56556456303E+03 -0.15960509951E+04  0.17085481933E+04  0.77160100755E+02 0.  0.
         24    2    4    4    0    0 -0.17490610210E+03 -0.26440129167E+02  0.58627131250E+01  0.19446657036E+03  0.80570780066E+02 0.  0.
         13    1    3    3    0    0 -0.66884577363E+02 -0.40228299360E+03 -0.54043844116E+02  0.41137074606E+03  0.00000000000E+00 0.  1.
        -13    1    3    3    0    0  0.27451710323E+02 -0.13684144027E+03  0.31292152615E+01  0.13960289453E+03  0.00000000000E+00 0. -1.
          2    1    6    6  502    0 -0.13272163892E+03 -0.12276287954E+02 -0.30810836833E+02  0.13680295447E+03  0.00000000000E+00 0. -1.
          1    1    5    5  503    0  0.20522349336E+03  0.55532564336E+03 -0.15808803993E+04  0.16881013267E+04  0.00000000000E+00 0. -1.
         -2    1    5    5    0  503  0.91154757804E+01  0.10238919668E+02 -0.15170595770E+02  0.20446866525E+02  0.00000000000E+00 0.  1.
         -1    1    6    6    0  502 -0.42184463174E+02 -0.14163841213E+02  0.36673549958E+02  0.57663615892E+02  0.00000000000E+00 0.  1.
<mgrwt>
<rscale>  0 0.18245110E+04</rscale>
<asrwt>0</asrwt>
<pdfrwt beam="1">  1        1 0.31500703E+00 0.18245110E+04</pdfrwt>
<pdfrwt beam="2">  1       -1 0.62529652E-01 0.18245110E+04</pdfrwt>
<totfact> 0.67586049E+00</totfact>
</mgrwt>
</event>
<event>
12    1  0.1114484E-007  0.2156553E+04  0.7818608E-02  0.8536733E-01
         -2   -1    0    0    0  501 -0.00000000000E+00  0.00000000000E+00  0.94486647930E+03  0.94486647930E+03  0.00000000000E+00 0.  1.
          2   -1    0    0  501    0  0.00000000000E+00 -0.00000000000E+00 -0.12305231198E+04  0.12305231198E+04  0.00000000000E+00 0. -1.
         23    2    1    2    0    0  0.45308187848E+02 -0.74466935653E+03  0.36910217983E+03  0.83728036909E+03  0.90646096777E+02 0.  0.
        254    2    1    2    0    0 -0.45308187848E+02  0.74466935653E+03 -0.65475882033E+03  0.13381092300E+04  0.89735272676E+03 0.  0.
        -24    2    4    4    0    0  0.16463784967E+03  0.59756624255E+03 -0.81377597259E+03  0.10260925158E+04  0.80271300250E+02 0.  0.
         24    2    4    4    0    0 -0.20994603752E+03  0.14710311398E+03  0.15901715226E+03  0.31201671422E+03  0.79695109160E+02 0.  0.
         11    1    3    3    0    0 -0.12260527764E+01 -0.49522632445E+02  0.51963376771E+02  0.71792665747E+02  0.00000000000E+00 0. -1.
        -11    1    3    3    0    0  0.46534240624E+02 -0.69514672409E+03  0.31713880305E+03  0.76548770334E+03  0.00000000000E+00 0.  1.
          4    1    6    6  502    0 -0.55571291881E+02  0.84288932788E+02  0.71998074581E+02  0.12400207827E+03  0.00000000000E+00 0. -1.
          3    1    5    5  503    0  0.11271966799E+03  0.29988104191E+03 -0.46416366651E+03  0.56398782980E+03  0.00000000000E+00 0. -1.
         -4    1    5    5    0  503  0.51918181681E+02  0.29768520064E+03 -0.34961230608E+03  0.46210468601E+03  0.00000000000E+00 0.  1.
         -3    1    6    6    0  502 -0.15437474564E+03  0.62814181196E+02  0.87019077682E+02  0.18801463595E+03  0.00000000000E+00 0.  1.
<mgrwt>
<rscale>  0 0.21565528E+04</rscale>
<asrwt>0</asrwt>
<pdfrwt beam="1">  1        2 0.18931125E+00 0.21565528E+04</pdfrwt>
<pdfrwt beam="2">  1       -2 0.14536407E+00 0.21565528E+04</pdfrwt>
<totfact> 0.54243816E+00</totfact>
</mgrwt>
</event>
<event>
12    1  0.1114484E-007  0.1850955E+04  0.7818608E-02  0.8679662E-01
          2   -1    0    0  501    0  0.00000000000E+00  0.00000000000E+00  0.18720507059E+04  0.18720507059E+04  0.00000000000E+00 0. -1.
         -2   -1    0    0    0  501 -0.00000000000E+00 -0.00000000000E+00 -0.45752421868E+03  0.45752421868E+03  0.00000000000E+00 0.  1.
         23    2    1    2    0    0 -0.49487498697E+03  0.22395511787E+03 -0.18921854876E+02  0.55058353647E+03  0.87903620491E+02 0.  0.
        254    2    1    2    0    0  0.49487498697E+03 -0.22395511787E+03  0.14334483421E+04  0.17789913881E+04  0.90276190768E+03 0.  0.
        -24    2    4    4    0    0  0.20823083296E+03  0.30232137587E+01  0.13835538035E+04  0.14013664426E+04  0.78978221986E+02 0.  0.
         24    2    4    4    0    0  0.28664415401E+03 -0.22697833163E+03  0.49894538601E+02  0.37762494555E+03  0.80169198957E+02 0.  0.
         13    1    3    3    0    0 -0.13756376933E+03  0.26466779549E+02 -0.24907114395E+02  0.14228367932E+03  0.00000000000E+00 0. -1.
        -13    1    3    3    0    0 -0.35731121764E+03  0.19748833832E+03  0.59852595189E+01  0.40829985716E+03  0.00000000000E+00 0.  1.
          2    1    6    6  502    0  0.28180253223E+03 -0.22166878997E+03  0.33957362805E+02  0.36014278017E+03  0.00000000000E+00 0. -1.
          1    1    5    5  503    0  0.16798991775E+03 -0.18398608466E+02  0.12173462553E+04  0.12290203524E+04  0.00000000000E+00 0. -1.
         -2    1    5    5    0  503  0.40240915208E+02  0.21421822225E+02  0.16620754815E+03  0.17234609014E+03  0.00000000000E+00 0.  1.
         -1    1    6    6    0  502  0.48416217783E+01 -0.53095416619E+01  0.15937175796E+02  0.17482165382E+02  0.00000000000E+00 0.  1.
<mgrwt>
<rscale>  0 0.18509549E+04</rscale>
<asrwt>0</asrwt>
<pdfrwt beam="1">  1        2 0.28800780E+00 0.18509549E+04</pdfrwt>
<pdfrwt beam="2">  1       -2 0.70388342E-01 0.18509549E+04</pdfrwt>
<totfact> 0.13587865E+01</totfact>
</mgrwt>
</event>
<event>
12    1  0.1114484E-007  0.1579896E+04  0.7818608E-02  0.8832994E-01
         -2   -1    0    0    0  501 -0.00000000000E+00  0.00000000000E+00  0.36781982600E+03  0.36781982600E+03  0.00000000000E+00 0.  1.
          2   -1    0    0  501    0  0.00000000000E+00 -0.00000000000E+00 -0.16965321338E+04  0.16965321338E+04  0.00000000000E+00 0. -1.
         23    2    1    2    0    0 -0.25791575619E+03  0.28786561964E+03 -0.99194488872E+02  0.40937605140E+03  0.91444259400E+02 0.  0.
        254    2    1    2    0    0  0.25791575619E+03 -0.28786561964E+03 -0.12295178190E+04  0.16549759084E+04  0.10381926787E+04 0.  0.
        -24    2    4    4    0    0  0.22713165561E+03 -0.29421088457E+03  0.40321726741E+02  0.38229607953E+03  0.79847462052E+02 0.  0.
         24    2    4    4    0    0  0.30784100579E+02  0.63452649312E+01 -0.12698395457E+04  0.12726798289E+04  0.78952845605E+02 0.  0.
         11    1    3    3    0    0 -0.19184717676E+03  0.14886123813E+03 -0.51272220182E+02  0.24818107908E+03  0.00000000000E+00 0.  1.
        -11    1    3    3    0    0 -0.66068579425E+02  0.13900438151E+03 -0.47922268690E+02  0.16119497233E+03  0.00000000000E+00 0. -1.
          4    1    6    6  502    0  0.57631630824E+02  0.51281954993E+01 -0.82080545397E+03  0.82284220634E+03  0.00000000000E+00 0. -1.
          3    1    5    5  503    0  0.20133128933E+03 -0.29116647706E+03  0.34495297735E+02  0.35567138061E+03  0.00000000000E+00 0. -1.
         -4    1    5    5    0  503  0.25800366282E+02 -0.30444075190E+01  0.58264290056E+01  0.26624698916E+02  0.00000000000E+00 0.  1.
         -3    1    6    6    0  502 -0.26847530245E+02  0.12170694318E+01 -0.44903409173E+03  0.44983762256E+03  0.00000000000E+00 0.  1.
<mgrwt>
<rscale>  0 0.15798964E+04</rscale>
<asrwt>0</asrwt>
<pdfrwt beam="1">  1        2 0.26100494E+00 0.15798964E+04</pdfrwt>
<pdfrwt beam="2">  1       -2 0.56587666E-01 0.15798964E+04</pdfrwt>
<totfact> 0.27712777E+01</totfact>
</mgrwt>
</event>
<event>
12    1  0.1114484E-007  0.2204803E+04  0.7818608E-02  0.8516432E-01
          1   -1    0    0  501    0  0.00000000000E+00  0.00000000000E+00  0.11724036993E+04  0.11724036993E+04  0.00000000000E+00 0. -1.
         -1   -1    0    0    0  501 -0.00000000000E+00 -0.00000000000E+00 -0.10365790362E+04  0.10365790362E+04  0.00000000000E+00 0.  1.
         23    2    1    2    0    0  0.29396508601E+03 -0.35567377900E+03 -0.73553681041E+03  0.87296080908E+03  0.90149131209E+02 0.  0.
        254    2    1    2    0    0 -0.29396508601E+03  0.35567377900E+03  0.87136147346E+03  0.13360219264E+04  0.90153450378E+03 0.  0.
        -24    2    4    4    0    0 -0.27935982735E+03  0.25909741130E+03 -0.61468583019E+02  0.39463951556E+03  0.82392832596E+02 0.  0.
         24    2    4    4    0    0 -0.14605258666E+02  0.96576367693E+02  0.93283005648E+03  0.94138241083E+03  0.80551975572E+02 0.  0.
         13    1    3    3    0    0  0.27540738604E+03 -0.35655239380E+03 -0.69341694040E+03  0.82692556560E+03  0.00000000000E+00 0.  1.
        -13    1    3    3    0    0  0.18557699973E+02  0.87861480601E+00 -0.42119870012E+02  0.46035243478E+02  0.00000000000E+00 0. -1.
          4    1    6    6  502    0 -0.48171955098E+02  0.58575644759E+02  0.54442409038E+03  0.54968102896E+03  0.00000000000E+00 0. -1.
          1    1    5    5  503    0 -0.60717425645E+02  0.10148961279E+03 -0.33286792593E+00  0.11826604789E+03  0.00000000000E+00 0. -1.
         -2    1    5    5    0  503 -0.21864240170E+03  0.15760779851E+03 -0.61135715093E+02  0.27637346767E+03  0.00000000000E+00 0.  1.
         -3    1    6    6    0  502  0.33566696433E+02  0.38000722934E+02  0.38840596610E+03  0.39170138187E+03  0.00000000000E+00 0.  1.
<mgrwt>
<rscale>  0 0.22048030E+04</rscale>
<asrwt>0</asrwt>
<pdfrwt beam="1">  1        1 0.18036980E+00 0.22048030E+04</pdfrwt>
<pdfrwt beam="2">  1       -1 0.15947370E+00 0.22048030E+04</pdfrwt>
<totfact> 0.30097716E+00</totfact>
</mgrwt>
</event>
<event>
12    1  0.1114484E-007  0.1634708E+04  0.7818608E-02  0.8799505E-01
         -1   -1    0    0    0  501 -0.00000000000E+00  0.00000000000E+00  0.13126586440E+04  0.13126586440E+04  0.00000000000E+00 0.  1.
          1   -1    0    0  501    0  0.00000000000E+00 -0.00000000000E+00 -0.50894248777E+03  0.50894248777E+03  0.00000000000E+00 0. -1.
         23    2    1    2    0    0  0.36045223474E+03 -0.15051780926E+02  0.76313839390E+03  0.84897882748E+03  0.90732968829E+02 0.  0.
        254    2    1    2    0    0 -0.36045223474E+03  0.15051780926E+02  0.40577762358E+02  0.97262230430E+03  0.90232766908E+03 0.  0.
        -24    2    4    4    0    0 -0.21737656978E+03 -0.28832964508E+03  0.35026712618E+03  0.50921734461E+03  0.78922031460E+02 0.  0.
         24    2    4    4    0    0 -0.14307566497E+03  0.30338142600E+03 -0.30968936383E+03  0.46340495969E+03  0.79534389121E+02 0.  0.
         11    1    3    3    0    0  0.21906751235E+03  0.37451439347E+01  0.36088796796E+03  0.42219039128E+03  0.00000000000E+00 0. -1.
        -11    1    3    3    0    0  0.14138472240E+03 -0.18796924861E+02  0.40225042593E+03  0.42678843620E+03  0.00000000000E+00 0.  1.
          2    1    6    6  502    0 -0.26140501095E+02  0.16468978383E+02 -0.51702019835E+02  0.60229991711E+02  0.00000000000E+00 0. -1.
          3    1    5    5  503    0 -0.17173678491E+02 -0.90050077368E+00  0.30072463047E+02  0.34642447493E+02  0.00000000000E+00 0. -1.
         -4    1    5    5    0  503 -0.20020289128E+03 -0.28742914430E+03  0.32019466314E+03  0.47457489712E+03  0.00000000000E+00 0.  1.
         -1    1    6    6    0  502 -0.11693516387E+03  0.28691244762E+03 -0.25798734399E+03  0.40317496798E+03  0.00000000000E+00 0.  1.
<mgrwt>
<rscale>  0 0.16347082E+04</rscale>
<asrwt>0</asrwt>
<pdfrwt beam="1">  1        1 0.78298845E-01 0.16347082E+04</pdfrwt>
<pdfrwt beam="2">  1       -1 0.20194748E+00 0.16347082E+04</pdfrwt>
<totfact> 0.60369096E+00</totfact>
</mgrwt>
</event>
<event>
12    1  0.1114484E-007  0.1896273E+04  0.7818608E-02  0.8656714E-01
          1   -1    0    0  501    0  0.00000000000E+00  0.00000000000E+00  0.11800328693E+04  0.11800328693E+04  0.00000000000E+00 0. -1.
         -1   -1    0    0    0  501 -0.00000000000E+00 -0.00000000000E+00 -0.76181158284E+03  0.76181158284E+03  0.00000000000E+00 0.  1.
         23    2    1    2    0    0 -0.33658632592E+03 -0.64337184117E+03  0.22914987916E+03  0.76800486656E+03  0.10051928736E+03 0.  0.
        254    2    1    2    0    0  0.33658632592E+03  0.64337184117E+03  0.18907140725E+03  0.11738395855E+04  0.90273678041E+03 0.  0.
        -24    2    4    4    0    0 -0.14603971233E+02 -0.19574867546E+03  0.15086725032E+03  0.25971229821E+03  0.78477580915E+02 0.  0.
         24    2    4    4    0    0  0.35119029715E+03  0.83912051663E+03  0.38204156939E+02  0.91412728732E+03  0.81922363012E+02 0.  0.
         13    1    3    3    0    0 -0.17143235408E+03 -0.30865439308E+03  0.59629686454E+02  0.35806743205E+03  0.00000000000E+00 0. -1.
        -13    1    3    3    0    0 -0.16515397185E+03 -0.33471744809E+03  0.16952019271E+03  0.40993743451E+03  0.00000000000E+00 0.  1.
          4    1    6    6  502    0  0.17798467371E+03  0.52530382719E+03  0.33618650870E+02  0.55565535058E+03  0.00000000000E+00 0. -1.
          1    1    5    5  503    0 -0.89886448122E+01 -0.20166990383E+03  0.15001484903E+03  0.25150745670E+03  0.00000000000E+00 0. -1.
         -2    1    5    5    0  503 -0.56153264204E+01  0.59212283744E+01  0.85240128514E+00  0.82048415110E+01  0.00000000000E+00 0.  1.
         -3    1    6    6    0  502  0.17320562345E+03  0.31381668944E+03  0.45855060683E+01  0.35847193674E+03  0.00000000000E+00 0.  1.
<mgrwt>
<rscale>  0 0.18962729E+04</rscale>
<asrwt>0</asrwt>
<pdfrwt beam="1">  1        1 0.18154352E+00 0.18962729E+04</pdfrwt>
<pdfrwt beam="2">  1       -1 0.11720178E+00 0.18962729E+04</pdfrwt>
<totfact> 0.67837452E+00</totfact>
</mgrwt>
</event>
<event>
12    1  0.1114484E-007  0.2579000E+04  0.7818608E-02  0.8375369E-01
         -2   -1    0    0    0  501 -0.00000000000E+00  0.00000000000E+00  0.75507851168E+03  0.75507851168E+03  0.00000000000E+00 0. -1.
          2   -1    0    0  501    0  0.00000000000E+00 -0.00000000000E+00 -0.22021693812E+04  0.22021693812E+04  0.00000000000E+00 0.  1.
         23    2    1    2    0    0  0.19615088186E+03 -0.41025074709E+03 -0.17753563810E+04  0.18349472520E+04  0.91434643866E+02 0.  0.
        254    2    1    2    0    0 -0.19615088186E+03  0.41025074709E+03  0.32826551154E+03  0.11223006408E+04  0.97212120560E+03 0.  0.
        -24    2    4    4    0    0 -0.19758786788E+03 -0.19786292584E+03  0.41072794369E+03  0.50329002330E+03  0.80079341091E+02 0.  0.
         24    2    4    4    0    0  0.14369860153E+01  0.60811367293E+03 -0.82462432143E+02  0.61901061753E+03  0.81054227301E+02 0.  0.
         13    1    3    3    0    0  0.14943751055E+03 -0.22012066611E+03 -0.93756646203E+03  0.97458480798E+03  0.00000000000E+00 0. -1.
        -13    1    3    3    0    0  0.46713371307E+02 -0.19013008098E+03 -0.83778991901E+03  0.86036244405E+03  0.00000000000E+00 0.  1.
          4    1    6    6  502    0 -0.12256626667E+01  0.60090277595E+03 -0.70824712240E+02  0.60506345804E+03  0.00000000000E+00 0. -1.
          1    1    5    5  503    0 -0.18609595695E+03 -0.16227009721E+03  0.31309245313E+03  0.39873571930E+03  0.00000000000E+00 0. -1.
         -2    1    5    5    0  503 -0.11491910921E+02 -0.35592828635E+02  0.97635490556E+02  0.10455430399E+03  0.00000000000E+00 0.  1.
         -1    1    6    6    0  502  0.26626486821E+01  0.72108969874E+01 -0.11637719904E+02  0.13947159493E+02  0.00000000000E+00 0.  1.
<mgrwt>
<rscale>  0 0.25790004E+04</rscale>
<asrwt>0</asrwt>
<pdfrwt beam="1">  1        2 0.33879529E+00 0.25790004E+04</pdfrwt>
<pdfrwt beam="2">  1       -2 0.11616593E+00 0.25790004E+04</pdfrwt>
<totfact> 0.26245912E+00</totfact>
</mgrwt>
</event>
<event>
12    1  0.1114484E-007  0.1288920E+04  0.7818608E-02  0.9038398E-01
         -1   -1    0    0    0  501 -0.00000000000E+00  0.00000000000E+00  0.40275440392E+03  0.40275440392E+03  0.00000000000E+00 0.  1.
          1   -1    0    0  501    0  0.00000000000E+00 -0.00000000000E+00 -0.10312202933E+04  0.10312202933E+04  0.00000000000E+00 0. -1.
         23    2    1    2    0    0 -0.25008512823E+03 -0.14233374199E+03 -0.15125798879E+02  0.30193352446E+03  0.90186462008E+02 0.  0.
        254    2    1    2    0    0  0.25008512823E+03  0.14233374199E+03 -0.61334009046E+03  0.11320411727E+04  0.90693422292E+03 0.  0.
        -24    2    4    4    0    0 -0.58615386014E+02 -0.32288096223E+03 -0.64817530793E+02  0.34509776258E+03  0.84872104926E+02 0.  0.
         24    2    4    4    0    0  0.30870051424E+03  0.46521470422E+03 -0.54852255967E+03  0.78694341014E+03  0.81744747724E+02 0.  0.
         11    1    3    3    0    0 -0.16516478649E+03 -0.48016144600E+02 -0.28381873395E+02  0.17432867686E+03  0.00000000000E+00 0.  1.
        -11    1    3    3    0    0 -0.84920341736E+02 -0.94317597390E+02  0.13256074516E+02  0.12760484759E+03  0.00000000000E+00 0. -1.
          2    1    6    6  502    0  0.25583564953E+03  0.32057895339E+03 -0.39126186757E+03  0.56684088944E+03  0.00000000000E+00 0. -1.
          1    1    5    5  503    0 -0.65113228133E+02 -0.14248803549E+03 -0.47783321690E+02  0.16378589246E+03  0.00000000000E+00 0. -1.
         -2    1    5    5    0  503  0.64978421186E+01 -0.18039292674E+03 -0.17034209102E+02  0.18131187013E+03  0.00000000000E+00 0.  1.
         -1    1    6    6    0  502  0.52864864716E+02  0.14463575083E+03 -0.15726069210E+03  0.22010252070E+03  0.00000000000E+00 0.  1.
<mgrwt>
<rscale>  0 0.12889197E+04</rscale>
<asrwt>0</asrwt>
<pdfrwt beam="1">  1        1 0.15864928E+00 0.12889197E+04</pdfrwt>
<pdfrwt beam="2">  1       -1 0.61962215E-01 0.12889197E+04</pdfrwt>
<totfact> 0.37170652E+01</totfact>
</mgrwt>
</event>
<event>
12    1  0.1114484E-007  0.1974800E+04  0.7818608E-02  0.8618494E-01
          2   -1    0    0  501    0  0.00000000000E+00  0.00000000000E+00  0.10725611719E+04  0.10725611719E+04  0.00000000000E+00 0. -1.
         -2   -1    0    0    0  501 -0.00000000000E+00 -0.00000000000E+00 -0.90900074433E+03  0.90900074433E+03  0.00000000000E+00 0.  1.
         23    2    1    2    0    0  0.11034467675E+03  0.28665214668E+03  0.78606840617E+03  0.84891926752E+03  0.91733214823E+02 0.  0.
        254    2    1    2    0    0 -0.11034467675E+03 -0.28665214668E+03 -0.62250797858E+03  0.11326426487E+04  0.89499596951E+03 0.  0.
        -24    2    4    4    0    0 -0.46915345551E+03 -0.10584217175E+03 -0.15607906194E+03  0.51162833991E+03  0.78072751232E+02 0.  0.
         24    2    4    4    0    0  0.35880877877E+03 -0.18080997493E+03 -0.46642891664E+03  0.62101430882E+03  0.81650785210E+02 0.  0.
         13    1    3    3    0    0  0.68701053009E+02  0.26350812464E+03  0.64941970437E+03  0.70420332211E+03  0.00000000000E+00 0. -1.
        -13    1    3    3    0    0  0.41643623737E+02  0.23144022045E+02  0.13664870180E+03  0.14471594541E+03  0.00000000000E+00 0.  1.
          4    1    6    6  502    0  0.21416217828E+03 -0.65895714898E+02 -0.23193903402E+03  0.32249558036E+03  0.00000000000E+00 0. -1.
          1    1    5    5  503    0 -0.30311465912E+03 -0.78788560007E+02 -0.63328482386E+02  0.31952563346E+03  0.00000000000E+00 0. -1.
         -2    1    5    5    0  503 -0.16603879640E+03 -0.27053611745E+02 -0.92750579556E+02  0.19210270645E+03  0.00000000000E+00 0.  1.
         -3    1    6    6    0  502  0.14464660049E+03 -0.11491426003E+03 -0.23448988262E+03  0.29851872846E+03  0.00000000000E+00 0.  1.
<mgrwt>
<rscale>  0 0.19748001E+04</rscale>
<asrwt>0</asrwt>
<pdfrwt beam="1">  1        2 0.16500941E+00 0.19748001E+04</pdfrwt>
<pdfrwt beam="2">  1       -2 0.13984627E+00 0.19748001E+04</pdfrwt>
<totfact> 0.75978048E+00</totfact>
</mgrwt>
</event>
<event>
12    1  0.1114484E-007  0.1237310E+04  0.7818608E-02  0.9080812E-01
          1   -1    0    0  501    0  0.00000000000E+00  0.00000000000E+00  0.13349447784E+04  0.13349447784E+04  0.00000000000E+00 0. -1.
         -1   -1    0    0    0  501 -0.00000000000E+00 -0.00000000000E+00 -0.28670411648E+03  0.28670411648E+03  0.00000000000E+00 0.  1.
         23    2    1    2    0    0 -0.25663864723E+03 -0.38294429435E+02  0.23527430738E+03  0.36225722597E+03  0.92446954940E+02 0.  0.
        254    2    1    2    0    0  0.25663864723E+03  0.38294429435E+02  0.81296635456E+03  0.12593916689E+04  0.92618746674E+03 0.  0.
        -24    2    4    4    0    0  0.21222003099E+03  0.81378909200E+02  0.10098340556E+04  0.10381853785E+04  0.80026195222E+02 0.  0.
         24    2    4    4    0    0  0.44418616236E+02 -0.43084479764E+02 -0.19686770102E+03  0.22120629043E+03  0.79662069743E+02 0.  0.
         13    1    3    3    0    0 -0.40292649817E+01 -0.62203063547E+01 -0.74213226255E+01  0.10488241843E+02  0.00000000000E+00 0. -1.
        -13    1    3    3    0    0 -0.25260938224E+03 -0.32074123081E+02  0.24269563001E+03  0.35176898413E+03  0.00000000000E+00 0.  1.
          2    1    6    6  502    0  0.43075632365E+01 -0.57393809938E+02 -0.99793789816E+02  0.11520158422E+03  0.00000000000E+00 0. -1.
          3    1    5    5  503    0 -0.25912183949E+01 -0.24158162994E+01  0.83874428347E+02  0.83949212693E+02  0.00000000000E+00 0. -1.
         -4    1    5    5    0  503  0.21481124938E+03  0.83794725499E+02  0.92595962723E+03  0.95423616581E+03  0.00000000000E+00 0.  1.
         -1    1    6    6    0  502  0.40111053000E+02  0.14309330174E+02 -0.97073911201E+02  0.10600470621E+03  0.00000000000E+00 0.  1.
<mgrwt>
<rscale>  0 0.12373102E+04</rscale>
<asrwt>0</asrwt>
<pdfrwt beam="1">  1        1 0.20537612E+00 0.12373102E+04</pdfrwt>
<pdfrwt beam="2">  1       -1 0.44108326E-01 0.12373102E+04</pdfrwt>
<totfact> 0.42846417E+01</totfact>
</mgrwt>
</event>
<event>
12    1  0.1114484E-007  0.1392234E+04  0.7818608E-02  0.8959459E-01
         -2   -1    0    0    0  501 -0.00000000000E+00  0.00000000000E+00  0.18858681946E+03  0.18858681946E+03  0.00000000000E+00 0. -1.
          2   -1    0    0  501    0  0.00000000000E+00 -0.00000000000E+00 -0.25695272410E+04  0.25695272410E+04  0.00000000000E+00 0.  1.
         23    2    1    2    0    0  0.47568577237E+02 -0.15956303291E+03 -0.12546520939E+04  0.12686688060E+04  0.87438730285E+02 0.  0.
        254    2    1    2    0    0 -0.47568577237E+02  0.15956303291E+03 -0.11262883276E+04  0.14894452545E+04  0.96031174004E+03 0.  0.
        -24    2    4    4    0    0 -0.33588041080E+03  0.43420750966E+03 -0.77351200433E+03  0.95188701849E+03  0.80101581257E+02 0.  0.
         24    2    4    4    0    0  0.28831183357E+03 -0.27464447675E+03 -0.35277632330E+03  0.53755823597E+03  0.77229662616E+02 0.  0.
         13    1    3    3    0    0  0.21844010547E+00 -0.11653961127E+03 -0.62479516408E+03  0.63557102339E+03  0.00000000000E+00 0.  1.
        -13    1    3    3    0    0  0.47350137131E+02 -0.43023421643E+02 -0.62985692980E+03  0.63309778259E+03  0.00000000000E+00 0. -1.
          2    1    6    6  502    0  0.68891477393E+02 -0.11498151885E+03 -0.10865680317E+03  0.17254879371E+03  0.00000000000E+00 0. -1.
          1    1    5    5  503    0 -0.49032958182E+01  0.38549231235E+02 -0.58083275754E+02  0.69883849787E+02  0.00000000000E+00 0. -1.
         -2    1    5    5    0  503 -0.33097711499E+03  0.39565827843E+03 -0.71542872858E+03  0.88200316870E+03  0.00000000000E+00 0.  1.
         -1    1    6    6    0  502  0.21942035617E+03 -0.15966295790E+03 -0.24411952013E+03  0.36500944226E+03  0.00000000000E+00 0.  1.
<mgrwt>
<rscale>  0 0.13922341E+04</rscale>
<asrwt>0</asrwt>
<pdfrwt beam="1">  1        2 0.39531181E+00 0.13922341E+04</pdfrwt>
<pdfrwt beam="2">  1       -2 0.29013362E-01 0.13922341E+04</pdfrwt>
<totfact> 0.33851275E+01</totfact>
</mgrwt>
</event>
<event>
12    1  0.1114484E-007  0.1262531E+04  0.7818608E-02  0.9059818E-01
         -1   -1    0    0    0  501 -0.00000000000E+00  0.00000000000E+00  0.34474507911E+03  0.34474507911E+03  0.00000000000E+00 0.  1.
          1   -1    0    0  501    0  0.00000000000E+00 -0.00000000000E+00 -0.11559153633E+04  0.11559153633E+04  0.00000000000E+00 0. -1.
         23    2    1    2    0    0  0.46743115225E+02 -0.10150327142E+03 -0.53150150498E+03  0.55033765897E+03  0.88824862289E+02 0.  0.
        254    2    1    2    0    0 -0.46743115225E+02  0.10150327142E+03 -0.27966877917E+03  0.95032278339E+03  0.90133841240E+03 0.  0.
        -24    2    4    4    0    0 -0.79277925200E+02  0.36539288566E+03  0.17230407597E+03  0.42008054355E+03  0.83558471462E+02 0.  0.
         24    2    4    4    0    0  0.32534809975E+02 -0.26388961425E+03 -0.45197285515E+03  0.53024223984E+03  0.78620154900E+02 0.  0.
         11    1    3    3    0    0  0.59460124332E+02 -0.10767204831E+03 -0.41100509778E+03  0.42901511253E+03  0.00000000000E+00 0. -1.
        -11    1    3    3    0    0 -0.12717009107E+02  0.61687768967E+01 -0.12049640720E+03  0.12132254645E+03  0.00000000000E+00 0.  1.
          2    1    6    6  502    0 -0.55710480072E+01 -0.15990083698E+03 -0.32142532091E+03  0.35904533302E+03  0.00000000000E+00 0. -1.
          3    1    5    5  503    0 -0.28230840969E+02  0.29059054366E+03  0.14135212906E+03  0.32437673905E+03  0.00000000000E+00 0. -1.
         -4    1    5    5    0  503 -0.51047084231E+02  0.74802342000E+02  0.30951946912E+02  0.95703804495E+02  0.00000000000E+00 0.  1.
         -1    1    6    6    0  502  0.38105857982E+02 -0.10398877726E+03 -0.13054753424E+03  0.17119690682E+03  0.00000000000E+00 0.  1.
<mgrwt>
<rscale>  0 0.12625310E+04</rscale>
<asrwt>0</asrwt>
<pdfrwt beam="1">  1        1 0.17783313E+00 0.12625310E+04</pdfrwt>
<pdfrwt beam="2">  1       -1 0.53037704E-01 0.12625310E+04</pdfrwt>
<totfact> 0.40661332E+01</totfact>
</mgrwt>
</event>
<event>
12    1  0.1114484E-007  0.1556767E+04  0.7818608E-02  0.8847557E-01
          1   -1    0    0  501    0  0.00000000000E+00  0.00000000000E+00  0.25448587624E+04  0.25448587624E+04  0.00000000000E+00 0. -1.
         -1   -1    0    0    0  501 -0.00000000000E+00 -0.00000000000E+00 -0.23808036518E+03  0.23808036518E+03  0.00000000000E+00 0.  1.
         23    2    1    2    0    0 -0.23692444386E+03 -0.42092971915E+03  0.10981121476E+04  0.12031168218E+04  0.91240218566E+02 0.  0.
        254    2    1    2    0    0  0.23692444386E+03  0.42092971915E+03  0.12086662496E+04  0.15798223058E+04  0.89534875576E+03 0.  0.
        -24    2    4    4    0    0 -0.77524745180E+02 -0.15550599950E+03  0.75269190173E+03  0.77646508462E+03  0.78490296933E+02 0.  0.
         24    2    4    4    0    0  0.31444918904E+03  0.57643571865E+03  0.45597434784E+03  0.80335722116E+03  0.79459352358E+02 0.  0.
         13    1    3    3    0    0 -0.56841564587E+02 -0.55655414923E+02  0.24885043620E+03  0.26125663297E+03  0.00000000000E+00 0.  1.
        -13    1    3    3    0    0 -0.18008287927E+03 -0.36527430423E+03  0.84926171143E+03  0.94186018880E+03  0.00000000000E+00 0. -1.
          2    1    6    6  502    0  0.18915717560E+01  0.12343318749E+01  0.12375332760E+02  0.12579764696E+02  0.00000000000E+00 0. -1.
          1    1    5    5  503    0 -0.81809151929E+02 -0.10741301608E+03  0.63608284638E+03  0.65025508904E+03  0.00000000000E+00 0. -1.
         -2    1    5    5    0  503  0.42844067493E+01 -0.48092983423E+02  0.11660905535E+03  0.12620999559E+03  0.00000000000E+00 0.  1.
         -1    1    6    6    0  502  0.31255761729E+03  0.57520138678E+03  0.44359901508E+03  0.79077745647E+03  0.00000000000E+00 0.  1.
<mgrwt>
<rscale>  0 0.15567670E+04</rscale>
<asrwt>0</asrwt>
<pdfrwt beam="1">  1        1 0.39151671E+00 0.15567670E+04</pdfrwt>
<pdfrwt beam="2">  1       -1 0.36627750E-01 0.15567670E+04</pdfrwt>
<totfact> 0.87019279E+00</totfact>
</mgrwt>
</event>
<event>
12    1  0.1114484E-007  0.1702728E+04  0.7818608E-02  0.8759810E-01
         -1   -1    0    0    0  501 -0.00000000000E+00  0.00000000000E+00  0.10758257814E+04  0.10758257814E+04  0.00000000000E+00 0.  1.
          1   -1    0    0  501    0  0.00000000000E+00 -0.00000000000E+00 -0.67373406812E+03  0.67373406812E+03  0.00000000000E+00 0. -1.
         23    2    1    2    0    0  0.14125140470E+03 -0.31338664912E+03 -0.36759154974E+03  0.51210587769E+03  0.94687545869E+02 0.  0.
        254    2    1    2    0    0 -0.14125140470E+03  0.31338664912E+03  0.76968326301E+03  0.12374539718E+04  0.90593424476E+03 0.  0.
        -24    2    4    4    0    0 -0.47258388200E+03  0.16954038079E+03  0.69375034879E+03  0.85985117127E+03  0.77298279714E+02 0.  0.
         24    2    4    4    0    0  0.33133247730E+03  0.14384626834E+03  0.75932914219E+02  0.37760280054E+03  0.79656186736E+02 0.  0.
         11    1    3    3    0    0  0.10033317569E+03 -0.29462551038E+03 -0.32785767696E+03  0.45206370553E+03  0.00000000000E+00 0. -1.
        -11    1    3    3    0    0  0.40918229005E+02 -0.18761138747E+02 -0.39733872779E+02  0.60042172163E+02  0.00000000000E+00 0.  1.
          4    1    6    6  502    0  0.21194442807E+02  0.12974581681E+02 -0.14858659523E+02  0.28953824246E+02  0.00000000000E+00 0. -1.
          3    1    5    5  503    0 -0.14719281858E+03  0.80080134999E+02  0.27520798827E+03  0.32220799287E+03  0.00000000000E+00 0. -1.
         -4    1    5    5    0  503 -0.32539106342E+03  0.89460245789E+02  0.41854236052E+03  0.53764317840E+03  0.00000000000E+00 0.  1.
         -1    1    6    6    0  502  0.31013803450E+03  0.13087168666E+03  0.90791573742E+02  0.34864897630E+03  0.00000000000E+00 0.  1.
<mgrwt>
<rscale>  0 0.17027278E+04</rscale>
<asrwt>0</asrwt>
<pdfrwt beam="1">  1        1 0.10365139E+00 0.17027278E+04</pdfrwt>
<pdfrwt beam="2">  1       -1 0.16551166E+00 0.17027278E+04</pdfrwt>
<totfact> 0.72953964E+00</totfact>
</mgrwt>
</event>
<event>
12    1  0.1114484E-007  0.2241532E+04  0.7818608E-02  0.8501338E-01
         -2   -1    0    0    0  501 -0.00000000000E+00  0.00000000000E+00  0.77226691451E+03  0.77226691451E+03  0.00000000000E+00 0.  1.
          2   -1    0    0  501    0  0.00000000000E+00 -0.00000000000E+00 -0.16265316192E+04  0.16265316192E+04  0.00000000000E+00 0. -1.
         23    2    1    2    0    0  0.47010741550E+03  0.35841607608E+03 -0.11389114719E+04  0.12864453290E+04  0.91428540286E+02 0.  0.
        254    2    1    2    0    0 -0.47010741550E+03 -0.35841607608E+03  0.28464676717E+03  0.11123532048E+04  0.89824428991E+03 0.  0.
        -24    2    4    4    0    0 -0.78980258685E+02 -0.33996454396E+03  0.53262605856E+03  0.64168237985E+03  0.79069500698E+02 0.  0.
         24    2    4    4    0    0 -0.39112715682E+03 -0.18451532126E+02 -0.24797929139E+03  0.47067082490E+03  0.81953551606E+02 0.  0.
         13    1    3    3    0    0  0.19368456085E+03  0.15683572269E+03 -0.57787766783E+03  0.62932801622E+03  0.00000000000E+00 0.  1.
        -13    1    3    3    0    0  0.27642285465E+03  0.20158035339E+03 -0.56103380408E+03  0.65711731279E+03  0.00000000000E+00 0. -1.
          4    1    6    6  502    0 -0.70187046372E+02 -0.35489807173E+02 -0.47817367887E+02  0.92044818231E+02  0.00000000000E+00 0. -1.
          3    1    5    5  503    0 -0.31671534501E+02 -0.10335149901E+03  0.23394413461E+03  0.25771006298E+03  0.00000000000E+00 0. -1.
         -4    1    5    5    0  503 -0.47308724184E+02 -0.23661304495E+03  0.29868192396E+03  0.38397231687E+03  0.00000000000E+00 0.  1.
         -3    1    6    6    0  502 -0.32094011044E+03  0.17038275048E+02 -0.20016192350E+03  0.37862600667E+03  0.00000000000E+00 0.  1.
<mgrwt>
<rscale>  0 0.22415321E+04</rscale>
<asrwt>0</asrwt>
<pdfrwt beam="1">  1        2 0.25023563E+00 0.22415321E+04</pdfrwt>
<pdfrwt beam="2">  1       -2 0.11881030E+00 0.22415321E+04</pdfrwt>
<totfact> 0.53444725E+00</totfact>
</mgrwt>
</event>
<event>
12    1  0.1114484E-007  0.1700409E+04  0.7818608E-02  0.8761131E-01
         -2   -1    0    0    0  501 -0.00000000000E+00  0.00000000000E+00  0.51026455907E+03  0.51026455907E+03  0.00000000000E+00 0.  1.
          2   -1    0    0  501    0  0.00000000000E+00 -0.00000000000E+00 -0.14166139336E+04  0.14166139336E+04  0.00000000000E+00 0. -1.
         23    2    1    2    0    0 -0.36890776995E+03  0.22807037730E+03  0.15478850633E+03  0.46925558958E+03  0.90179193441E+02 0.  0.
        254    2    1    2    0    0  0.36890776995E+03 -0.22807037730E+03 -0.10611378808E+04  0.14576229031E+04  0.90030099726E+03 0.  0.
        -24    2    4    4    0    0  0.16252242133E+02 -0.57501822967E+02 -0.10528907419E+04  0.10576403563E+04  0.80334388464E+02 0.  0.
         24    2    4    4    0    0  0.35265552782E+03 -0.17056855433E+03 -0.82471389529E+01  0.39998254674E+03  0.80364602699E+02 0.  0.
         11    1    3    3    0    0 -0.94031716672E+02  0.62322713876E+02  0.83769515600E+02  0.14051126698E+03  0.00000000000E+00 0. -1.
        -11    1    3    3    0    0 -0.27487605328E+03  0.16574766342E+03  0.71018990728E+02  0.32874432260E+03  0.00000000000E+00 0.  1.
          4    1    6    6  502    0  0.19377439853E+03 -0.49239534776E+02 -0.74424847623E+01  0.20007108709E+03  0.00000000000E+00 0. -1.
          1    1    5    5  503    0 -0.20289011335E+01 -0.73930858936E+02 -0.86347802783E+03  0.86663959803E+03  0.00000000000E+00 0. -1.
         -2    1    5    5    0  503  0.18281143266E+02  0.16429035969E+02 -0.18941271406E+03  0.19100075830E+03  0.00000000000E+00 0.  1.
         -3    1    6    6    0  502  0.15888112929E+03 -0.12132901955E+03 -0.80465419055E+00  0.19991145965E+03  0.00000000000E+00 0.  1.
<mgrwt>
<rscale>  0 0.17004092E+04</rscale>
<asrwt>0</asrwt>
<pdfrwt beam="1">  1        2 0.21794060E+00 0.17004092E+04</pdfrwt>
<pdfrwt beam="2">  1       -2 0.78502240E-01 0.17004092E+04</pdfrwt>
<totfact> 0.19428697E+01</totfact>
</mgrwt>
</event>
<event>
12    1  0.1114484E-007  0.1741004E+04  0.7818608E-02  0.8738318E-01
          2   -1    0    0  501    0  0.00000000000E+00  0.00000000000E+00  0.53942711733E+03  0.53942711733E+03  0.00000000000E+00 0. -1.
         -2   -1    0    0    0  501 -0.00000000000E+00 -0.00000000000E+00 -0.14047749858E+04  0.14047749858E+04  0.00000000000E+00 0.  1.
         23    2    1    2    0    0 -0.15466932932E+03  0.45554160436E+03  0.14094137675E+03  0.50943265671E+03  0.90644389220E+02 0.  0.
        254    2    1    2    0    0  0.15466932932E+03 -0.45554160436E+03 -0.10062892452E+04  0.14347694464E+04  0.90249906627E+03 0.  0.
        -24    2    4    4    0    0 -0.34386170369E+03 -0.22179655341E+03 -0.65508156793E+03  0.77690698858E+03  0.83773658684E+02 0.  0.
         24    2    4    4    0    0  0.49853103301E+03 -0.23374505096E+03 -0.35120767731E+03  0.65786245787E+03  0.79159592862E+02 0.  0.
         11    1    3    3    0    0 -0.39816002051E+02  0.49086731644E+02  0.41193776600E+02  0.75443677491E+02  0.00000000000E+00 0.  1.
        -11    1    3    3    0    0 -0.11485332727E+03  0.40645487272E+03  0.99747600154E+02  0.43398897921E+03  0.00000000000E+00 0. -1.
          4    1    6    6  502    0  0.13785808876E+03 -0.64065999641E+02 -0.14051085173E+03  0.20700870610E+03  0.00000000000E+00 0. -1.
          1    1    5    5  503    0 -0.28533236213E+03 -0.16036939378E+03 -0.46393131148E+03  0.56777210315E+03  0.00000000000E+00 0. -1.
         -2    1    5    5    0  503 -0.58529341564E+02 -0.61427159630E+02 -0.19115025645E+03  0.20913488543E+03  0.00000000000E+00 0.  1.
         -3    1    6    6    0  502  0.36067294426E+03 -0.16967905132E+03 -0.21069682558E+03  0.45085375177E+03  0.00000000000E+00 0.  1.
<mgrwt>
<rscale>  0 0.17410040E+04</rscale>
<asrwt>0</asrwt>
<pdfrwt beam="1">  1        2 0.82988788E-01 0.17410040E+04</pdfrwt>
<pdfrwt beam="2">  1       -2 0.21611923E+00 0.17410040E+04</pdfrwt>
<totfact> 0.55854632E+00</totfact>
</mgrwt>
</event>
<event>
12    1  0.1218509E-007  0.1759089E+04  0.7818608E-02  0.8728363E-01
         -1   -1    0    0    0  501 -0.00000000000E+00  0.00000000000E+00  0.60970892870E+03  0.60970892870E+03  0.00000000000E+00 0.  1.
          1   -1    0    0  501    0  0.00000000000E+00 -0.00000000000E+00 -0.12688003857E+04  0.12688003857E+04  0.00000000000E+00 0. -1.
         23    2    1    2    0    0  0.10816170182E+02  0.23488682407E+03  0.39548926745E+03  0.46950016347E+03  0.93433576285E+02 0.  0.
        254    2    1    2    0    0 -0.10816170182E+02 -0.23488682407E+03 -0.10545807244E+04  0.14090091509E+04  0.90436578513E+03 0.  0.
        -24    2    4    4    0    0  0.18330612754E+02 -0.17521843545E+03 -0.12072440377E+04  0.12226333100E+04  0.79727865807E+02 0.  0.
         24    2    4    4    0    0 -0.29146782936E+02 -0.59668388623E+02  0.15266331334E+03  0.18637584088E+03  0.83785531370E+02 0.  0.
         13    1    3    3    0    0  0.30185026729E+02  0.36423358095E+02  0.12346100419E+03  0.13221352582E+03  0.00000000000E+00 0. -1.
        -13    1    3    3    0    0 -0.19368856547E+02  0.19846346597E+03  0.27202826325E+03  0.33728663765E+03  0.00000000000E+00 0.  1.
          2    1    6    6  502    0 -0.22672108542E+02 -0.57558064586E+02  0.16280378811E+03  0.17416092767E+03  0.00000000000E+00 0. -1.
          3    1    5    5  503    0 -0.26596296066E+02 -0.11171352033E+03 -0.77158455919E+03  0.78008333245E+03  0.00000000000E+00 0. -1.
         -4    1    5    5    0  503  0.44926908820E+02 -0.63504915113E+02 -0.43565947855E+03  0.44254997755E+03  0.00000000000E+00 0.  1.
         -1    1    6    6    0  502 -0.64746743939E+01 -0.21103240371E+01 -0.10140474771E+02  0.12214913206E+02  0.00000000000E+00 0.  1.
<mgrwt>
<rscale>  0 0.17590895E+04</rscale>
<asrwt>0</asrwt>
<pdfrwt beam="1">  1        1 0.19520006E+00 0.17590895E+04</pdfrwt>
<pdfrwt beam="2">  1       -1 0.93801375E-01 0.17590895E+04</pdfrwt>
<totfact> 0.99366652E+00</totfact>
</mgrwt>
</event>
<event>
12    1  0.1114484E-007  0.1619827E+04  0.7818608E-02  0.8808459E-01
         -2   -1    0    0    0  501 -0.00000000000E+00  0.00000000000E+00  0.42988527714E+03  0.42988527714E+03  0.00000000000E+00 0.  1.
          2   -1    0    0  501    0  0.00000000000E+00 -0.00000000000E+00 -0.15258945233E+04  0.15258945233E+04  0.00000000000E+00 0. -1.
         23    2    1    2    0    0  0.10560948481E+03  0.19126839294E+03  0.21293583058E+03  0.32323485172E+03  0.10678080354E+03 0.  0.
        254    2    1    2    0    0 -0.10560948481E+03 -0.19126839294E+03 -0.13089450767E+04  0.16325449487E+04  0.95085689472E+03 0.  0.
        -24    2    4    4    0    0 -0.17189489511E+03 -0.55727402858E+03 -0.70741879578E+03  0.92036987726E+03  0.80852708310E+02 0.  0.
         24    2    4    4    0    0  0.66285410305E+02  0.36600563564E+03 -0.60152628094E+03  0.71217507144E+03  0.83699371475E+02 0.  0.
         11    1    3    3    0    0  0.93533543308E+02  0.11638234176E+03  0.78038645471E+02  0.16847374687E+03  0.00000000000E+00 0.  1.
        -11    1    3    3    0    0  0.12075941498E+02  0.74886051176E+02  0.13489718511E+03  0.15476110485E+03  0.00000000000E+00 0. -1.
          2    1    6    6  502    0  0.24371515738E+02  0.38477877391E+02 -0.11960514625E+03  0.12798401790E+03  0.00000000000E+00 0. -1.
          3    1    5    5  503    0  0.64204562823E+01 -0.48565564374E+02 -0.47064285330E+02  0.67932932040E+02  0.00000000000E+00 0. -1.
         -4    1    5    5    0  503 -0.17831535139E+03 -0.50870846421E+03 -0.66035451045E+03  0.85243694522E+03  0.00000000000E+00 0.  1.
         -1    1    6    6    0  502  0.41913894567E+02  0.32752775825E+03 -0.48192113468E+03  0.58419105354E+03  0.00000000000E+00 0.  1.
<mgrwt>
<rscale>  0 0.16198266E+04</rscale>
<asrwt>0</asrwt>
<pdfrwt beam="1">  1        2 0.23475300E+00 0.16198266E+04</pdfrwt>
<pdfrwt beam="2">  1       -2 0.66136196E-01 0.16198266E+04</pdfrwt>
<totfact> 0.24712591E+01</totfact>
</mgrwt>
</event>
<event>
12    1  0.1114484E-007  0.1486742E+04  0.7818608E-02  0.8893318E-01
          1   -1    0    0  501    0  0.00000000000E+00  0.00000000000E+00  0.12242915211E+04  0.12242915211E+04  0.00000000000E+00 0. -1.
         -1   -1    0    0    0  501 -0.00000000000E+00 -0.00000000000E+00 -0.45136344553E+03  0.45136344553E+03  0.00000000000E+00 0.  1.
         23    2    1    2    0    0 -0.15807134370E+03 -0.29166599449E+03 -0.12209749786E+03  0.36510101829E+03  0.91298151869E+02 0.  0.
        254    2    1    2    0    0  0.15807134370E+03  0.29166599449E+03  0.89502557343E+03  0.13105539483E+04  0.89801184424E+03 0.  0.
        -24    2    4    4    0    0  0.33036798433E+03 -0.11345283086E+03  0.76483877395E+03  0.84454622249E+03  0.79154417935E+02 0.  0.
         24    2    4    4    0    0 -0.17229664064E+03  0.40511882535E+03  0.13018679948E+03  0.46600772586E+03  0.80045004689E+02 0.  0.
         13    1    3    3    0    0 -0.12939659131E+03 -0.21505261308E+03 -0.49683455575E+02  0.25585064001E+03  0.00000000000E+00 0. -1.
        -13    1    3    3    0    0 -0.28674752389E+02 -0.76613381411E+02 -0.72414042280E+02  0.10925037828E+03  0.00000000000E+00 0.  1.
          4    1    6    6  502    0 -0.11555019325E+03  0.24479023386E+03  0.40408251236E+02  0.27369130882E+03  0.00000000000E+00 0. -1.
          3    1    5    5  503    0  0.11890008847E+03 -0.50630023577E+01  0.29304862470E+03  0.31629157667E+03  0.00000000000E+00 0. -1.
         -4    1    5    5    0  503  0.21146789586E+03 -0.10838982850E+03  0.47179014925E+03  0.52825464582E+03  0.00000000000E+00 0.  1.
         -3    1    6    6    0  502 -0.56746447388E+02  0.16032859149E+03  0.89778548246E+02  0.19231641704E+03  0.00000000000E+00 0.  1.
<mgrwt>
<rscale>  0 0.14867420E+04</rscale>
<asrwt>0</asrwt>
<pdfrwt beam="1">  1        1 0.18835254E+00 0.14867420E+04</pdfrwt>
<pdfrwt beam="2">  1       -1 0.69440531E-01 0.14867420E+04</pdfrwt>
<totfact> 0.20837315E+01</totfact>
</mgrwt>
</event>
<event>
12    1  0.1114484E-007  0.2096324E+04  0.7818608E-02  0.8562864E-01
          2   -1    0    0  501    0  0.00000000000E+00  0.00000000000E+00  0.15997335973E+04  0.15997335973E+04  0.00000000000E+00 0. -1.
         -2   -1    0    0    0  501 -0.00000000000E+00 -0.00000000000E+00 -0.68676663967E+03  0.68676663967E+03  0.00000000000E+00 0.  1.
         23    2    1    2    0    0  0.78122901356E+03 -0.30943245544E+03  0.57060719848E+03  0.10189842310E+04  0.81664385936E+02 0.  0.
        254    2    1    2    0    0 -0.78122901356E+03  0.30943245544E+03  0.34235975912E+03  0.12675160060E+04  0.88505333432E+03 0.  0.
        -24    2    4    4    0    0  0.11978036587E+03 -0.13054593365E+03  0.14723916152E+03  0.24282267512E+03  0.76771765849E+02 0.  0.
         24    2    4    4    0    0 -0.90100937943E+03  0.43997838908E+03  0.19512059760E+03  0.10246933308E+04  0.80780504883E+02 0.  0.
         13    1    3    3    0    0  0.60671291385E+03 -0.24944378545E+03  0.40435524792E+03  0.77060101769E+03  0.00000000000E+00 0. -1.
        -13    1    3    3    0    0  0.17451609970E+03 -0.59988669986E+02  0.16625195056E+03  0.24838321330E+03  0.00000000000E+00 0.  1.
          4    1    6    6  502    0 -0.74987503568E+03  0.33137871223E+03  0.15759345308E+03  0.83484137206E+03  0.00000000000E+00 0. -1.
          1    1    5    5  503    0  0.95953019580E+02 -0.97628705398E+02  0.14876017701E+03  0.20215819634E+03  0.00000000000E+00 0. -1.
         -2    1    5    5    0  503  0.23827346288E+02 -0.32917228247E+02 -0.15210154913E+01  0.40664478784E+02  0.00000000000E+00 0.  1.
         -3    1    6    6    0  502 -0.15113434375E+03  0.10859967685E+03  0.37527144516E+02  0.18985195877E+03  0.00000000000E+00 0.  1.
<mgrwt>
<rscale>  0 0.20963241E+04</rscale>
<asrwt>0</asrwt>
<pdfrwt beam="1">  1        2 0.24611286E+00 0.20963241E+04</pdfrwt>
<pdfrwt beam="2">  1       -2 0.10565641E+00 0.20963241E+04</pdfrwt>
<totfact> 0.74476593E+00</totfact>
</mgrwt>
</event>
<event>
12    1  0.1114484E-007  0.2070510E+04  0.7818608E-02  0.8574346E-01
         -2   -1    0    0    0  501 -0.00000000000E+00  0.00000000000E+00  0.78821776138E+03  0.78821776138E+03  0.00000000000E+00 0.  1.
          2   -1    0    0  501    0  0.00000000000E+00 -0.00000000000E+00 -0.13597169158E+04  0.13597169158E+04  0.00000000000E+00 0. -1.
         23    2    1    2    0    0 -0.67008140652E+03  0.22227075928E+03 -0.69674539886E+03  0.99608448506E+03  0.91196319900E+02 0.  0.
        254    2    1    2    0    0  0.67008140652E+03 -0.22227075928E+03  0.12524624448E+03  0.11518501921E+04  0.90147593504E+03 0.  0.
        -24    2    4    4    0    0  0.20294221113E+03  0.24114628297E+03 -0.23154217396E+03  0.39930452512E+03  0.80593142480E+02 0.  0.
         24    2    4    4    0    0  0.46713919539E+03 -0.46341704225E+03  0.35678841844E+03  0.75254566696E+03  0.77798601596E+02 0.  0.
         11    1    3    3    0    0 -0.80883156726E+02  0.76286867636E+01 -0.11437165218E+03  0.14028954603E+03  0.00000000000E+00 0.  1.
        -11    1    3    3    0    0 -0.58919824980E+03  0.21464207252E+03 -0.58237374668E+03  0.85579493904E+03  0.00000000000E+00 0. -1.
          2    1    6    6  502    0  0.27372301623E+03 -0.32384127740E+03  0.22403204031E+03  0.47957045118E+03  0.00000000000E+00 0. -1.
          3    1    5    5  503    0  0.18045581819E+03  0.24027691808E+03 -0.22635852875E+03  0.37621201897E+03  0.00000000000E+00 0. -1.
         -2    1    5    5    0  503  0.22486392937E+02  0.86936489005E+00 -0.51836452046E+01  0.23092506149E+02  0.00000000000E+00 0.  1.
         -1    1    6    6    0  502  0.19341617917E+03 -0.13957576485E+03  0.13275637813E+03  0.27297521578E+03  0.00000000000E+00 0.  1.
<mgrwt>
<rscale>  0 0.20705101E+04</rscale>
<asrwt>0</asrwt>
<pdfrwt beam="1">  1        2 0.20918722E+00 0.20705101E+04</pdfrwt>
<pdfrwt beam="2">  1       -2 0.12126427E+00 0.20705101E+04</pdfrwt>
<totfact> 0.72953767E+00</totfact>
</mgrwt>
</event>
<event>
12    1  0.1114484E-007  0.3325542E+04  0.7818608E-02  0.8156427E-01
          1   -1    0    0  501    0  0.00000000000E+00  0.00000000000E+00  0.24474530166E+04  0.24474530166E+04  0.00000000000E+00 0. -1.
         -1   -1    0    0    0  501 -0.00000000000E+00 -0.00000000000E+00 -0.11296669736E+04  0.11296669736E+04  0.00000000000E+00 0.  1.
         23    2    1    2    0    0  0.66409488512E+03 -0.73943659698E+03 -0.65325564986E+03  0.11930603730E+04  0.94136135904E+02 0.  0.
        254    2    1    2    0    0 -0.66409488512E+03  0.73943659698E+03  0.19710416929E+04  0.23840596172E+04  0.90052562770E+03 0.  0.
        -24    2    4    4    0    0  0.20163089508E+03  0.47501901593E+02  0.22977410568E+03  0.31873170986E+03  0.76696249712E+02 0.  0.
         24    2    4    4    0    0 -0.86572578020E+03  0.69193469539E+03  0.17412675872E+04  0.20653279074E+04  0.72882135322E+02 0.  0.
         13    1    3    3    0    0  0.45331677357E+02 -0.35083693132E+02 -0.63058310681E+02  0.85218407881E+02  0.00000000000E+00 0. -1.
        -13    1    3    3    0    0  0.61876320776E+03 -0.70435290385E+03 -0.59019733918E+03  0.11078419651E+04  0.00000000000E+00 0.  1.
          4    1    6    6  502    0 -0.23561134260E+03  0.18174238951E+03  0.52851693251E+03  0.60652547255E+03  0.00000000000E+00 0. -1.
          3    1    5    5  503    0  0.26562786802E+02  0.10743858469E+02  0.81481545169E+02  0.86372763882E+02  0.00000000000E+00 0. -1.
         -4    1    5    5    0  503  0.17506810828E+03  0.36758043123E+02  0.14829256051E+03  0.23235894597E+03  0.00000000000E+00 0.  1.
         -3    1    6    6    0  502 -0.63011443760E+03  0.51019230588E+03  0.12127506547E+04  0.14588024348E+04  0.00000000000E+00 0.  1.
<mgrwt>
<rscale>  0 0.33255417E+04</rscale>
<asrwt>0</asrwt>
<pdfrwt beam="1">  1        1 0.37653123E+00 0.33255417E+04</pdfrwt>
<pdfrwt beam="2">  1       -1 0.17379492E+00 0.33255417E+04</pdfrwt>
<totfact> 0.28144109E-01</totfact>
</mgrwt>
</event>
<event>
12    1  0.1114484E-007  0.1734644E+04  0.7818608E-02  0.8741849E-01
         -1   -1    0    0    0  501 -0.00000000000E+00  0.00000000000E+00  0.44576994538E+03  0.44576994538E+03  0.00000000000E+00 0.  1.
          1   -1    0    0  501    0  0.00000000000E+00 -0.00000000000E+00 -0.16875239536E+04  0.16875239536E+04  0.00000000000E+00 0. -1.
         23    2    1    2    0    0  0.54649431567E+02 -0.59465729395E+03 -0.71172181212E+03  0.93349828570E+03  0.90924440810E+02 0.  0.
        254    2    1    2    0    0 -0.54649431567E+02  0.59465729395E+03 -0.53003219609E+03  0.11997956133E+04  0.89552862996E+03 0.  0.
        -24    2    4    4    0    0 -0.88939416881E+02  0.78422500873E+03 -0.58350098868E+03  0.98478271717E+03  0.80028195332E+02 0.  0.
         24    2    4    4    0    0  0.34289985314E+02 -0.18956771478E+03  0.53468792591E+02  0.21501289609E+03  0.79119606450E+02 0.  0.
         13    1    3    3    0    0  0.67317967838E+01 -0.39475843170E+03 -0.41790572142E+03  0.57491280076E+03  0.00000000000E+00 0. -1.
        -13    1    3    3    0    0  0.47917634783E+02 -0.19989886225E+03 -0.29381609070E+03  0.35858548494E+03  0.00000000000E+00 0.  1.
          2    1    6    6  502    0 -0.12452953872E+02 -0.30344126177E+02  0.35126267890E+02  0.48059304505E+02  0.00000000000E+00 0. -1.
          3    1    5    5  503    0 -0.61314373780E+02  0.65073656600E+03 -0.51553036994E+03  0.83245966454E+03  0.00000000000E+00 0. -1.
         -4    1    5    5    0  503 -0.27625043101E+02  0.13348844274E+03 -0.67970618746E+02  0.15232305263E+03  0.00000000000E+00 0.  1.
         -1    1    6    6    0  502  0.46742939186E+02 -0.15922358860E+03  0.18342524701E+02  0.16695359159E+03  0.00000000000E+00 0.  1.
<mgrwt>
<rscale>  0 0.17346440E+04</rscale>
<asrwt>0</asrwt>
<pdfrwt beam="1">  1        1 0.25961907E+00 0.17346440E+04</pdfrwt>
<pdfrwt beam="2">  1       -1 0.68579991E-01 0.17346440E+04</pdfrwt>
<totfact> 0.99235171E+00</totfact>
</mgrwt>
</event>
<event>
12    1  0.1114484E-007  0.2124400E+04  0.7818608E-02  0.8550570E-01
          2   -1    0    0  501    0  0.00000000000E+00  0.00000000000E+00  0.24044764565E+04  0.24044764565E+04  0.00000000000E+00 0. -1.
         -2   -1    0    0    0  501 -0.00000000000E+00 -0.00000000000E+00 -0.46923684016E+03  0.46923684016E+03  0.00000000000E+00 0.  1.
         23    2    1    2    0    0 -0.19871888216E+03  0.73934369551E+03  0.13337409315E+04  0.15405606184E+04  0.91344691042E+02 0.  0.
        254    2    1    2    0    0  0.19871888216E+03 -0.73934369551E+03  0.60149868492E+03  0.13331526783E+04  0.91070143373E+03 0.  0.
        -24    2    4    4    0    0 -0.16003981576E+03 -0.68368129113E+03  0.10714950655E+03  0.71461879746E+03  0.78524890665E+02 0.  0.
         24    2    4    4    0    0  0.35875869792E+03 -0.55662404377E+02  0.49434917836E+03  0.61853388081E+03  0.79980903754E+02 0.  0.
         11    1    3    3    0    0 -0.18031355969E+03  0.68382837764E+03  0.12729290216E+04  0.14561876678E+04  0.00000000000E+00 0. -1.
        -11    1    3    3    0    0 -0.18405322471E+02  0.55515317871E+02  0.60811909850E+02  0.84372950602E+02  0.00000000000E+00 0.  1.
          2    1    6    6  502    0  0.97635971801E+02 -0.45849651611E+02  0.17901942481E+03  0.20900461239E+03  0.00000000000E+00 0. -1.
          1    1    5    5  503    0 -0.45723623416E+02 -0.19318141510E+03 -0.52325922974E+01  0.19858773603E+03  0.00000000000E+00 0. -1.
         -2    1    5    5    0  503 -0.11431619234E+03 -0.49049987603E+03  0.11238209885E+03  0.51603106143E+03  0.00000000000E+00 0.  1.
         -1    1    6    6    0  502  0.26112272612E+03 -0.98127527661E+01  0.31532975355E+03  0.40952926841E+03  0.00000000000E+00 0.  1.
<mgrwt>
<rscale>  0 0.21244001E+04</rscale>
<asrwt>0</asrwt>
<pdfrwt beam="1">  1        2 0.36991945E+00 0.21244001E+04</pdfrwt>
<pdfrwt beam="2">  1       -2 0.72190284E-01 0.21244001E+04</pdfrwt>
<totfact> 0.63158141E+00</totfact>
</mgrwt>
</event>
<event>
12    1  0.1114484E-007  0.3086470E+04  0.7818608E-02  0.8219461E-01
          2   -1    0    0  501    0  0.00000000000E+00  0.00000000000E+00  0.29582324928E+04  0.29582324928E+04  0.00000000000E+00 0. -1.
         -2   -1    0    0    0  501 -0.00000000000E+00 -0.00000000000E+00 -0.80506657275E+03  0.80506657275E+03  0.00000000000E+00 0.  1.
         23    2    1    2    0    0 -0.75234912370E+03  0.38942870666E+03  0.23570199424E+04  0.25062731265E+04  0.90432596315E+02 0.  0.
        254    2    1    2    0    0  0.75234912370E+03 -0.38942870666E+03 -0.20385402234E+03  0.12570259390E+04  0.90602087581E+03 0.  0.
        -24    2    4    4    0    0  0.75223276856E+03 -0.23979655325E+03  0.20127998605E+03  0.81864987958E+03  0.79482498153E+02 0.  0.
         24    2    4    4    0    0  0.11635514620E+00 -0.14963215342E+03 -0.40513400838E+03  0.43837605943E+03  0.75167877808E+02 0.  0.
         11    1    3    3    0    0 -0.39351305375E+03  0.21977718908E+03  0.13784802034E+04  0.14502972825E+04  0.00000000000E+00 0.  1.
        -11    1    3    3    0    0 -0.35883606995E+03  0.16965151758E+03  0.97853973893E+03  0.10559758440E+04  0.00000000000E+00 0. -1.
          2    1    6    6  502    0  0.27456455398E+02 -0.56844287456E+02 -0.99836871855E+02  0.11812083195E+03  0.00000000000E+00 0. -1.
          3    1    5    5  503    0  0.13040415209E+03 -0.73347358618E+02  0.44866875132E+02  0.15619895769E+03  0.00000000000E+00 0. -1.
         -4    1    5    5    0  503  0.62182861647E+03 -0.16644919463E+03  0.15641311091E+03  0.66245092189E+03  0.00000000000E+00 0.  1.
         -1    1    6    6    0  502 -0.27340100252E+02 -0.92787865960E+02 -0.30529713653E+03  0.32025522747E+03  0.00000000000E+00 0.  1.
<mgrwt>
<rscale>  0 0.30864699E+04</rscale>
<asrwt>0</asrwt>
<pdfrwt beam="1">  1        2 0.45511268E+00 0.30864699E+04</pdfrwt>
<pdfrwt beam="2">  1       -2 0.12385640E+00 0.30864699E+04</pdfrwt>
<totfact> 0.77064746E-01</totfact>
</mgrwt>
</event>
<event>
12    1  0.1114484E-007  0.1406946E+04  0.7818608E-02  0.8948806E-01
          2   -1    0    0  501    0  0.00000000000E+00  0.00000000000E+00  0.92550217130E+03  0.92550217130E+03  0.00000000000E+00 0.  1.
         -2   -1    0    0    0  501 -0.00000000000E+00 -0.00000000000E+00 -0.53470924242E+03  0.53470924242E+03  0.00000000000E+00 0. -1.
         23    2    1    2    0    0 -0.18573748946E+03  0.13862547782E+03 -0.31125480553E+03  0.39846743976E+03  0.90450585890E+02 0.  0.
        254    2    1    2    0    0  0.18573748946E+03 -0.13862547782E+03  0.70204773441E+03  0.10617439740E+04  0.76204580359E+03 0.  0.
        -24    2    4    4    0    0  0.41367584493E+02  0.11395668103E+03  0.74384704752E+03  0.75802865285E+03  0.81250269122E+02 0.  0.
         24    2    4    4    0    0  0.14436990496E+03 -0.25258215885E+03 -0.41799313113E+02  0.30371532112E+03  0.76520567667E+02 0.  0.
         13    1    3    3    0    0 -0.14546781272E+03  0.10200638505E+03 -0.28987190276E+03  0.33998809853E+03  0.00000000000E+00 0. -1.
        -13    1    3    3    0    0 -0.40269676734E+02  0.36619092773E+02 -0.21382902772E+02  0.58479341230E+02  0.00000000000E+00 0.  1.
          4    1    6    6  502    0  0.10493381188E+03 -0.18418542063E+03  0.48066841796E+01  0.21203414410E+03  0.00000000000E+00 0. -1.
          1    1    5    5  503    0  0.43618218360E+02  0.14471008952E+02  0.20747430307E+03  0.21250304823E+03  0.00000000000E+00 0. -1.
         -2    1    5    5    0  503 -0.22506338661E+01  0.99485672076E+02  0.53637274445E+03  0.54552560462E+03  0.00000000000E+00 0.  1.
         -3    1    6    6    0  502  0.39436093083E+02 -0.68396738214E+02 -0.46605997292E+02  0.91681177019E+02  0.00000000000E+00 0.  1.
<mgrwt>
<rscale>  0 0.14069464E+04</rscale>
<asrwt>0</asrwt>
<pdfrwt beam="1">  1        2 0.14238495E+00 0.14069464E+04</pdfrwt>
<pdfrwt beam="2">  1       -2 0.82262961E-01 0.14069464E+04</pdfrwt>
<totfact> 0.35599153E+01</totfact>
</mgrwt>
</event>
<event>
12    1  0.1114484E-007  0.2404776E+04  0.7818608E-02  0.8437718E-01
          3   -1    0    0  501    0  0.00000000000E+00  0.00000000000E+00  0.27201028144E+04  0.27201028144E+04  0.00000000000E+00 0. -1.
         -3   -1    0    0    0  501 -0.00000000000E+00 -0.00000000000E+00 -0.53150084253E+03  0.53150084253E+03  0.00000000000E+00 0.  1.
         23    2    1    2    0    0  0.94591436079E+03 -0.27290702479E+03  0.52832869910E+03  0.11210012324E+04  0.90996300266E+02 0.  0.
        254    2    1    2    0    0 -0.94591436079E+03  0.27290702479E+03  0.16602732727E+04  0.21306024245E+04  0.90206825071E+03 0.  0.
        -24    2    4    4    0    0 -0.40338709070E+03  0.25142632129E+03  0.14747063161E+04  0.15513523233E+04  0.77453032579E+02 0.  0.
         24    2    4    4    0    0 -0.54252727009E+03  0.21480703496E+02  0.18556695667E+03  0.57925010122E+03  0.79361986749E+02 0.  0.
         13    1    3    3    0    0  0.84770205893E+03 -0.26818010371E+03  0.49212709925E+03  0.10162226284E+04  0.00000000000E+00 0.  1.
        -13    1    3    3    0    0  0.98212301864E+02 -0.47269210810E+01  0.36201599847E+02  0.10477860398E+03  0.00000000000E+00 0. -1.
          2    1    6    6  502    0 -0.11624826221E+02 -0.10125243033E+02  0.12838126566E+02  0.20061770233E+02  0.00000000000E+00 0. -1.
          3    1    5    5  503    0 -0.36274691315E+02  0.35894589269E+02  0.23854435560E+03  0.24394196924E+03  0.00000000000E+00 0. -1.
         -4    1    5    5    0  503 -0.36711239938E+03  0.21553173203E+03  0.12361619605E+04  0.13074103540E+04  0.00000000000E+00 0.  1.
         -1    1    6    6    0  502 -0.53090244387E+03  0.31605946529E+02  0.17272883010E+03  0.55918833099E+03  0.00000000000E+00 0.  1.
<mgrwt>
<rscale>  0 0.24047760E+04</rscale>
<asrwt>0</asrwt>
<pdfrwt beam="1">  1        3 0.41847735E+00 0.24047760E+04</pdfrwt>
<pdfrwt beam="2">  1       -3 0.81769362E-01 0.24047760E+04</pdfrwt>
<totfact> 0.28878620E-02</totfact>
</mgrwt>
</event>
<event>
12    1  0.1893488E-007  0.1627245E+04  0.7818608E-02  0.8803983E-01
         -2   -1    0    0    0  501 -0.00000000000E+00  0.00000000000E+00  0.71752581048E+03  0.71752581048E+03  0.00000000000E+00 0.  1.
          2   -1    0    0  501    0  0.00000000000E+00 -0.00000000000E+00 -0.92258900615E+03  0.92258900615E+03  0.00000000000E+00 0. -1.
         23    2    1    2    0    0  0.35284884200E+03 -0.14807988189E+03  0.34008647110E+03  0.51997524033E+03  0.91024645123E+02 0.  0.
        254    2    1    2    0    0 -0.35284884200E+03  0.14807988189E+03 -0.54514966677E+03  0.11201395763E+04  0.90060788054E+03 0.  0.
        -24    2    4    4    0    0 -0.17430313572E+03  0.42828904084E+03  0.86999653247E+01  0.46932500069E+03  0.79857255521E+02 0.  0.
         24    2    4    4    0    0 -0.17854570628E+03 -0.28020915895E+03 -0.55384963210E+03  0.65081457561E+03  0.80090291917E+02 0.  0.
         11    1    3    3    0    0  0.13602669128E+02 -0.26568761098E+02  0.10530704046E+02  0.31651657166E+02  0.00000000000E+00 0. -1.
        -11    1    3    3    0    0  0.33924617287E+03 -0.12151112079E+03  0.32955576705E+03  0.48832358317E+03  0.00000000000E+00 0.  1.
          2    1    6    6  502    0 -0.34034671548E+02 -0.87264540001E+02 -0.10065177600E+03  0.13749268642E+03  0.00000000000E+00 0. -1.
          3    1    5    5  503    0 -0.57997275992E+02  0.79196987454E+02 -0.20255954301E+02  0.10023048702E+03  0.00000000000E+00 0. -1.
         -4    1    5    5    0  503 -0.11630585972E+03  0.34909205338E+03  0.28955919626E+02  0.36909451367E+03  0.00000000000E+00 0.  1.
         -1    1    6    6    0  502 -0.14451103473E+03 -0.19294461895E+03 -0.45319785610E+03  0.51332188918E+03  0.00000000000E+00 0.  1.
<mgrwt>
<rscale>  0 0.16272448E+04</rscale>
<asrwt>0</asrwt>
<pdfrwt beam="1">  1        2 0.14193677E+00 0.16272448E+04</pdfrwt>
<pdfrwt beam="2">  1       -2 0.11038859E+00 0.16272448E+04</pdfrwt>
<totfact> 0.17651046E+01</totfact>
</mgrwt>
</event>
<event>
12    1  0.1114484E-007  0.2078539E+04  0.7818608E-02  0.8570757E-01
         -1   -1    0    0    0  501 -0.00000000000E+00  0.00000000000E+00  0.13581271997E+04  0.13581271997E+04  0.00000000000E+00 0.  1.
          1   -1    0    0  501    0  0.00000000000E+00 -0.00000000000E+00 -0.79527207979E+03  0.79527207979E+03  0.00000000000E+00 0. -1.
         23    2    1    2    0    0 -0.84243834652E+03 -0.59110140963E+02  0.10716256088E+03  0.85644289491E+03  0.93884191115E+02 0.  0.
        254    2    1    2    0    0  0.84243834652E+03  0.59110140963E+02  0.45569255905E+03  0.12969563846E+04  0.87249285309E+03 0.  0.
        -24    2    4    4    0    0  0.37497597305E+03  0.45320775540E+03  0.27891041509E+03  0.65576000330E+03  0.78904450838E+02 0.  0.
         24    2    4    4    0    0  0.46746237347E+03 -0.39409761444E+03  0.17678214395E+03  0.64119638129E+03  0.77761639897E+02 0.  0.
         11    1    3    3    0    0 -0.61951316068E+03 -0.12109738414E+02  0.10588445966E+03  0.62861333172E+03  0.00000000000E+00 0. -1.
        -11    1    3    3    0    0 -0.22292518585E+03 -0.47000402549E+02  0.12781012192E+01  0.22782956320E+03  0.00000000000E+00 0.  1.
          2    1    6    6  502    0  0.17185034485E+03 -0.15491649566E+03  0.10563199795E+03  0.25434185783E+03  0.00000000000E+00 0. -1.
          3    1    5    5  503    0  0.28345775106E+03  0.31319109267E+03  0.16558307976E+03  0.45371214825E+03  0.00000000000E+00 0. -1.
         -4    1    5    5    0  503  0.91518221993E+02  0.14001666273E+03  0.11332733534E+03  0.20204785505E+03  0.00000000000E+00 0.  1.
         -1    1    6    6    0  502  0.29561202862E+03 -0.23918111877E+03  0.71150146003E+02  0.38685452345E+03  0.00000000000E+00 0.  1.
<mgrwt>
<rscale>  0 0.20785386E+04</rscale>
<asrwt>0</asrwt>
<pdfrwt beam="1">  1        1 0.12234955E+00 0.20785386E+04</pdfrwt>
<pdfrwt beam="2">  1       -1 0.20894265E+00 0.20785386E+04</pdfrwt>
<totfact> 0.26878010E+00</totfact>
</mgrwt>
</event>
<event>
12    1  0.1114484E-007  0.1406888E+04  0.7818608E-02  0.8948848E-01
          2   -1    0    0  501    0  0.00000000000E+00  0.00000000000E+00  0.10431419810E+04  0.10431419810E+04  0.00000000000E+00 0. -1.
         -2   -1    0    0    0  501 -0.00000000000E+00 -0.00000000000E+00 -0.47436794105E+03  0.47436794105E+03  0.00000000000E+00 0.  1.
         23    2    1    2    0    0 -0.62505178371E+02 -0.36215820388E+03 -0.29853281498E+02  0.37816218414E+03  0.83964022857E+02 0.  0.
        254    2    1    2    0    0  0.62505178371E+02  0.36215820388E+03  0.59862732143E+03  0.11393477379E+04  0.89704689729E+03 0.  0.
        -24    2    4    4    0    0  0.30982958133E+03  0.44454207213E+03  0.80276971570E+02  0.55362994253E+03  0.80310010194E+02 0.  0.
         24    2    4    4    0    0 -0.24732440295E+03 -0.82383868251E+02  0.51835034986E+03  0.58571779537E+03  0.80136062879E+02 0.  0.
         11    1    3    3    0    0 -0.34223918023E+02 -0.16901635269E+03 -0.55786716070E+02  0.18124558404E+03  0.00000000000E+00 0. -1.
        -11    1    3    3    0    0 -0.28281260348E+02 -0.19314185119E+03  0.25933434572E+02  0.19691660010E+03  0.00000000000E+00 0.  1.
          2    1    6    6  502    0 -0.16976490994E+03 -0.91838666429E+02  0.33920494965E+03  0.39027485592E+03  0.00000000000E+00 0. -1.
          3    1    5    5  503    0 -0.26956347278E+01  0.49097220863E+01  0.74779085707E+01  0.93429617436E+01  0.00000000000E+00 0. -1.
         -4    1    5    5    0  503  0.31252521605E+03  0.43963235004E+03  0.72799062999E+02  0.54428698078E+03  0.00000000000E+00 0.  1.
         -1    1    6    6    0  502 -0.77559493015E+02  0.94547981781E+01  0.17914540021E+03  0.19544293945E+03  0.00000000000E+00 0.  1.
<mgrwt>
<rscale>  0 0.14068875E+04</rscale>
<asrwt>0</asrwt>
<pdfrwt beam="1">  1        2 0.16048338E+00 0.14068875E+04</pdfrwt>
<pdfrwt beam="2">  1       -2 0.72979683E-01 0.14068875E+04</pdfrwt>
<totfact> 0.39023073E+01</totfact>
</mgrwt>
</event>
<event>
12    1  0.1114484E-007  0.1172704E+04  0.7818608E-02  0.9137090E-01
          1   -1    0    0  501    0  0.00000000000E+00  0.00000000000E+00  0.14452349680E+04  0.14452349680E+04  0.00000000000E+00 0. -1.
         -1   -1    0    0    0  501 -0.00000000000E+00 -0.00000000000E+00 -0.23789135271E+03  0.23789135271E+03  0.00000000000E+00 0.  1.
         23    2    1    2    0    0  0.40447066688E+02 -0.94342281969E+02  0.54681979541E+03  0.56396548324E+03  0.92242865645E+02 0.  0.
        254    2    1    2    0    0 -0.40447066688E+02  0.94342281969E+02  0.66052381989E+03  0.11191608375E+04  0.89760393945E+03 0.  0.
        -24    2    4    4    0    0 -0.19207541343E+03  0.13176961893E+03 -0.15103644631E+03  0.28882897622E+03  0.79711808857E+02 0.  0.
         24    2    4    4    0    0  0.15162834675E+03 -0.37427336965E+02  0.81156026619E+03  0.83033186125E+03  0.80180877103E+02 0.  0.
         11    1    3    3    0    0  0.33209984515E+02  0.31277200075E+01  0.23017400388E+03  0.23257849808E+03  0.00000000000E+00 0.  1.
        -11    1    3    3    0    0  0.72370821731E+01 -0.97470001976E+02  0.31664579153E+03  0.33138698517E+03  0.00000000000E+00 0. -1.
          4    1    6    6  502    0  0.14669375595E+03 -0.52779298278E+02  0.77249400757E+03  0.78806833720E+03  0.00000000000E+00 0. -1.
          3    1    5    5  503    0 -0.35717638425E+02  0.68331594522E+02 -0.54604016983E+02  0.94480448640E+02  0.00000000000E+00 0. -1.
         -4    1    5    5    0  503 -0.15635777501E+03  0.63438024412E+02 -0.96432429324E+02  0.19434852758E+03  0.00000000000E+00 0.  1.
         -3    1    6    6    0  502  0.49345907969E+01  0.15351961313E+02  0.39066258627E+02  0.42263524055E+02  0.00000000000E+00 0.  1.
<mgrwt>
<rscale>  0 0.11727044E+04</rscale>
<asrwt>0</asrwt>
<pdfrwt beam="1">  1        1 0.22234384E+00 0.11727044E+04</pdfrwt>
<pdfrwt beam="2">  1       -1 0.36598671E-01 0.11727044E+04</pdfrwt>
<totfact> 0.50690417E+01</totfact>
</mgrwt>
</event>
<event>
12    1  0.1114484E-007  0.1545896E+04  0.7818608E-02  0.8854493E-01
          1   -1    0    0  501    0  0.00000000000E+00  0.00000000000E+00  0.98517301789E+03  0.98517301789E+03  0.00000000000E+00 0. -1.
         -1   -1    0    0    0  501 -0.00000000000E+00 -0.00000000000E+00 -0.60644059557E+03  0.60644059557E+03  0.00000000000E+00 0.  1.
         23    2    1    2    0    0 -0.23242704464E+03 -0.17855504372E+02  0.59057630789E+03  0.64164900863E+03  0.92692635776E+02 0.  0.
        254    2    1    2    0    0  0.23242704464E+03  0.17855504372E+02 -0.21184388557E+03  0.94996460482E+03  0.89622194151E+03 0.  0.
        -24    2    4    4    0    0 -0.30809231217E+03 -0.13049336807E+03 -0.16576360797E+03  0.38175297890E+03  0.79425255680E+02 0.  0.
         24    2    4    4    0    0  0.54051935681E+03  0.14834887244E+03 -0.46080277594E+02  0.56821162592E+03  0.81070936892E+02 0.  0.
         11    1    3    3    0    0 -0.14124401491E+01 -0.19480300840E+02  0.55274689763E+02  0.58623957871E+02  0.00000000000E+00 0.  1.
        -11    1    3    3    0    0 -0.23101460449E+03  0.16247964680E+01  0.53530161812E+03  0.58302505076E+03  0.00000000000E+00 0. -1.
          4    1    6    6  502    0  0.30498390926E+03  0.12315295687E+03 -0.39140273802E+02  0.33123073035E+03  0.00000000000E+00 0. -1.
          3    1    5    5  503    0 -0.11017010387E+03 -0.86145149066E+02 -0.83450620619E+02  0.16285712934E+03  0.00000000000E+00 0. -1.
         -4    1    5    5    0  503 -0.19792220830E+03 -0.44348219004E+02 -0.82312987354E+02  0.21889584956E+03  0.00000000000E+00 0.  1.
         -3    1    6    6    0  502  0.23553544755E+03  0.25195915568E+02 -0.69400037928E+01  0.23698089557E+03  0.00000000000E+00 0.  1.
<mgrwt>
<rscale>  0 0.15458964E+04</rscale>
<asrwt>0</asrwt>
<pdfrwt beam="1">  1        1 0.15156508E+00 0.15458964E+04</pdfrwt>
<pdfrwt beam="2">  1       -1 0.93298553E-01 0.15458964E+04</pdfrwt>
<totfact> 0.16706632E+01</totfact>
</mgrwt>
</event>
<event>
12    1  0.1114484E-007  0.1616094E+04  0.7818608E-02  0.8810721E-01
         -2   -1    0    0    0  501 -0.00000000000E+00  0.00000000000E+00  0.10577362099E+04  0.10577362099E+04  0.00000000000E+00 0.  1.
          2   -1    0    0  501    0  0.00000000000E+00 -0.00000000000E+00 -0.61729973980E+03  0.61729973980E+03  0.00000000000E+00 0. -1.
         23    2    1    2    0    0 -0.14941905476E+03  0.20784319979E+03  0.62220565712E+03  0.67914606849E+03  0.92599422030E+02 0.  0.
        254    2    1    2    0    0  0.14941905476E+03 -0.20784319979E+03 -0.18176918706E+03  0.99588988118E+03  0.94510939496E+03 0.  0.
        -24    2    4    4    0    0  0.46981262721E+03  0.39720052367E+02 -0.30289810798E+03  0.56577681035E+03  0.77810976536E+02 0.  0.
         24    2    4    4    0    0 -0.32039357244E+03 -0.24756325216E+03  0.12112892092E+03  0.43011307083E+03  0.79908905213E+02 0.  0.
         13    1    3    3    0    0 -0.12005005735E+03  0.19841637389E+03  0.47308246297E+03  0.52686629278E+03  0.00000000000E+00 0.  1.
        -13    1    3    3    0    0 -0.29368997408E+02  0.94268259038E+01  0.14912319415E+03  0.15227977570E+03  0.00000000000E+00 0. -1.
          4    1    6    6  502    0 -0.14391716568E+03 -0.15234505869E+03  0.86004826018E+02  0.22653476021E+03  0.00000000000E+00 0. -1.
          3    1    5    5  503    0  0.54970434626E+02 -0.19213866121E+02 -0.27758365867E+02  0.64509287780E+02  0.00000000000E+00 0. -1.
         -4    1    5    5    0  503  0.41484219258E+03  0.58933918488E+02 -0.27513974212E+03  0.50126752257E+03  0.00000000000E+00 0.  1.
         -3    1    6    6    0  502 -0.17647640677E+03 -0.95218193465E+02  0.35124094904E+02  0.20357831062E+03  0.00000000000E+00 0.  1.
<mgrwt>
<rscale>  0 0.16160944E+04</rscale>
<asrwt>0</asrwt>
<pdfrwt beam="1">  1        2 0.94969191E-01 0.16160944E+04</pdfrwt>
<pdfrwt beam="2">  1       -2 0.16272865E+00 0.16160944E+04</pdfrwt>
<totfact> 0.11027104E+01</totfact>
</mgrwt>
</event>
<event>
12    1  0.1114484E-007  0.1908086E+04  0.7818608E-02  0.8650842E-01
          2   -1    0    0  501    0  0.00000000000E+00  0.00000000000E+00  0.30256671991E+04  0.30256671991E+04  0.00000000000E+00 0. -1.
         -2   -1    0    0    0  501 -0.00000000000E+00 -0.00000000000E+00 -0.30082545046E+03  0.30082545046E+03  0.00000000000E+00 0.  1.
         23    2    1    2    0    0 -0.63042112043E+03 -0.18190381419E+03  0.16732455196E+04  0.17995474303E+04  0.90003325569E+02 0.  0.
        254    2    1    2    0    0  0.63042112043E+03  0.18190381419E+03  0.10515962291E+04  0.15269452192E+04  0.89173274403E+03 0.  0.
        -24    2    4    4    0    0  0.10378652326E+03 -0.24885655958E+03  0.70562610958E+03  0.75965472464E+03  0.80410599327E+02 0.  0.
         24    2    4    4    0    0  0.52663459717E+03  0.43076037377E+03  0.34597011948E+03  0.76729049457E+03  0.78363773128E+02 0.  0.
         11    1    3    3    0    0 -0.51475119560E+03 -0.16685639977E+03  0.12886155263E+04  0.13976193423E+04  0.00000000000E+00 0. -1.
        -11    1    3    3    0    0 -0.11566992483E+03 -0.15047414420E+02  0.38462999330E+03  0.40192808802E+03  0.00000000000E+00 0.  1.
          2    1    6    6  502    0  0.50839110445E+03  0.39436457565E+03  0.33349738581E+03  0.72471059048E+03  0.00000000000E+00 0. -1.
          3    1    5    5  503    0  0.94703560272E+00 -0.10216181903E+03  0.24950312257E+03  0.26961035276E+03  0.00000000000E+00 0. -1.
         -4    1    5    5    0  503  0.10283948765E+03 -0.14669474054E+03  0.45612298702E+03  0.49004437188E+03  0.00000000000E+00 0.  1.
         -1    1    6    6    0  502  0.18243492723E+02  0.36395798116E+02  0.12472733675E+02  0.42579904093E+02  0.00000000000E+00 0.  1.
<mgrwt>
<rscale>  0 0.19080856E+04</rscale>
<asrwt>0</asrwt>
<pdfrwt beam="1">  1        2 0.46548724E+00 0.19080856E+04</pdfrwt>
<pdfrwt beam="2">  1       -2 0.46280841E-01 0.19080856E+04</pdfrwt>
<totfact> 0.69724963E+00</totfact>
</mgrwt>
</event>
<event>
12    1  0.1114484E-007  0.1915972E+04  0.7818608E-02  0.8646947E-01
          1   -1    0    0  501    0  0.00000000000E+00  0.00000000000E+00  0.20351518490E+04  0.20351518490E+04  0.00000000000E+00 0. -1.
         -1   -1    0    0    0  501 -0.00000000000E+00 -0.00000000000E+00 -0.45094303761E+03  0.45094303761E+03  0.00000000000E+00 0.  1.
         23    2    1    2    0    0  0.38742933964E+03 -0.15222018048E+03 -0.17582042012E+03  0.46211253795E+03  0.96761051258E+02 0.  0.
        254    2    1    2    0    0 -0.38742933964E+03  0.15222018048E+03  0.17600292315E+04  0.20239823487E+04  0.90858636099E+03 0.  0.
        -24    2    4    4    0    0 -0.50013892293E+03  0.42404521465E+03  0.93667619097E+03  0.11460361777E+04  0.77995818038E+02 0.  0.
         24    2    4    4    0    0  0.11270958330E+03 -0.27182503417E+03  0.82335304058E+03  0.87794617098E+03  0.79290291506E+02 0.  0.
         13    1    3    3    0    0  0.82827224666E+02 -0.47786257007E+02 -0.82723137847E+00  0.95627191825E+02  0.00000000000E+00 0. -1.
        -13    1    3    3    0    0  0.30460211497E+03 -0.10443392347E+03 -0.17499318874E+03  0.36648534612E+03  0.00000000000E+00 0.  1.
          2    1    6    6  502    0  0.56348130727E+02 -0.21971042470E+03  0.64714183189E+03  0.68574071860E+03  0.00000000000E+00 0. -1.
          1    1    5    5  503    0 -0.29186442334E+03  0.28488262745E+03  0.62278950731E+03  0.74445263345E+03  0.00000000000E+00 0. -1.
         -2    1    5    5    0  503 -0.20827449959E+03  0.13916258720E+03  0.31388668366E+03  0.40158354428E+03  0.00000000000E+00 0.  1.
         -3    1    6    6    0  502  0.56361452568E+02 -0.52114609465E+02  0.17621120869E+03  0.19220545238E+03  0.00000000000E+00 0.  1.
<mgrwt>
<rscale>  0 0.19159724E+04</rscale>
<asrwt>0</asrwt>
<pdfrwt beam="1">  1        1 0.31310028E+00 0.19159724E+04</pdfrwt>
<pdfrwt beam="2">  1       -1 0.69375853E-01 0.19159724E+04</pdfrwt>
<totfact> 0.55386462E+00</totfact>
</mgrwt>
</event>
<event>
12    1  0.1114484E-007  0.2153651E+04  0.7818608E-02  0.8537971E-01
         -2   -1    0    0    0  501 -0.00000000000E+00  0.00000000000E+00  0.11177070435E+04  0.11177070435E+04  0.00000000000E+00 0.  1.
          2   -1    0    0  501    0  0.00000000000E+00 -0.00000000000E+00 -0.10374393017E+04  0.10374393017E+04  0.00000000000E+00 0. -1.
         23    2    1    2    0    0  0.39947212866E+03  0.77534792426E+03  0.18931813816E+03  0.89739195338E+03  0.93426844704E+02 0.  0.
        254    2    1    2    0    0 -0.39947212866E+03 -0.77534792426E+03 -0.10905039640E+03  0.12577543918E+04  0.89961754981E+03 0.  0.
        -24    2    4    4    0    0 -0.56503988161E+03 -0.51174541793E+03 -0.36113829961E+03  0.84791008792E+03  0.85890658219E+02 0.  0.
         24    2    4    4    0    0  0.16556775295E+03 -0.26360250634E+03  0.25208790321E+03  0.40984430389E+03  0.86747220841E+02 0.  0.
         11    1    3    3    0    0  0.94350226002E+02  0.11418332692E+03  0.47369222407E+02  0.15551090163E+03  0.00000000000E+00 0. -1.
        -11    1    3    3    0    0  0.30512190266E+03  0.66116459734E+03  0.14194891576E+03  0.74188105175E+03  0.00000000000E+00 0.  1.
          4    1    6    6  502    0  0.61294408739E+01 -0.32785902699E+01  0.33930808309E+02  0.34635515762E+02  0.00000000000E+00 0. -1.
          3    1    5    5  503    0 -0.26915047890E+02 -0.89035206302E+01 -0.27037495243E+02  0.39175485084E+02  0.00000000000E+00 0. -1.
         -4    1    5    5    0  503 -0.53812483372E+03 -0.50284189730E+03 -0.33410080437E+03  0.80873460284E+03  0.00000000000E+00 0.  1.
         -3    1    6    6    0  502  0.15943831208E+03 -0.26032391607E+03  0.21815709490E+03  0.37520878813E+03  0.00000000000E+00 0.  1.
<mgrwt>
<rscale>  0 0.21536511E+04</rscale>
<asrwt>0</asrwt>
<pdfrwt beam="1">  1        2 0.15960605E+00 0.21536511E+04</pdfrwt>
<pdfrwt beam="2">  1       -2 0.17195493E+00 0.21536511E+04</pdfrwt>
<totfact> 0.45147788E+00</totfact>
</mgrwt>
</event>
<event>
12    1  0.1114484E-007  0.1407431E+04  0.7818608E-02  0.8948457E-01
         -1   -1    0    0    0  501 -0.00000000000E+00  0.00000000000E+00  0.72739222489E+03  0.72739222489E+03  0.00000000000E+00 0.  1.
          1   -1    0    0  501    0  0.00000000000E+00 -0.00000000000E+00 -0.68080940617E+03  0.68080940617E+03  0.00000000000E+00 0. -1.
         23    2    1    2    0    0 -0.16136868544E+03  0.33840853500E+03 -0.14927041825E+03  0.41412980982E+03  0.93067998895E+02 0.  0.
        254    2    1    2    0    0  0.16136868544E+03 -0.33840853500E+03  0.19585323697E+03  0.99407182124E+03  0.89958885396E+03 0.  0.
        -24    2    4    4    0    0  0.46365761388E+03 -0.36253795988E+03  0.29719972679E+03  0.66442616941E+03  0.81989644059E+02 0.  0.
         24    2    4    4    0    0 -0.30228892844E+03  0.24129424886E+02 -0.10134648982E+03  0.32964565183E+03  0.80214209261E+02 0.  0.
         13    1    3    3    0    0 -0.10929592632E+03  0.16434296700E+03 -0.11746730487E+03  0.22967972924E+03  0.00000000000E+00 0. -1.
        -13    1    3    3    0    0 -0.52072759122E+02  0.17406556800E+03 -0.31803113387E+02  0.18445008058E+03  0.00000000000E+00 0.  1.
          2    1    6    6  502    0 -0.25364539069E+02  0.97422025077E+01  0.12473237139E+02  0.29897357686E+02  0.00000000000E+00 0. -1.
          3    1    5    5  503    0  0.87771891396E+02 -0.10996757628E+03  0.84255028928E+02  0.16399903247E+03  0.00000000000E+00 0. -1.
         -4    1    5    5    0  503  0.37588572249E+03 -0.25257038361E+03  0.21294469786E+03  0.50042713694E+03  0.00000000000E+00 0.  1.
         -1    1    6    6    0  502 -0.27692438937E+03  0.14387222378E+02 -0.11381972695E+03  0.29974829414E+03  0.00000000000E+00 0.  1.
<mgrwt>
<rscale>  0 0.14074309E+04</rscale>
<asrwt>0</asrwt>
<pdfrwt beam="1">  1        1 0.10473991E+00 0.14074309E+04</pdfrwt>
<pdfrwt beam="2">  1       -1 0.11190650E+00 0.14074309E+04</pdfrwt>
<totfact> 0.20297296E+01</totfact>
</mgrwt>
</event>
<event>
12    1  0.1114484E-007  0.4111999E+04  0.7818608E-02  0.7982326E-01
         -2   -1    0    0    0  501 -0.00000000000E+00  0.00000000000E+00  0.24461919114E+04  0.24461919114E+04  0.00000000000E+00 0.  1.
          2   -1    0    0  501    0  0.00000000000E+00 -0.00000000000E+00 -0.17280468097E+04  0.17280468097E+04  0.00000000000E+00 0. -1.
         23    2    1    2    0    0 -0.97449613857E+03 -0.16849202120E+04  0.52270997226E+03  0.20175189746E+04  0.92510825583E+02 0.  0.
        254    2    1    2    0    0  0.97449613857E+03  0.16849202120E+04  0.19543512937E+03  0.21567197465E+04  0.90810039665E+03 0.  0.
        -24    2    4    4    0    0 -0.78683722556E+02  0.25030126130E+03 -0.19101942269E+03  0.33388004912E+03  0.78393990511E+02 0.  0.
         24    2    4    4    0    0  0.10531798611E+04  0.14346189507E+04  0.38645455206E+03  0.18228396974E+04  0.77962093896E+02 0.  0.
         13    1    3    3    0    0 -0.18502341573E+03 -0.37520981780E+03  0.13937165446E+03  0.44095411304E+03  0.00000000000E+00 0. -1.
        -13    1    3    3    0    0 -0.78947272284E+03 -0.13097103942E+04  0.38333831780E+03  0.15765648615E+04  0.00000000000E+00 0.  1.
          2    1    6    6  502    0  0.10374784415E+04  0.13928931269E+04  0.37772808808E+03  0.17774114010E+04  0.00000000000E+00 0. -1.
          3    1    5    5  503    0 -0.42691250461E+02  0.22632949694E+03 -0.16613643906E+03  0.28398750049E+03  0.00000000000E+00 0. -1.
         -4    1    5    5    0  503 -0.35992472095E+02  0.23971764363E+02 -0.24882983634E+02  0.49892548629E+02  0.00000000000E+00 0.  1.
         -1    1    6    6    0  502  0.15701419573E+02  0.41725823737E+02  0.87264639781E+01  0.45428296431E+02  0.00000000000E+00 0.  1.
<mgrwt>
<rscale>  0 0.41119991E+04</rscale>
<asrwt>0</asrwt>
<pdfrwt beam="1">  1        2 0.26585335E+00 0.41119991E+04</pdfrwt>
<pdfrwt beam="2">  1       -2 0.37633722E+00 0.41119991E+04</pdfrwt>
<totfact> 0.78166272E-02</totfact>
</mgrwt>
</event>
<event>
12    1  0.1114484E-007  0.1246948E+04  0.7818608E-02  0.9072727E-01
          2   -1    0    0  501    0  0.00000000000E+00  0.00000000000E+00  0.19597506520E+04  0.19597506520E+04  0.00000000000E+00 0. -1.
         -2   -1    0    0    0  501 -0.00000000000E+00 -0.00000000000E+00 -0.19835159059E+03  0.19835159059E+03  0.00000000000E+00 0.  1.
         23    2    1    2    0    0 -0.10427629974E+03  0.12922673936E+02 -0.30047713652E+02  0.14139172679E+03  0.89711833769E+02 0.  0.
        254    2    1    2    0    0  0.10427629974E+03 -0.12922673936E+02  0.17914467751E+04  0.20167105158E+04  0.92021693884E+03 0.  0.
        -24    2    4    4    0    0 -0.36884514612E+03  0.13928847043E+03  0.59071650454E+03  0.71475192450E+03  0.80475493347E+02 0.  0.
         24    2    4    4    0    0  0.47312144586E+03 -0.15221114436E+03  0.12007302705E+04  0.13019585913E+04  0.79566676097E+02 0.  0.
         13    1    3    3    0    0  0.12176665735E+02  0.69865909896E+01  0.10935285135E+02  0.17795058389E+02  0.00000000000E+00 0. -1.
        -13    1    3    3    0    0 -0.11645296548E+03  0.59360829466E+01 -0.40982998787E+02  0.12359666840E+03  0.00000000000E+00 0.  1.
          2    1    6    6  502    0  0.21601671920E+02 -0.26932817233E+02  0.72929948537E+02  0.80689443346E+02  0.00000000000E+00 0. -1.
          3    1    5    5  503    0 -0.66227791127E+02 -0.58975534850E+01  0.10757725803E+03  0.12646646946E+03  0.00000000000E+00 0. -1.
         -4    1    5    5    0  503 -0.30261735499E+03  0.14518602391E+03  0.48313924651E+03  0.58828545503E+03  0.00000000000E+00 0.  1.
         -3    1    6    6    0  502  0.45151977394E+03 -0.12527832713E+03  0.11278003220E+04  0.12212691480E+04  0.00000000000E+00 0.  1.
<mgrwt>
<rscale>  0 0.12469477E+04</rscale>
<asrwt>0</asrwt>
<pdfrwt beam="1">  1        2 0.30150009E+00 0.12469477E+04</pdfrwt>
<pdfrwt beam="2">  1       -2 0.30515631E-01 0.12469477E+04</pdfrwt>
<totfact> 0.68794515E+01</totfact>
</mgrwt>
</event>
<event>
12    1  0.1114484E-007  0.1467798E+04  0.7818608E-02  0.8906154E-01
         -1   -1    0    0    0  501 -0.00000000000E+00  0.00000000000E+00  0.46007211864E+03  0.46007211864E+03  0.00000000000E+00 0.  1.
          1   -1    0    0  501    0  0.00000000000E+00 -0.00000000000E+00 -0.11707029040E+04  0.11707029040E+04  0.00000000000E+00 0. -1.
         23    2    1    2    0    0 -0.26766120954E+03  0.35096033329E+03 -0.70477784987E+02  0.45615425425E+03  0.91070889173E+02 0.  0.
        254    2    1    2    0    0  0.26766120954E+03 -0.35096033329E+03 -0.64015300036E+03  0.11746207684E+04  0.88041036285E+03 0.  0.
        -24    2    4    4    0    0  0.36267232442E+03 -0.97463814584E+02  0.88016557799E+02  0.39343146893E+03  0.77530614887E+02 0.  0.
         24    2    4    4    0    0 -0.95011114881E+02 -0.25349651871E+03 -0.72816955816E+03  0.78118929946E+03  0.82086656662E+02 0.  0.
         11    1    3    3    0    0 -0.47397005089E+02  0.12833223090E+03 -0.33121965928E+02  0.14075760088E+03  0.00000000000E+00 0. -1.
        -11    1    3    3    0    0 -0.22026420445E+03  0.22262810240E+03 -0.37355819059E+02  0.31539665337E+03  0.00000000000E+00 0.  1.
          2    1    6    6  502    0 -0.72288115848E+02 -0.82854693813E+02 -0.25592358553E+03  0.27854506567E+03  0.00000000000E+00 0. -1.
          1    1    5    5  503    0  0.72235367903E+00  0.26934261258E+00  0.10576382257E+02  0.10604442556E+02  0.00000000000E+00 0. -1.
         -2    1    5    5    0  503  0.36194997074E+03 -0.97733157196E+02  0.77440175542E+02  0.38282702638E+03  0.00000000000E+00 0.  1.
         -1    1    6    6    0  502 -0.22722999033E+02 -0.17064182490E+03 -0.47224597264E+03  0.50264423379E+03  0.00000000000E+00 0.  1.
<mgrwt>
<rscale>  0 0.14677980E+04</rscale>
<asrwt>0</asrwt>
<pdfrwt beam="1">  1        1 0.18010814E+00 0.14677980E+04</pdfrwt>
<pdfrwt beam="2">  1       -1 0.70780327E-01 0.14677980E+04</pdfrwt>
<totfact> 0.21963774E+01</totfact>
</mgrwt>
</event>
<event>
12    1  0.1114484E-007  0.2597888E+04  0.7818608E-02  0.8368919E-01
          1   -1    0    0  501    0  0.00000000000E+00  0.00000000000E+00  0.40892101629E+04  0.40892101629E+04  0.00000000000E+00 0. -1.
         -1   -1    0    0    0  501 -0.00000000000E+00 -0.00000000000E+00 -0.41261151717E+03  0.41261151717E+03  0.00000000000E+00 0.  1.
         23    2    1    2    0    0 -0.78396459087E+03 -0.80127843099E+03  0.12374875335E+04  0.16721848740E+04  0.90439226155E+02 0.  0.
        254    2    1    2    0    0  0.78396459087E+03  0.80127843099E+03  0.24391111122E+04  0.28296368060E+04  0.89494906703E+03 0.  0.
        -24    2    4    4    0    0  0.64922198137E+02  0.49890199757E+03  0.40865044716E+03  0.65308695273E+03  0.80058009441E+02 0.  0.
         24    2    4    4    0    0  0.71904239273E+03  0.30237643341E+03  0.20304606651E+04  0.21765498533E+04  0.78391845766E+02 0.  0.
         13    1    3    3    0    0 -0.79634875607E+02 -0.72464817224E+02  0.83156070765E+02  0.13604335799E+03  0.00000000000E+00 0. -1.
        -13    1    3    3    0    0 -0.70432971526E+03 -0.72881361376E+03  0.11543314627E+04  0.15361415160E+04  0.00000000000E+00 0.  1.
          2    1    6    6  502    0  0.24357661176E+03  0.92264916831E+02  0.58160070157E+03  0.63726113700E+03  0.00000000000E+00 0. -1.
          3    1    5    5  503    0  0.57211713327E+02  0.47906802956E+03  0.40790202131E+03  0.63179380820E+03  0.00000000000E+00 0. -1.
         -4    1    5    5    0  503  0.77104848096E+01  0.19833968009E+02  0.74842585293E+00  0.21293144537E+02  0.00000000000E+00 0.  1.
         -1    1    6    6    0  502  0.47546578097E+03  0.21011151658E+03  0.14488599635E+04  0.15392887163E+04  0.00000000000E+00 0.  1.
<mgrwt>
<rscale>  0 0.25978878E+04</rscale>
<asrwt>0</asrwt>
<pdfrwt beam="1">  1        1 0.62910923E+00 0.25978878E+04</pdfrwt>
<pdfrwt beam="2">  1       -1 0.63478698E-01 0.25978878E+04</pdfrwt>
<totfact> 0.17751928E-01</totfact>
</mgrwt>
</event>
<event>
12    1  0.1114484E-007  0.1862033E+04  0.7818608E-02  0.8673989E-01
          1   -1    0    0  501    0  0.00000000000E+00  0.00000000000E+00  0.18408093150E+04  0.18408093150E+04  0.00000000000E+00 0. -1.
         -1   -1    0    0    0  501 -0.00000000000E+00 -0.00000000000E+00 -0.47087529948E+03  0.47087529948E+03  0.00000000000E+00 0.  1.
         23    2    1    2    0    0 -0.60244762437E+03  0.32335584276E+03  0.37934153702E+03  0.78754970064E+03  0.93980785878E+02 0.  0.
        254    2    1    2    0    0  0.60244762437E+03 -0.32335584276E+03  0.99059247852E+03  0.15241349139E+04  0.93499285347E+03 0.  0.
        -24    2    4    4    0    0  0.30747056069E+03  0.29277838273E+03  0.20098659719E+03  0.47677432246E+03  0.81613817613E+02 0.  0.
         24    2    4    4    0    0  0.29497706368E+03 -0.61613422549E+03  0.78960588133E+03  0.10473605914E+04  0.82788336654E+02 0.  0.
         11    1    3    3    0    0 -0.42505672721E+03  0.26886166147E+03  0.30082158261E+03  0.58604900726E+03  0.00000000000E+00 0.  1.
        -11    1    3    3    0    0 -0.17739089716E+03  0.54494181290E+02  0.78519954417E+02  0.20150069338E+03  0.00000000000E+00 0. -1.
          4    1    6    6  502    0  0.20680556599E+03 -0.50111755486E+03  0.64612989196E+03  0.84342823239E+03  0.00000000000E+00 0. -1.
          3    1    5    5  503    0  0.27682530134E+03  0.26464146907E+03  0.20601699178E+03  0.43486820477E+03  0.00000000000E+00 0. -1.
         -4    1    5    5    0  503  0.30645259345E+02  0.28136913661E+02 -0.50303945882E+01  0.41906117696E+02  0.00000000000E+00 0.  1.
         -3    1    6    6    0  502  0.88171497689E+02 -0.11501667064E+03  0.14347598937E+03  0.20393235902E+03  0.00000000000E+00 0.  1.
<mgrwt>
<rscale>  0 0.18620329E+04</rscale>
<asrwt>0</asrwt>
<pdfrwt beam="1">  1        1 0.28320143E+00 0.18620329E+04</pdfrwt>
<pdfrwt beam="2">  1       -1 0.72442355E-01 0.18620329E+04</pdfrwt>
<totfact> 0.68948476E+00</totfact>
</mgrwt>
</event>
<event>
12    1  0.1114484E-007  0.2158719E+04  0.7818608E-02  0.8535809E-01
         -2   -1    0    0    0  501 -0.00000000000E+00  0.00000000000E+00  0.72758587300E+03  0.72758587300E+03  0.00000000000E+00 0.  1.
          2   -1    0    0  501    0  0.00000000000E+00 -0.00000000000E+00 -0.16012095330E+04  0.16012095330E+04  0.00000000000E+00 0. -1.
         23    2    1    2    0    0 -0.73467171668E+03 -0.33177932382E+03  0.36069560176E+02  0.81189905881E+03  0.89772030858E+02 0.  0.
        254    2    1    2    0    0  0.73467171668E+03  0.33177932382E+03 -0.90969322021E+03  0.15168963472E+04  0.90753111371E+03 0.  0.
        -24    2    4    4    0    0  0.13008591967E+03  0.54611602318E+03 -0.41084313946E+03  0.70024723176E+03  0.79931489839E+02 0.  0.
         24    2    4    4    0    0  0.60458579701E+03 -0.21433669936E+03 -0.49885008075E+03  0.81664911548E+03  0.81241418635E+02 0.  0.
         11    1    3    3    0    0 -0.61716915483E+02 -0.56774277839E+02 -0.25400131830E+01  0.83897246366E+02  0.00000000000E+00 0. -1.
        -11    1    3    3    0    0 -0.67295480120E+03 -0.27500504598E+03  0.38609573359E+02  0.72800181244E+03  0.00000000000E+00 0.  1.
          4    1    6    6  502    0  0.17831220251E+03 -0.25461911011E+02 -0.12965140726E+03  0.22193025454E+03  0.00000000000E+00 0. -1.
          3    1    5    5  503    0  0.82437036138E+02  0.20014966213E+03 -0.13385075038E+03  0.25450299715E+03  0.00000000000E+00 0. -1.
         -4    1    5    5    0  503  0.47648883528E+02  0.34596636105E+03 -0.27699238908E+03  0.44574423461E+03  0.00000000000E+00 0.  1.
         -3    1    6    6    0  502  0.42627359450E+03 -0.18887478835E+03 -0.36919867350E+03  0.59471886094E+03  0.00000000000E+00 0.  1.
<mgrwt>
<rscale>  0 0.21587195E+04</rscale>
<asrwt>0</asrwt>
<pdfrwt beam="1">  1        2 0.24633992E+00 0.21587195E+04</pdfrwt>
<pdfrwt beam="2">  1       -2 0.11193629E+00 0.21587195E+04</pdfrwt>
<totfact> 0.64318994E+00</totfact>
</mgrwt>
</event>
<event>
12    1  0.1114484E-007  0.1823759E+04  0.7818608E-02  0.8693766E-01
         -2   -1    0    0    0  501 -0.00000000000E+00  0.00000000000E+00  0.92106818200E+03  0.92106818200E+03  0.00000000000E+00 0. -1.
          2   -1    0    0  501    0  0.00000000000E+00 -0.00000000000E+00 -0.90278284620E+03  0.90278284620E+03  0.00000000000E+00 0.  1.
         23    2    1    2    0    0 -0.35104268869E+03  0.55292643912E+03  0.20798456170E+03  0.69326240242E+03  0.91632768914E+02 0.  0.
        254    2    1    2    0    0  0.35104268869E+03 -0.55292643912E+03 -0.18969922590E+03  0.11305886258E+04  0.90182383427E+03 0.  0.
        -24    2    4    4    0    0 -0.23212498258E+03  0.29243951358E+02  0.80298758819E+02  0.25978637901E+03  0.79396825028E+02 0.  0.
         24    2    4    4    0    0  0.58316767127E+03 -0.58217039048E+03 -0.26999798472E+03  0.87080224676E+03  0.79942134333E+02 0.  0.
         11    1    3    3    0    0 -0.16061904929E+03  0.32179106813E+03  0.14158497500E+03  0.38651555683E+03  0.00000000000E+00 0.  1.
        -11    1    3    3    0    0 -0.19042363941E+03  0.23113537099E+03  0.66399586699E+02  0.30674684559E+03  0.00000000000E+00 0. -1.
          4    1    6    6  502    0  0.20908043777E+03 -0.25267996511E+03 -0.13216741506E+03  0.35359584250E+03  0.00000000000E+00 0. -1.
          3    1    5    5  503    0 -0.37984697796E+02  0.12179478472E+02  0.47715090121E+02  0.62192497841E+02  0.00000000000E+00 0. -1.
         -2    1    5    5    0  503 -0.19414028478E+03  0.17064472886E+02  0.32583668698E+02  0.19759388117E+03  0.00000000000E+00 0.  1.
         -3    1    6    6    0  502  0.37408723351E+03 -0.32949042537E+03 -0.13783056966E+03  0.51720640427E+03  0.00000000000E+00 0.  1.
<mgrwt>
<rscale>  0 0.18237594E+04</rscale>
<asrwt>0</asrwt>
<pdfrwt beam="1">  1        2 0.13888967E+00 0.18237594E+04</pdfrwt>
<pdfrwt beam="2">  1       -2 0.14170280E+00 0.18237594E+04</pdfrwt>
<totfact> 0.95722509E+00</totfact>
</mgrwt>
</event>
<event>
12    1  0.1114484E-007  0.1352956E+04  0.7818608E-02  0.8988594E-01
         -1   -1    0    0    0  501 -0.00000000000E+00  0.00000000000E+00  0.12446743265E+04  0.12446743265E+04  0.00000000000E+00 0.  1.
          1   -1    0    0  501    0  0.00000000000E+00 -0.00000000000E+00 -0.36766434496E+03  0.36766434496E+03  0.00000000000E+00 0. -1.
         23    2    1    2    0    0 -0.24078506946E+03  0.28201717254E+03  0.21681963980E+03  0.43935570485E+03  0.92258028930E+02 0.  0.
        254    2    1    2    0    0  0.24078506946E+03 -0.28201717254E+03  0.66019034169E+03  0.11729829666E+04  0.89583849957E+03 0.  0.
        -24    2    4    4    0    0 -0.23433245823E+03 -0.33905487493E+03  0.10144650257E+03  0.43289205632E+03  0.85054278801E+02 0.  0.
         24    2    4    4    0    0  0.47511752769E+03  0.57037702395E+02  0.55874383912E+03  0.74009091025E+03  0.80931533208E+02 0.  0.
         13    1    3    3    0    0 -0.21460985861E+03  0.25463752909E+03  0.22326859192E+03  0.40093207252E+03  0.00000000000E+00 0.  1.
        -13    1    3    3    0    0 -0.26175210853E+02  0.27379643449E+02 -0.64489521214E+01  0.38423632338E+02  0.00000000000E+00 0. -1.
          2    1    6    6  502    0  0.32277174928E+03  0.70658966360E+02  0.35022580235E+03  0.48148977590E+03  0.00000000000E+00 0. -1.
          1    1    5    5  503    0 -0.14721252137E+03 -0.24272993711E+03  0.10575744332E+03  0.30294221501E+03  0.00000000000E+00 0. -1.
         -2    1    5    5    0  503 -0.87119936863E+02 -0.96324937822E+02 -0.43109407514E+01  0.12994984131E+03  0.00000000000E+00 0.  1.
         -1    1    6    6    0  502  0.15234577841E+03 -0.13621263965E+02  0.20851803676E+03  0.25860113435E+03  0.00000000000E+00 0.  1.
<mgrwt>
<rscale>  0 0.13529558E+04</rscale>
<asrwt>0</asrwt>
<pdfrwt beam="1">  1        1 0.56563746E-01 0.13529558E+04</pdfrwt>
<pdfrwt beam="2">  1       -1 0.19148836E+00 0.13529558E+04</pdfrwt>
<totfact> 0.11327736E+01</totfact>
</mgrwt>
</event>
<event>
12    1  0.1114484E-007  0.1494943E+04  0.7818608E-02  0.8887823E-01
          2   -1    0    0  501    0  0.00000000000E+00  0.00000000000E+00  0.11677907621E+04  0.11677907621E+04  0.00000000000E+00 0. -1.
         -2   -1    0    0    0  501 -0.00000000000E+00 -0.00000000000E+00 -0.47843612358E+03  0.47843612358E+03  0.00000000000E+00 0.  1.
         23    2    1    2    0    0  0.15411780004E+03  0.35448727821E+03 -0.82680992578E+02  0.40539265854E+03  0.89964072604E+02 0.  0.
        254    2    1    2    0    0 -0.15411780004E+03 -0.35448727821E+03  0.77203563109E+03  0.12408342271E+04  0.89118855290E+03 0.  0.
        -24    2    4    4    0    0 -0.43427486114E+03 -0.29176205248E+02  0.12382819870E+03  0.45922982080E+03  0.78183755014E+02 0.  0.
         24    2    4    4    0    0  0.28015706110E+03 -0.32531107297E+03  0.64820743240E+03  0.78160440632E+03  0.80108048867E+02 0.  0.
         11    1    3    3    0    0  0.50771134422E+02  0.18548992203E+03 -0.43114272715E+01  0.19236113867E+03  0.00000000000E+00 0. -1.
        -11    1    3    3    0    0  0.10334666562E+03  0.16899735618E+03 -0.78369565306E+02  0.21303151987E+03  0.00000000000E+00 0.  1.
          4    1    6    6  502    0  0.39115105877E+02 -0.17199888201E+02  0.40508812722E+02  0.58879466455E+02  0.00000000000E+00 0. -1.
          3    1    5    5  503    0 -0.11967809300E+03 -0.38913316387E+02  0.17770202683E+02  0.12709395045E+03  0.00000000000E+00 0. -1.
         -4    1    5    5    0  503 -0.31459676814E+03  0.97371111398E+01  0.10605799601E+03  0.33213587035E+03  0.00000000000E+00 0.  1.
         -3    1    6    6    0  502  0.24104195522E+03 -0.30811118477E+03  0.60769861967E+03  0.72272493987E+03  0.00000000000E+00 0.  1.
<mgrwt>
<rscale>  0 0.14949425E+04</rscale>
<asrwt>0</asrwt>
<pdfrwt beam="1">  1        2 0.17966012E+00 0.14949425E+04</pdfrwt>
<pdfrwt beam="2">  1       -2 0.73605558E-01 0.14949425E+04</pdfrwt>
<totfact> 0.31868225E+01</totfact>
</mgrwt>
</event>
<event>
12    1  0.1114484E-007  0.1929558E+04  0.7818608E-02  0.8640282E-01
          1   -1    0    0  501    0  0.00000000000E+00  0.00000000000E+00  0.56545818440E+03  0.56545818440E+03  0.00000000000E+00 0. -1.
         -1   -1    0    0    0  501 -0.00000000000E+00 -0.00000000000E+00 -0.16460957460E+04  0.16460957460E+04  0.00000000000E+00 0.  1.
         23    2    1    2    0    0 -0.94125556391E+02 -0.31204153832E+02 -0.12765850043E+04  0.12835288689E+04  0.89127798153E+02 0.  0.
        254    2    1    2    0    0  0.94125556391E+02  0.31204153832E+02  0.19594744270E+03  0.92802506153E+03  0.90166612166E+03 0.  0.
        -24    2    4    4    0    0 -0.12711830221E+03 -0.49843006293E+00 -0.32402293874E+03  0.35658714621E+03  0.77486881619E+02 0.  0.
         24    2    4    4    0    0  0.22124385860E+03  0.31702583895E+02  0.51997038145E+03  0.57143791532E+03  0.78855530492E+02 0.  0.
         11    1    3    3    0    0 -0.35369857156E+02 -0.16167589058E+02 -0.13926977057E+03  0.14459767192E+03  0.00000000000E+00 0. -1.
        -11    1    3    3    0    0 -0.58755699235E+02 -0.15036564774E+02 -0.11373152338E+04  0.11389311970E+04  0.00000000000E+00 0.  1.
          4    1    6    6  502    0  0.11763681991E+03  0.50812350730E+02  0.33337581816E+03  0.35715508189E+03  0.00000000000E+00 0. -1.
          3    1    5    5  503    0 -0.13217305771E+03  0.10918180636E+02 -0.31297623839E+03  0.33991623917E+03  0.00000000000E+00 0. -1.
         -4    1    5    5    0  503  0.50547555012E+01 -0.11416610699E+02 -0.11046700356E+02  0.16670907047E+02  0.00000000000E+00 0.  1.
         -1    1    6    6    0  502  0.10360703870E+03 -0.19109766835E+02  0.18659456329E+03  0.21428283343E+03  0.00000000000E+00 0.  1.
<mgrwt>
<rscale>  0 0.19295578E+04</rscale>
<asrwt>0</asrwt>
<pdfrwt beam="1">  1        1 0.86993567E-01 0.19295578E+04</pdfrwt>
<pdfrwt beam="2">  1       -1 0.25324550E+00 0.19295578E+04</pdfrwt>
<totfact> 0.23111048E+00</totfact>
</mgrwt>
</event>
<event>
12    1  0.1114484E-007  0.1427075E+04  0.7818608E-02  0.8934450E-01
         -3   -1    0    0    0  501 -0.00000000000E+00  0.00000000000E+00  0.19969293946E+04  0.19969293946E+04  0.00000000000E+00 0.  1.
          3   -1    0    0  501    0  0.00000000000E+00 -0.00000000000E+00 -0.25495941920E+03  0.25495941920E+03  0.00000000000E+00 0. -1.
         23    2    1    2    0    0 -0.16529760807E+03  0.31473670249E+03  0.10619624903E+04  0.11234871072E+04  0.89869116557E+02 0.  0.
        254    2    1    2    0    0  0.16529760807E+03 -0.31473670249E+03  0.68000748510E+03  0.11284017066E+04  0.82734378618E+03 0.  0.
        -24    2    4    4    0    0 -0.22503484386E+03  0.11799443590E+03  0.58585238988E+02  0.27274861352E+03  0.79976297077E+02 0.  0.
         24    2    4    4    0    0  0.39033245193E+03 -0.43273113839E+03  0.62142224611E+03  0.85565309308E+03  0.79755542564E+02 0.  0.
         13    1    3    3    0    0 -0.92855965193E+02  0.25842056373E+03  0.77475969639E+03  0.82198297134E+03  0.00000000000E+00 0.  1.
        -13    1    3    3    0    0 -0.72441642877E+02  0.56316138760E+02  0.28720279394E+03  0.30150413588E+03  0.00000000000E+00 0. -1.
          4    1    6    6  502    0  0.18746238638E+03 -0.26647011164E+03  0.33649761044E+03  0.46837923581E+03  0.00000000000E+00 0. -1.
          1    1    5    5  503    0 -0.11615775702E+03  0.21998827418E+02  0.46692606735E+02  0.12710929332E+03  0.00000000000E+00 0. -1.
         -2    1    5    5    0  503 -0.10887708683E+03  0.95995608482E+02  0.11892632253E+02  0.14563932020E+03  0.00000000000E+00 0.  1.
         -3    1    6    6    0  502  0.20287006554E+03 -0.16626102675E+03  0.28492463567E+03  0.38727385726E+03  0.00000000000E+00 0.  1.
<mgrwt>
<rscale>  0 0.14270753E+04</rscale>
<asrwt>0</asrwt>
<pdfrwt beam="1">  1        3 0.39224527E-01 0.14270753E+04</pdfrwt>
<pdfrwt beam="2">  1       -3 0.30721990E+00 0.14270753E+04</pdfrwt>
<totfact> 0.57275039E-01</totfact>
</mgrwt>
</event>
<event>
12    1  0.1114484E-007  0.1686595E+04  0.7818608E-02  0.8769047E-01
          2   -1    0    0  501    0  0.00000000000E+00  0.00000000000E+00  0.19322753962E+04  0.19322753962E+04  0.00000000000E+00 0. -1.
         -2   -1    0    0    0  501 -0.00000000000E+00 -0.00000000000E+00 -0.36803773759E+03  0.36803773759E+03  0.00000000000E+00 0.  1.
         23    2    1    2    0    0  0.23898829735E+03 -0.15781590716E+03 -0.14702880256E+03  0.33486933400E+03  0.92188585229E+02 0.  0.
        254    2    1    2    0    0 -0.23898829735E+03  0.15781590716E+03  0.17112664612E+04  0.19654437998E+04  0.92331747637E+03 0.  0.
        -24    2    4    4    0    0 -0.27702236674E+03  0.48704221827E+03  0.13709987757E+04  0.14833089375E+04  0.81340317768E+02 0.  0.
         24    2    4    4    0    0  0.38034069388E+02 -0.32922631111E+03  0.34026768550E+03  0.48213486223E+03  0.82676315972E+02 0.  0.
         11    1    3    3    0    0  0.53155512895E+02  0.49820886667E+01 -0.19488953702E+02  0.56834400454E+02  0.00000000000E+00 0. -1.
        -11    1    3    3    0    0  0.18583278446E+03 -0.16279799583E+03 -0.12753984886E+03  0.27803493355E+03  0.00000000000E+00 0.  1.
          4    1    6    6  502    0  0.47258680149E+01 -0.13346088501E+03  0.19391751462E+03  0.23545306142E+03  0.00000000000E+00 0. -1.
          3    1    5    5  503    0 -0.65634381622E+02  0.15462305346E+03  0.33060517294E+03  0.37083141869E+03  0.00000000000E+00 0. -1.
         -4    1    5    5    0  503 -0.21138798512E+03  0.33241916481E+03  0.10403936027E+04  0.11124775189E+04  0.00000000000E+00 0.  1.
         -3    1    6    6    0  502  0.33308201373E+02 -0.19576542609E+03  0.14635017087E+03  0.24668180080E+03  0.00000000000E+00 0.  1.
<mgrwt>
<rscale>  0 0.16865945E+04</rscale>
<asrwt>0</asrwt>
<pdfrwt beam="1">  1        2 0.29727313E+00 0.16865945E+04</pdfrwt>
<pdfrwt beam="2">  1       -2 0.56621192E-01 0.16865945E+04</pdfrwt>
<totfact> 0.20309067E+01</totfact>
</mgrwt>
</event>
<event>
12    1  0.1114484E-007  0.1103563E+04  0.7818608E-02  0.9201727E-01
          1   -1    0    0  501    0  0.00000000000E+00  0.00000000000E+00  0.53498788037E+03  0.53498788037E+03  0.00000000000E+00 0. -1.
         -1   -1    0    0    0  501 -0.00000000000E+00 -0.00000000000E+00 -0.56910177854E+03  0.56910177854E+03  0.00000000000E+00 0.  1.
         23    2    1    2    0    0  0.22023756237E+02 -0.21272063856E+03 -0.48656452593E+02  0.23568021346E+03  0.86270485839E+02 0.  0.
        254    2    1    2    0    0 -0.22023756237E+02  0.21272063856E+03  0.14542554418E+02  0.86840944546E+03  0.84153928201E+03 0.  0.
        -24    2    4    4    0    0  0.78205567240E+02 -0.12845828960E+03  0.33969386415E+03  0.38014149238E+03  0.80610110869E+02 0.  0.
         24    2    4    4    0    0 -0.10022932348E+03  0.34117892816E+03 -0.32515130973E+03  0.48826795308E+03  0.78950880139E+02 0.  0.
         11    1    3    3    0    0  0.11987852131E+02 -0.20570414921E+03 -0.23103107664E+02  0.20734430106E+03  0.00000000000E+00 0. -1.
        -11    1    3    3    0    0  0.10035904106E+02 -0.70164893553E+01 -0.25553344929E+02  0.28335912394E+02  0.00000000000E+00 0.  1.
          2    1    6    6  502    0 -0.10141703455E+03  0.25287872852E+03 -0.27306679172E+03  0.38574413667E+03  0.00000000000E+00 0. -1.
          1    1    5    5  503    0  0.64564157765E+02 -0.10677220941E+03  0.32990975187E+03  0.35271699640E+03  0.00000000000E+00 0. -1.
         -2    1    5    5    0  503  0.13641409475E+02 -0.21686080192E+02  0.97841122727E+01  0.27424495975E+02  0.00000000000E+00 0.  1.
         -1    1    6    6    0  502  0.11877110708E+01  0.88300199639E+02 -0.52084518013E+02  0.10252381641E+03  0.00000000000E+00 0.  1.
<mgrwt>
<rscale>  0 0.11035625E+04</rscale>
<asrwt>0</asrwt>
<pdfrwt beam="1">  1        1 0.82305828E-01 0.11035625E+04</pdfrwt>
<pdfrwt beam="2">  1       -1 0.87554119E-01 0.11035625E+04</pdfrwt>
<totfact> 0.51604419E+01</totfact>
</mgrwt>
</event>
<event>
12    1  0.1114484E-007  0.1350823E+04  0.7818608E-02  0.8990206E-01
          2   -1    0    0  501    0  0.00000000000E+00  0.00000000000E+00  0.11824422007E+04  0.11824422007E+04  0.00000000000E+00 0. -1.
         -2   -1    0    0    0  501 -0.00000000000E+00 -0.00000000000E+00 -0.38579512370E+03  0.38579512370E+03  0.00000000000E+00 0.  1.
         23    2    1    2    0    0 -0.10789307704E+03  0.27502983162E+03 -0.28903810280E+02  0.31039639506E+03  0.90709246843E+02 0.  0.
        254    2    1    2    0    0  0.10789307704E+03 -0.27502983162E+03  0.82555088724E+03  0.12578409293E+04  0.90185764490E+03 0.  0.
        -24    2    4    4    0    0  0.19634516318E+03  0.29262358095E+03  0.39405262740E+03  0.53422780221E+03  0.77083644574E+02 0.  0.
         24    2    4    4    0    0 -0.88452086147E+02 -0.56765341257E+03  0.43149825984E+03  0.72361312710E+03  0.85854767593E+02 0.  0.
         11    1    3    3    0    0 -0.11705874369E+03  0.22018391361E+03 -0.38244952135E+01  0.24939593430E+03  0.00000000000E+00 0.  1.
        -11    1    3    3    0    0  0.91656666485E+01  0.54845918013E+02 -0.25079315066E+02  0.61000460752E+02  0.00000000000E+00 0. -1.
          4    1    6    6  502    0  0.13488951784E+01 -0.46632382036E+00 -0.31218059089E+01  0.34325862321E+01  0.00000000000E+00 0. -1.
          3    1    5    5  503    0  0.48385788251E+02  0.50320845069E+02  0.40188134412E+02  0.80550965858E+02  0.00000000000E+00 0. -1.
         -4    1    5    5    0  503  0.14795937493E+03  0.24230273588E+03  0.35386449299E+03  0.45367683635E+03  0.00000000000E+00 0.  1.
         -3    1    6    6    0  502 -0.89800981325E+02 -0.56718708875E+03  0.43462006575E+03  0.72018054087E+03  0.00000000000E+00 0.  1.
<mgrwt>
<rscale>  0 0.13508226E+04</rscale>
<asrwt>0</asrwt>
<pdfrwt beam="1">  1        2 0.18191418E+00 0.13508226E+04</pdfrwt>
<pdfrwt beam="2">  1       -2 0.59353096E-01 0.13508226E+04</pdfrwt>
<totfact> 0.50227883E+01</totfact>
</mgrwt>
</event>
<event>
12    1  0.1114484E-007  0.1283677E+04  0.7818608E-02  0.9042611E-01
          2   -1    0    0  501    0  0.00000000000E+00  0.00000000000E+00  0.16808525629E+04  0.16808525629E+04  0.00000000000E+00 0.  1.
         -2   -1    0    0    0  501 -0.00000000000E+00 -0.00000000000E+00 -0.24508789952E+03  0.24508789952E+03  0.00000000000E+00 0. -1.
         23    2    1    2    0    0 -0.13007108490E+03 -0.28472621940E+03  0.41845213015E+03  0.53101337533E+03  0.94262995983E+02 0.  0.
        254    2    1    2    0    0  0.13007108490E+03  0.28472621940E+03  0.10173125333E+04  0.13949270871E+04  0.90161481850E+03 0.  0.
        -24    2    4    4    0    0 -0.26714700671E+03  0.42494712717E+03  0.41762191827E+03  0.65780098369E+03  0.79664819267E+02 0.  0.
         24    2    4    4    0    0  0.39721809161E+03 -0.14022090778E+03  0.59969061500E+03  0.73712610345E+03  0.79258711726E+02 0.  0.
         13    1    3    3    0    0 -0.13437597714E+03 -0.27913780975E+03  0.42168600609E+03  0.52325319664E+03  0.00000000000E+00 0.  1.
        -13    1    3    3    0    0  0.43048922366E+01 -0.55884096472E+01 -0.32338759457E+01  0.77601786827E+01  0.00000000000E+00 0. -1.
          4    1    6    6  502    0  0.21487208073E+03 -0.40521742543E+02  0.34425538386E+03  0.40782814029E+03  0.00000000000E+00 0. -1.
          1    1    5    5  503    0 -0.90638559806E+02  0.16640233019E+03  0.11100811612E+03  0.21960848313E+03  0.00000000000E+00 0. -1.
         -2    1    5    5    0  503 -0.17650844691E+03  0.25854479698E+03  0.30661380215E+03  0.43819250056E+03  0.00000000000E+00 0.  1.
         -3    1    6    6    0  502  0.18234601088E+03 -0.99699165233E+02  0.25543523115E+03  0.32929796316E+03  0.00000000000E+00 0.  1.
<mgrwt>
<rscale>  0 0.12836769E+04</rscale>
<asrwt>0</asrwt>
<pdfrwt beam="1">  1        2 0.25859269E+00 0.12836769E+04</pdfrwt>
<pdfrwt beam="2">  1       -2 0.37705832E-01 0.12836769E+04</pdfrwt>
<totfact> 0.65436880E+01</totfact>
</mgrwt>
</event>
<event>
12    1  0.1114484E-007  0.2395444E+04  0.7818608E-02  0.8441211E-01
         -1   -1    0    0    0  501 -0.00000000000E+00  0.00000000000E+00  0.18129813622E+04  0.18129813622E+04  0.00000000000E+00 0.  1.
          1   -1    0    0  501    0  0.00000000000E+00 -0.00000000000E+00 -0.79125936358E+03  0.79125936358E+03  0.00000000000E+00 0. -1.
         23    2    1    2    0    0  0.25436003069E+03  0.19416470273E+00  0.15220872617E+04  0.15458654543E+04  0.90836707798E+02 0.  0.
        254    2    1    2    0    0 -0.25436003069E+03 -0.19416470273E+00 -0.50036526306E+03  0.10583752715E+04  0.89727016892E+03 0.  0.
        -24    2    4    4    0    0 -0.44094246478E+03  0.17755888005E+03 -0.60089917400E+03  0.77079206646E+03  0.84161625935E+02 0.  0.
         24    2    4    4    0    0  0.18658243408E+03 -0.17775304475E+03  0.10053391094E+03  0.28758320509E+03  0.78663097910E+02 0.  0.
         13    1    3    3    0    0 -0.51191888270E+01 -0.55872661177E+01  0.10007343699E+03  0.10035993438E+03  0.00000000000E+00 0. -1.
        -13    1    3    3    0    0  0.25947921952E+03  0.57814308205E+01  0.14220138247E+04  0.14455055199E+04  0.00000000000E+00 0.  1.
          4    1    6    6  502    0  0.18705004191E+03 -0.14502808000E+03  0.87092594960E+02  0.25220226459E+03  0.00000000000E+00 0. -1.
          3    1    5    5  503    0 -0.32072248250E+03  0.12118147553E+03 -0.36994376011E+03  0.50438700066E+03  0.00000000000E+00 0. -1.
         -2    1    5    5    0  503 -0.12021998227E+03  0.56377404519E+02 -0.23095541389E+03  0.26640506580E+03  0.00000000000E+00 0.  1.
         -3    1    6    6    0  502 -0.46760782922E+00 -0.32724964756E+02  0.13441315977E+02  0.35380940498E+02  0.00000000000E+00 0.  1.
<mgrwt>
<rscale>  0 0.23954444E+04</rscale>
<asrwt>0</asrwt>
<pdfrwt beam="1">  1        1 0.12173221E+00 0.23954444E+04</pdfrwt>
<pdfrwt beam="2">  1       -1 0.27892021E+00 0.23954444E+04</pdfrwt>
<totfact> 0.91246187E-01</totfact>
</mgrwt>
</event>
<event>
12    1  0.1114484E-007  0.1397327E+04  0.7818608E-02  0.8955755E-01
         -2   -1    0    0    0  501 -0.00000000000E+00  0.00000000000E+00  0.85193735087E+03  0.85193735087E+03  0.00000000000E+00 0.  1.
          2   -1    0    0  501    0  0.00000000000E+00 -0.00000000000E+00 -0.57296572925E+03  0.57296572925E+03  0.00000000000E+00 0. -1.
         23    2    1    2    0    0 -0.14310082290E+03  0.35227290944E+03  0.14532987523E+03  0.41596977952E+03  0.85650666088E+02 0.  0.
        254    2    1    2    0    0  0.14310082290E+03 -0.35227290944E+03  0.13364174639E+03  0.10089333006E+04  0.92493904687E+03 0.  0.
        -24    2    4    4    0    0 -0.33167611210E+03 -0.23744220252E+03  0.27074361767E+03  0.49617413617E+03  0.80615284025E+02 0.  0.
         24    2    4    4    0    0  0.47477693500E+03 -0.11483070692E+03 -0.13710187128E+03  0.51275916443E+03  0.74335780979E+02 0.  0.
         13    1    3    3    0    0 -0.44510591106E+02  0.15091269657E+03  0.18612978067E+02  0.15843698324E+03  0.00000000000E+00 0.  1.
        -13    1    3    3    0    0 -0.98590231798E+02  0.20136021287E+03  0.12671689717E+03  0.25753279628E+03  0.00000000000E+00 0. -1.
          4    1    6    6  502    0  0.24981121033E+03 -0.79691543285E+02 -0.40094025108E+02  0.26526197189E+03  0.00000000000E+00 0. -1.
          1    1    5    5  503    0 -0.31422050306E+03 -0.21085151531E+03  0.26907672332E+03  0.46432226856E+03  0.00000000000E+00 0. -1.
         -2    1    5    5    0  503 -0.17455609038E+02 -0.26590687208E+02  0.16668943524E+01  0.31851867604E+02  0.00000000000E+00 0.  1.
         -3    1    6    6    0  502  0.22496572467E+03 -0.35139163632E+02 -0.97007846173E+02  0.24749719254E+03  0.00000000000E+00 0.  1.
<mgrwt>
<rscale>  0 0.13973273E+04</rscale>
<asrwt>0</asrwt>
<pdfrwt beam="1">  1        2 0.88148573E-01 0.13973273E+04</pdfrwt>
<pdfrwt beam="2">  1       -2 0.13106729E+00 0.13973273E+04</pdfrwt>
<totfact> 0.21701772E+01</totfact>
</mgrwt>
</event>
<event>
12    1  0.1114484E-007  0.1292815E+04  0.7818608E-02  0.9035283E-01
         -1   -1    0    0    0  501 -0.00000000000E+00  0.00000000000E+00  0.46302740001E+03  0.46302740001E+03  0.00000000000E+00 0.  1.
          1   -1    0    0  501    0  0.00000000000E+00 -0.00000000000E+00 -0.90241420162E+03  0.90241420162E+03  0.00000000000E+00 0. -1.
         23    2    1    2    0    0 -0.75565013837E+02  0.29487982537E+03 -0.23313527159E+03  0.39416378167E+03  0.91372037272E+02 0.  0.
        254    2    1    2    0    0  0.75565013837E+02 -0.29487982537E+03 -0.20625153002E+03  0.97127781997E+03  0.89898650001E+03 0.  0.
        -24    2    4    4    0    0  0.12397564430E+03  0.37274100686E+02  0.31292398830E+03  0.34787385313E+03  0.79595705173E+02 0.  0.
         24    2    4    4    0    0 -0.48410630459E+02 -0.33215392605E+03 -0.51917551832E+03  0.62340396683E+03  0.80121578289E+02 0.  0.
         11    1    3    3    0    0 -0.35061589590E+02  0.23367739671E+03 -0.21284083722E+03  0.31801833719E+03  0.00000000000E+00 0. -1.
        -11    1    3    3    0    0 -0.40503424246E+02  0.61202428654E+02 -0.20294434371E+02  0.76145444482E+02  0.00000000000E+00 0.  1.
          4    1    6    6  502    0 -0.55751410230E+01 -0.12782607531E+03 -0.26662638273E+03  0.29573673376E+03  0.00000000000E+00 0. -1.
          1    1    5    5  503    0 -0.18126786733E+01 -0.13558077926E+02  0.13851705338E+02  0.19467332170E+02  0.00000000000E+00 0. -1.
         -2    1    5    5    0  503  0.12578832297E+03  0.50832178612E+02  0.29907228296E+03  0.32840652096E+03  0.00000000000E+00 0.  1.
         -3    1    6    6    0  502 -0.42835489436E+02 -0.20432785074E+03 -0.25254913559E+03  0.32766723307E+03  0.00000000000E+00 0.  1.
<mgrwt>
<rscale>  0 0.12928148E+04</rscale>
<asrwt>0</asrwt>
<pdfrwt beam="1">  1        1 0.13883295E+00 0.12928148E+04</pdfrwt>
<pdfrwt beam="2">  1       -1 0.71234986E-01 0.12928148E+04</pdfrwt>
<totfact> 0.35447055E+01</totfact>
</mgrwt>
</event>
<event>
12    1  0.1114484E-007  0.1576536E+04  0.7818608E-02  0.8835094E-01
         -2   -1    0    0    0  501 -0.00000000000E+00  0.00000000000E+00  0.22561262725E+03  0.22561262725E+03  0.00000000000E+00 0.  1.
          2   -1    0    0  501    0  0.00000000000E+00 -0.00000000000E+00 -0.27541281653E+04  0.27541281653E+04  0.00000000000E+00 0. -1.
         23    2    1    2    0    0 -0.11151430796E+03 -0.52055597213E+03 -0.82913833206E+03  0.98939144978E+03  0.89504783076E+02 0.  0.
        254    2    1    2    0    0  0.11151430796E+03  0.52055597213E+03 -0.16993772060E+04  0.19903493427E+04  0.88892837566E+03 0.  0.
        -24    2    4    4    0    0 -0.11285323127E+02  0.61984539831E+03 -0.17015115018E+04  0.18126785106E+04  0.79538138821E+02 0.  0.
         24    2    4    4    0    0  0.12279963109E+03 -0.99289426182E+02  0.21342958852E+01  0.17767083216E+03  0.81389371751E+02 0.  0.
         11    1    3    3    0    0 -0.10123025609E+02 -0.14321251904E+03 -0.16386414992E+03  0.21786179309E+03  0.00000000000E+00 0.  1.
        -11    1    3    3    0    0 -0.10139128235E+03 -0.37734345309E+03 -0.66527418214E+03  0.77152965669E+03  0.00000000000E+00 0. -1.
          2    1    6    6  502    0  0.12149174936E+03 -0.56309861380E+02  0.86245952028E+01  0.13418431091E+03  0.00000000000E+00 0. -1.
          3    1    5    5  503    0 -0.11436435398E+02  0.57349468058E+03 -0.15007412052E+04  0.16066272455E+04  0.00000000000E+00 0. -1.
         -4    1    5    5    0  503  0.15111227108E+00  0.46350717730E+02 -0.20077029660E+03  0.20605126514E+03  0.00000000000E+00 0.  1.
         -1    1    6    6    0  502  0.13078817256E+01 -0.42979564802E+02 -0.64902993176E+01  0.43486521250E+02  0.00000000000E+00 0.  1.
<mgrwt>
<rscale>  0 0.15765356E+04</rscale>
<asrwt>0</asrwt>
<pdfrwt beam="1">  1        2 0.42371202E+00 0.15765356E+04</pdfrwt>
<pdfrwt beam="2">  1       -2 0.34709635E-01 0.15765356E+04</pdfrwt>
<totfact> 0.18504188E+01</totfact>
</mgrwt>
</event>
<event>
12    1  0.1114484E-007  0.2165604E+04  0.7818608E-02  0.8532882E-01
         -1   -1    0    0    0  501 -0.00000000000E+00  0.00000000000E+00  0.85926436522E+03  0.85926436522E+03  0.00000000000E+00 0.  1.
          1   -1    0    0  501    0  0.00000000000E+00 -0.00000000000E+00 -0.13644927380E+04  0.13644927380E+04  0.00000000000E+00 0. -1.
         23    2    1    2    0    0  0.50225914101E+03  0.67114408870E+03  0.78686944872E+02  0.84757571639E+03  0.97438838272E+02 0.  0.
        254    2    1    2    0    0 -0.50225914101E+03 -0.67114408870E+03 -0.58391531765E+03  0.13761813868E+04  0.92207346711E+03 0.  0.
        -24    2    4    4    0    0 -0.75242783326E+03 -0.47205592794E+03 -0.54203590173E+03  0.10437636013E+04  0.81578754429E+02 0.  0.
         24    2    4    4    0    0  0.25016869225E+03 -0.19908816076E+03 -0.41879415922E+02  0.33241778558E+03  0.80791264082E+02 0.  0.
         11    1    3    3    0    0  0.13293473558E+03  0.23835534205E+03 -0.20273242969E+01  0.27292677233E+03  0.00000000000E+00 0. -1.
        -11    1    3    3    0    0  0.36932440543E+03  0.43278874665E+03  0.80714269169E+02  0.57464894407E+03  0.00000000000E+00 0.  1.
          2    1    6    6  502    0  0.38821236351E+02 -0.22686784975E+01 -0.17335152900E+02  0.42576317596E+02  0.00000000000E+00 0. -1.
          1    1    5    5  503    0 -0.25908197984E+03 -0.17201279212E+03 -0.14581737183E+03  0.34347427685E+03  0.00000000000E+00 0. -1.
         -2    1    5    5    0  503 -0.49334585342E+03 -0.30004313582E+03 -0.39621852990E+03  0.70028932440E+03  0.00000000000E+00 0.  1.
         -1    1    6    6    0  502  0.21134745590E+03 -0.19681948227E+03 -0.24544263022E+02  0.28984146798E+03  0.00000000000E+00 0.  1.
<mgrwt>
<rscale>  0 0.21656038E+04</rscale>
<asrwt>0</asrwt>
<pdfrwt beam="1">  1        1 0.20992196E+00 0.21656038E+04</pdfrwt>
<pdfrwt beam="2">  1       -1 0.13219452E+00 0.21656038E+04</pdfrwt>
<totfact> 0.36176724E+00</totfact>
</mgrwt>
</event>
<event>
12    1  0.1114484E-007  0.2533610E+04  0.7818608E-02  0.8391109E-01
         -1   -1    0    0    0  501 -0.00000000000E+00  0.00000000000E+00  0.93516171061E+03  0.93516171061E+03  0.00000000000E+00 0.  1.
          1   -1    0    0  501    0  0.00000000000E+00 -0.00000000000E+00 -0.17160609579E+04  0.17160609579E+04  0.00000000000E+00 0. -1.
         23    2    1    2    0    0 -0.10862081569E+04 -0.15411837868E+03 -0.65960958070E+03  0.12833643145E+04  0.91315551649E+02 0.  0.
        254    2    1    2    0    0  0.10862081569E+04  0.15411837868E+03 -0.12128966664E+03  0.13678583541E+04  0.80791376949E+03 0.  0.
        -24    2    4    4    0    0 -0.21590575842E+01 -0.20346192668E+02 -0.24258848357E+03  0.25596054058E+03  0.79044271690E+02 0.  0.
         24    2    4    4    0    0  0.10883672145E+04  0.17446457135E+03  0.12129881693E+03  0.11118978135E+04  0.81377297520E+02 0.  0.
         11    1    3    3    0    0 -0.14883079868E+03 -0.50943715971E+02 -0.80523668161E+02  0.17671991955E+03  0.00000000000E+00 0. -1.
        -11    1    3    3    0    0 -0.93737735820E+03 -0.10317466271E+03 -0.57908591254E+03  0.11066443949E+04  0.00000000000E+00 0.  1.
          2    1    6    6  502    0  0.86027577512E+02  0.13083312226E+02 -0.12356867387E+02  0.87889756644E+02  0.00000000000E+00 0. -1.
          1    1    5    5  503    0  0.89178671084E+01  0.25878420288E+02 -0.44462792310E+02  0.52212650674E+02  0.00000000000E+00 0. -1.
         -2    1    5    5    0  503 -0.11076924693E+02 -0.46224612956E+02 -0.19812569126E+03  0.20374788990E+03  0.00000000000E+00 0.  1.
         -1    1    6    6    0  502  0.10023396369E+04  0.16138125913E+03  0.13365568432E+03  0.10240080569E+04  0.00000000000E+00 0.  1.
<mgrwt>
<rscale>  0 0.25336097E+04</rscale>
<asrwt>0</asrwt>
<pdfrwt beam="1">  1        1 0.26400938E+00 0.25336097E+04</pdfrwt>
<pdfrwt beam="2">  1       -1 0.14387103E+00 0.25336097E+04</pdfrwt>
<totfact> 0.16058163E+00</totfact>
</mgrwt>
</event>
<event>
12    1  0.1114484E-007  0.1671361E+04  0.7818608E-02  0.8777869E-01
          2   -1    0    0  501    0  0.00000000000E+00  0.00000000000E+00  0.21735323525E+04  0.21735323525E+04  0.00000000000E+00 0. -1.
         -2   -1    0    0    0  501 -0.00000000000E+00 -0.00000000000E+00 -0.32130287676E+03  0.32130287676E+03  0.00000000000E+00 0.  1.
         23    2    1    2    0    0  0.30256458974E+03 -0.42878452755E+03  0.10486989393E+04  0.11762843235E+04  0.92053476097E+02 0.  0.
        254    2    1    2    0    0 -0.30256458974E+03  0.42878452755E+03  0.80353053648E+03  0.13185509058E+04  0.90416462328E+03 0.  0.
        -24    2    4    4    0    0 -0.51337489782E+03 -0.43658709460E+02  0.37742217199E+03  0.64353494423E+03  0.78929461585E+02 0.  0.
         24    2    4    4    0    0  0.21081030808E+03  0.47244323701E+03  0.42610836449E+03  0.67501596153E+03  0.80216032345E+02 0.  0.
         11    1    3    3    0    0  0.75949535115E+02 -0.49285256781E+02  0.19212028034E+03  0.21238542920E+03  0.00000000000E+00 0.  1.
        -11    1    3    3    0    0  0.22661505463E+03 -0.37949927077E+03  0.85657865894E+03  0.96389889431E+03  0.00000000000E+00 0. -1.
          4    1    6    6  502    0  0.60673987742E+02  0.88863482663E+02  0.12407608641E+03  0.16423436473E+03  0.00000000000E+00 0. -1.
          3    1    5    5  503    0 -0.17832030838E+03  0.13164378199E+02  0.16119452987E+03  0.24073867511E+03  0.00000000000E+00 0. -1.
         -4    1    5    5    0  503 -0.33505458944E+03 -0.56823087660E+02  0.21622764213E+03  0.40279626912E+03  0.00000000000E+00 0.  1.
         -3    1    6    6    0  502  0.15013632034E+03  0.38357975435E+03  0.30203227808E+03  0.51078159680E+03  0.00000000000E+00 0.  1.
<mgrwt>
<rscale>  0 0.16713614E+04</rscale>
<asrwt>0</asrwt>
<pdfrwt beam="1">  1        2 0.33438958E+00 0.16713614E+04</pdfrwt>
<pdfrwt beam="2">  1       -2 0.49431213E-01 0.16713614E+04</pdfrwt>
<totfact> 0.19751533E+01</totfact>
</mgrwt>
</event>
<event>
12    1  0.1114484E-007  0.1577511E+04  0.7818608E-02  0.8834484E-01
          1   -1    0    0  501    0  0.00000000000E+00  0.00000000000E+00  0.57192838429E+03  0.57192838429E+03  0.00000000000E+00 0. -1.
         -1   -1    0    0    0  501 -0.00000000000E+00 -0.00000000000E+00 -0.10877854904E+04  0.10877854904E+04  0.00000000000E+00 0.  1.
         23    2    1    2    0    0  0.17403661977E+03  0.13808106332E+03  0.32820106650E+03  0.40726603081E+03  0.93779287366E+02 0.  0.
        254    2    1    2    0    0 -0.17403661977E+03 -0.13808106332E+03 -0.84405817257E+03  0.12524478438E+04  0.89824065694E+03 0.  0.
        -24    2    4    4    0    0 -0.44608806571E+03 -0.31664820466E+02 -0.12386172589E+03  0.47101302071E+03  0.80711308442E+02 0.  0.
         24    2    4    4    0    0  0.27205144595E+03 -0.10641624285E+03 -0.72019644669E+03  0.78143482313E+03  0.81369865410E+02 0.  0.
         13    1    3    3    0    0  0.50961812805E+02  0.96074610774E+02  0.12154811074E+03  0.16309929621E+03  0.00000000000E+00 0.  1.
        -13    1    3    3    0    0  0.12307480696E+03  0.42006452542E+02  0.20665295576E+03  0.24416673461E+03  0.00000000000E+00 0. -1.
          2    1    6    6  502    0  0.11665464627E+03 -0.81540143482E+02 -0.40190904803E+03  0.42636602161E+03  0.00000000000E+00 0. -1.
          3    1    5    5  503    0 -0.48057712897E+02 -0.29440321900E+02 -0.13301067850E+02  0.57906776187E+02  0.00000000000E+00 0. -1.
         -4    1    5    5    0  503 -0.39803035282E+03 -0.22244985665E+01 -0.11056065804E+03  0.41310624452E+03  0.00000000000E+00 0.  1.
         -1    1    6    6    0  502  0.15539679967E+03 -0.24876099368E+02 -0.31828739865E+03  0.35506880151E+03  0.00000000000E+00 0.  1.
<mgrwt>
<rscale>  0 0.15775112E+04</rscale>
<asrwt>0</asrwt>
<pdfrwt beam="1">  1        1 0.87988982E-01 0.15775112E+04</pdfrwt>
<pdfrwt beam="2">  1       -1 0.16735161E+00 0.15775112E+04</pdfrwt>
<totfact> 0.90786802E+00</totfact>
</mgrwt>
</event>
<event>
12    1  0.1114484E-007  0.1485742E+04  0.7818608E-02  0.8893990E-01
          2   -1    0    0  501    0  0.00000000000E+00  0.00000000000E+00  0.27304432736E+04  0.27304432736E+04  0.00000000000E+00 0. -1.
         -2   -1    0    0    0  501 -0.00000000000E+00 -0.00000000000E+00 -0.20211262595E+03  0.20211262595E+03  0.00000000000E+00 0.  1.
         23    2    1    2    0    0 -0.28801478958E+03 -0.32818877811E+03  0.49498425739E+03  0.66627874651E+03  0.90871116925E+02 0.  0.
        254    2    1    2    0    0  0.28801478958E+03  0.32818877811E+03  0.20333463903E+04  0.22662771531E+04  0.90047442970E+03 0.  0.
        -24    2    4    4    0    0  0.13543411441E+03  0.82348617254E+02 -0.30827828159E+02  0.18044682221E+03  0.80541955195E+02 0.  0.
         24    2    4    4    0    0  0.15258067517E+03  0.24584016085E+03  0.20641742184E+04  0.20858303308E+04  0.78452010326E+02 0.  0.
         13    1    3    3    0    0 -0.17907940005E+03 -0.16608405429E+03  0.21812145670E+03  0.32746040140E+03  0.00000000000E+00 0. -1.
        -13    1    3    3    0    0 -0.10893538953E+03 -0.16210472381E+03  0.27686280069E+03  0.33881834511E+03  0.00000000000E+00 0.  1.
          4    1    6    6  502    0  0.40486887025E+02  0.10869760961E+03  0.10404976804E+04  0.10469430650E+04  0.00000000000E+00 0. -1.
          1    1    5    5  503    0  0.10760339338E+03  0.40209780400E+02  0.10281323533E+02  0.11533005818E+03  0.00000000000E+00 0. -1.
         -2    1    5    5    0  503  0.27830721030E+02  0.42138836854E+02 -0.41109151692E+02  0.65116764027E+02  0.00000000000E+00 0.  1.
         -3    1    6    6    0  502  0.11209378815E+03  0.13714255124E+03  0.10236765380E+04  0.10388872659E+04  0.00000000000E+00 0.  1.
<mgrwt>
<rscale>  0 0.14857416E+04</rscale>
<asrwt>0</asrwt>
<pdfrwt beam="1">  1        2 0.42006817E+00 0.14857416E+04</pdfrwt>
<pdfrwt beam="2">  1       -2 0.31094252E-01 0.14857416E+04</pdfrwt>
<totfact> 0.23731474E+01</totfact>
</mgrwt>
</event>
<event>
12    1  0.1114484E-007  0.1422193E+04  0.7818608E-02  0.8937909E-01
          1   -1    0    0  501    0  0.00000000000E+00  0.00000000000E+00  0.13808216539E+04  0.13808216539E+04  0.00000000000E+00 0. -1.
         -1   -1    0    0    0  501 -0.00000000000E+00 -0.00000000000E+00 -0.36620102255E+03  0.36620102255E+03  0.00000000000E+00 0.  1.
         23    2    1    2    0    0  0.25789332385E+02 -0.39111717781E+03  0.13029746663E+03  0.42240656360E+03  0.88386303882E+02 0.  0.
        254    2    1    2    0    0 -0.25789332385E+02  0.39111717781E+03  0.88432316476E+03  0.13246161129E+04  0.90495450182E+03 0.  0.
        -24    2    4    4    0    0 -0.25101271264E+03  0.60746796001E+03  0.55533905027E+03  0.86418665853E+03  0.79952583984E+02 0.  0.
         24    2    4    4    0    0  0.22522338025E+03 -0.21635078220E+03  0.32898411449E+03  0.46042945437E+03  0.78939868846E+02 0.  0.
         13    1    3    3    0    0 -0.27395374510E+02 -0.56960491703E+02  0.25875376332E+02  0.68297432308E+02  0.00000000000E+00 0. -1.
        -13    1    3    3    0    0  0.53184706895E+02 -0.33415668611E+03  0.10442209030E+03  0.35410913129E+03  0.00000000000E+00 0.  1.
          2    1    6    6  502    0  0.14501960692E+03 -0.84664148288E+02  0.16948837793E+03  0.23858963651E+03  0.00000000000E+00 0. -1.
          1    1    5    5  503    0 -0.19217345113E+03  0.38919961414E+03  0.39658571587E+03  0.58795170295E+03  0.00000000000E+00 0. -1.
         -2    1    5    5    0  503 -0.58839261503E+02  0.21826834587E+03  0.15875333440E+03  0.27623495559E+03  0.00000000000E+00 0.  1.
         -3    1    6    6    0  502  0.80203773336E+02 -0.13168663391E+03  0.15949573656E+03  0.22183981786E+03  0.00000000000E+00 0.  1.
<mgrwt>
<rscale>  0 0.14221931E+04</rscale>
<asrwt>0</asrwt>
<pdfrwt beam="1">  1        1 0.21243410E+00 0.14221931E+04</pdfrwt>
<pdfrwt beam="2">  1       -1 0.56338619E-01 0.14221931E+04</pdfrwt>
<totfact> 0.24592754E+01</totfact>
</mgrwt>
</event>
<event>
12    1  0.1114484E-007  0.2051873E+04  0.7818608E-02  0.8582745E-01
         -1   -1    0    0    0  501 -0.00000000000E+00  0.00000000000E+00  0.62963262643E+03  0.62963262643E+03  0.00000000000E+00 0.  1.
          1   -1    0    0  501    0  0.00000000000E+00 -0.00000000000E+00 -0.16716824487E+04  0.16716824487E+04  0.00000000000E+00 0. -1.
         23    2    1    2    0    0 -0.19225041155E+03 -0.76674238987E+03 -0.91635106853E+02  0.80153159689E+03  0.95925986209E+02 0.  0.
        254    2    1    2    0    0  0.19225041155E+03  0.76674238987E+03 -0.95041471542E+03  0.14997834782E+04  0.84923979956E+03 0.  0.
        -24    2    4    4    0    0  0.40028287408E+03  0.75582700685E+03 -0.49129857332E+03  0.98932612537E+03  0.76753179927E+02 0.  0.
         24    2    4    4    0    0 -0.20803246253E+03  0.10915383022E+02 -0.45911614211E+03  0.51045735288E+03  0.79890087697E+02 0.  0.
         13    1    3    3    0    0 -0.18944376791E+03 -0.64709105272E+03 -0.55601742784E+02  0.67654070499E+03  0.00000000000E+00 0.  1.
        -13    1    3    3    0    0 -0.28066436482E+01 -0.11965133715E+03 -0.36033364068E+02  0.12499089190E+03  0.00000000000E+00 0. -1.
          4    1    6    6  502    0 -0.16078343283E+03 -0.22991619672E+02 -0.30168190043E+03  0.34262500769E+03  0.00000000000E+00 0. -1.
          1    1    5    5  503    0  0.23587399855E+03  0.43350155334E+03 -0.32639029273E+03  0.59168468218E+03  0.00000000000E+00 0. -1.
         -2    1    5    5    0  503  0.16440887553E+03  0.32232545351E+03 -0.16490828058E+03  0.39764144319E+03  0.00000000000E+00 0.  1.
         -3    1    6    6    0  502 -0.47249029700E+02  0.33907002693E+02 -0.15743424168E+03  0.16783234519E+03  0.00000000000E+00 0.  1.
<mgrwt>
<rscale>  0 0.20518731E+04</rscale>
<asrwt>0</asrwt>
<pdfrwt beam="1">  1        1 0.25718191E+00 0.20518731E+04</pdfrwt>
<pdfrwt beam="2">  1       -1 0.96866560E-01 0.20518731E+04</pdfrwt>
<totfact> 0.47155253E+00</totfact>
</mgrwt>
</event>
<event>
12    1  0.1114484E-007  0.1393202E+04  0.7818608E-02  0.8958754E-01
         -1   -1    0    0    0  501 -0.00000000000E+00  0.00000000000E+00  0.74420917343E+03  0.74420917343E+03  0.00000000000E+00 0.  1.
          1   -1    0    0  501    0  0.00000000000E+00 -0.00000000000E+00 -0.65203844421E+03  0.65203844421E+03  0.00000000000E+00 0. -1.
         23    2    1    2    0    0 -0.28460727968E+03  0.68730264833E+02  0.29795778484E+03  0.42743192325E+03  0.90521017001E+02 0.  0.
        254    2    1    2    0    0  0.28460727968E+03 -0.68730264833E+02 -0.20578705561E+03  0.96881569439E+03  0.90029460983E+03 0.  0.
        -24    2    4    4    0    0 -0.19280194344E+03 -0.31863752916E+03  0.12390817636E+02  0.38179465767E+03  0.83133410126E+02 0.  0.
         24    2    4    4    0    0  0.47740922311E+03  0.24990726433E+03 -0.21817787325E+03  0.58702103673E+03  0.81356659876E+02 0.  0.
         11    1    3    3    0    0 -0.15126810923E+03  0.60198832071E+02  0.21672565648E+03  0.27106447651E+03  0.00000000000E+00 0. -1.
        -11    1    3    3    0    0 -0.13333917045E+03  0.85314327616E+01  0.81232128360E+02  0.15636744673E+03  0.00000000000E+00 0.  1.
          2    1    6    6  502    0  0.63357932924E+01 -0.15579602333E+00 -0.15027709919E+02  0.16309463954E+02  0.00000000000E+00 0. -1.
          3    1    5    5  503    0 -0.25106659697E+02 -0.11323260069E+03  0.12260528681E+02  0.11662884199E+03  0.00000000000E+00 0. -1.
         -4    1    5    5    0  503 -0.16769528374E+03 -0.20540492847E+03  0.13028895451E+00  0.26516581567E+03  0.00000000000E+00 0.  1.
         -1    1    6    6    0  502  0.47107342982E+03  0.25006306035E+03 -0.20315016333E+03  0.57071157277E+03  0.00000000000E+00 0.  1.
<mgrwt>
<rscale>  0 0.13932021E+04</rscale>
<asrwt>0</asrwt>
<pdfrwt beam="1">  1        1 0.10031361E+00 0.13932021E+04</pdfrwt>
<pdfrwt beam="2">  1       -1 0.11449372E+00 0.13932021E+04</pdfrwt>
<totfact> 0.20524632E+01</totfact>
</mgrwt>
</event>
<event>
12    1  0.1114484E-007  0.1582355E+04  0.7818608E-02  0.8831462E-01
          1   -1    0    0  501    0  0.00000000000E+00  0.00000000000E+00  0.87538799557E+03  0.87538799557E+03  0.00000000000E+00 0. -1.
         -1   -1    0    0    0  501 -0.00000000000E+00 -0.00000000000E+00 -0.71506810434E+03  0.71506810434E+03  0.00000000000E+00 0.  1.
         23    2    1    2    0    0 -0.16089442765E+03  0.42930366034E+03 -0.20624832584E+03  0.51104039853E+03  0.91843711721E+02 0.  0.
        254    2    1    2    0    0  0.16089442765E+03 -0.42930366034E+03  0.36656821708E+03  0.10794157014E+04  0.90585724537E+03 0.  0.
        -24    2    4    4    0    0 -0.16598494311E+03 -0.43575271928E+02 -0.22701053261E+03  0.29544031380E+03  0.79381304123E+02 0.  0.
         24    2    4    4    0    0  0.32687937076E+03 -0.38572838841E+03  0.59357874969E+03  0.78397538758E+03  0.81517872840E+02 0.  0.
         11    1    3    3    0    0 -0.14853109499E+03  0.38912136617E+03 -0.15419936857E+03  0.44413327848E+03  0.00000000000E+00 0.  1.
        -11    1    3    3    0    0 -0.12363332665E+02  0.40182294175E+02 -0.52048957278E+02  0.66907120051E+02  0.00000000000E+00 0. -1.
          2    1    6    6  502    0  0.24088208399E+03 -0.33163951655E+03  0.45942873092E+03  0.61569773925E+03  0.00000000000E+00 0. -1.
          3    1    5    5  503    0 -0.14063792962E+03 -0.27534837171E+02 -0.22314002314E+03  0.26519552114E+03  0.00000000000E+00 0. -1.
         -4    1    5    5    0  503 -0.25347013483E+02 -0.16040434757E+02 -0.38705094690E+01  0.30244792663E+02  0.00000000000E+00 0.  1.
         -1    1    6    6    0  502  0.85997286767E+02 -0.54088871863E+02  0.13415001877E+03  0.16827764832E+03  0.00000000000E+00 0.  1.
<mgrwt>
<rscale>  0 0.15823553E+04</rscale>
<asrwt>0</asrwt>
<pdfrwt beam="1">  1        1 0.13467508E+00 0.15823553E+04</pdfrwt>
<pdfrwt beam="2">  1       -1 0.11001048E+00 0.15823553E+04</pdfrwt>
<totfact> 0.13985611E+01</totfact>
</mgrwt>
</event>
<event>
12    1  0.1114484E-007  0.1973105E+04  0.7818608E-02  0.8619299E-01
         -1   -1    0    0    0  501 -0.00000000000E+00  0.00000000000E+00  0.62721537137E+03  0.62721537137E+03  0.00000000000E+00 0.  1.
          1   -1    0    0  501    0  0.00000000000E+00 -0.00000000000E+00 -0.15517562346E+04  0.15517562346E+04  0.00000000000E+00 0. -1.
         23    2    1    2    0    0  0.90307331632E+02 -0.67901283259E+03 -0.76480316440E+03  0.10326865231E+04  0.11092219670E+03 0.  0.
        254    2    1    2    0    0 -0.90307331632E+02  0.67901283259E+03 -0.15973769879E+03  0.11462850828E+04  0.90511851033E+03 0.  0.
        -24    2    4    4    0    0  0.37424599785E+03  0.41387447672E+03  0.51372922031E+02  0.56601583097E+03  0.79891140964E+02 0.  0.
         24    2    4    4    0    0 -0.46455332948E+03  0.26513835587E+03 -0.21111062082E+03  0.58026925186E+03  0.77695345763E+02 0.  0.
         11    1    3    3    0    0  0.88427820971E+02 -0.41616777090E+03 -0.40761997406E+03  0.58921060438E+03  0.00000000000E+00 0. -1.
        -11    1    3    3    0    0  0.18795106608E+01 -0.26284506170E+03 -0.35718319034E+03  0.44347591871E+03  0.00000000000E+00 0.  1.
          2    1    6    6  502    0 -0.16897424197E+03  0.71296528789E+02 -0.10444432884E+03  0.21105474952E+03  0.00000000000E+00 0. -1.
          3    1    5    5  503    0  0.20140532504E+01  0.10015784640E+02  0.11430922209E+02  0.15330960016E+02  0.00000000000E+00 0. -1.
         -4    1    5    5    0  503  0.37223194460E+03  0.40385869208E+03  0.39941999821E+02  0.55068487095E+03  0.00000000000E+00 0.  1.
         -1    1    6    6    0  502 -0.29557908751E+03  0.19384182708E+03 -0.10666629197E+03  0.36921450235E+03  0.00000000000E+00 0.  1.
<mgrwt>
<rscale>  0 0.19731045E+04</rscale>
<asrwt>0</asrwt>
<pdfrwt beam="1">  1        1 0.23873173E+00 0.19731045E+04</pdfrwt>
<pdfrwt beam="2">  1       -1 0.96494674E-01 0.19731045E+04</pdfrwt>
<totfact> 0.57894225E+00</totfact>
</mgrwt>
</event>
<event>
12    1  0.1114484E-007  0.1143384E+04  0.7818608E-02  0.9163909E-01
          2   -1    0    0  501    0  0.00000000000E+00  0.00000000000E+00  0.64932512644E+03  0.64932512644E+03  0.00000000000E+00 0. -1.
         -2   -1    0    0    0  501 -0.00000000000E+00 -0.00000000000E+00 -0.50334034237E+03  0.50334034237E+03  0.00000000000E+00 0.  1.
         23    2    1    2    0    0 -0.27578233023E+02 -0.37138892508E+02 -0.16673140645E+03  0.19665120233E+03  0.93447724447E+02 0.  0.
        254    2    1    2    0    0  0.27578233023E+02  0.37138892508E+02  0.31271619053E+03  0.95601426648E+03  0.90223722248E+03 0.  0.
        -24    2    4    4    0    0  0.41313164703E+03  0.12743518012E+03  0.33347233875E+03  0.55184771295E+03  0.80091289531E+02 0.  0.
         24    2    4    4    0    0 -0.38555341401E+03 -0.90296287612E+02 -0.20756148224E+02  0.40416655354E+03  0.78198022324E+02 0.  0.
         13    1    3    3    0    0 -0.72116647287E+01 -0.24393295777E+02 -0.17045138064E+03  0.17233895134E+03  0.00000000000E+00 0.  1.
        -13    1    3    3    0    0 -0.20366568294E+02 -0.12745596731E+02  0.37199741836E+01  0.24312250987E+02  0.00000000000E+00 0. -1.
          2    1    6    6  502    0 -0.30369615570E+03 -0.80120395329E+02 -0.47046430237E+02  0.31759093081E+03  0.00000000000E+00 0. -1.
          3    1    5    5  503    0  0.31084345037E+03  0.10714811985E+03  0.29161145849E+03  0.43947879693E+03  0.00000000000E+00 0. -1.
         -4    1    5    5    0  503  0.10228819666E+03  0.20287060271E+02  0.41860880260E+02  0.11236891602E+03  0.00000000000E+00 0.  1.
         -1    1    6    6    0  502 -0.81857258312E+02 -0.10175892283E+02  0.26290282013E+02  0.86575622727E+02  0.00000000000E+00 0.  1.
<mgrwt>
<rscale>  0 0.11433836E+04</rscale>
<asrwt>0</asrwt>
<pdfrwt beam="1">  1        2 0.99896174E-01 0.11433836E+04</pdfrwt>
<pdfrwt beam="2">  1       -2 0.77436975E-01 0.11433836E+04</pdfrwt>
<totfact> 0.66334827E+01</totfact>
</mgrwt>
</event>
<event>
12    1  0.1114484E-007  0.2768068E+04  0.7818608E-02  0.8313251E-01
          2   -1    0    0  501    0  0.00000000000E+00  0.00000000000E+00  0.14693591704E+04  0.14693591704E+04  0.00000000000E+00 0. -1.
         -2   -1    0    0    0  501 -0.00000000000E+00 -0.00000000000E+00 -0.13036632987E+04  0.13036632987E+04  0.00000000000E+00 0.  1.
         23    2    1    2    0    0  0.70414677455E+03 -0.25694913799E+02 -0.94511737009E+03  0.11819414919E+04  0.85181795472E+02 0.  0.
        254    2    1    2    0    0 -0.70414677455E+03  0.25694913799E+02  0.11108132417E+04  0.15910809772E+04  0.89506966733E+03 0.  0.
        -24    2    4    4    0    0  0.16758344691E+03 -0.11670830127E+03  0.39298787085E+03  0.45008441595E+03  0.80196481116E+02 0.  0.
         24    2    4    4    0    0 -0.87173022146E+03  0.14240321507E+03  0.71782537090E+03  0.11409965613E+04  0.80047705089E+02 0.  0.
         13    1    3    3    0    0  0.12080458772E+03  0.15149527717E+02 -0.20831993721E+03  0.24128914779E+03  0.00000000000E+00 0. -1.
        -13    1    3    3    0    0  0.58334218683E+03 -0.40844441516E+02 -0.73679743289E+03  0.94065234409E+03  0.00000000000E+00 0.  1.
          4    1    6    6  502    0 -0.54688777774E+03  0.12822911458E+03  0.45942248643E+03  0.72567070239E+03  0.00000000000E+00 0. -1.
          1    1    5    5  503    0  0.49351693108E+02 -0.77992453221E+02  0.20287715409E+03  0.22288461595E+03  0.00000000000E+00 0. -1.
         -2    1    5    5    0  503  0.11823175380E+03 -0.38715848053E+02  0.19011071675E+03  0.22719980000E+03  0.00000000000E+00 0.  1.
         -3    1    6    6    0  502 -0.32484244372E+03  0.14174100491E+02  0.25840288447E+03  0.41532585890E+03  0.00000000000E+00 0.  1.
<mgrwt>
<rscale>  0 0.27680676E+04</rscale>
<asrwt>0</asrwt>
<pdfrwt beam="1">  1        2 0.22605526E+00 0.27680676E+04</pdfrwt>
<pdfrwt beam="2">  1       -2 0.20056358E+00 0.27680676E+04</pdfrwt>
<totfact> 0.15200879E+00</totfact>
</mgrwt>
</event>
<event>
12    1  0.1114484E-007  0.1681720E+04  0.7818608E-02  0.8771859E-01
          1   -1    0    0  501    0  0.00000000000E+00  0.00000000000E+00  0.25554158397E+04  0.25554158397E+04  0.00000000000E+00 0. -1.
         -1   -1    0    0    0  501 -0.00000000000E+00 -0.00000000000E+00 -0.27668512808E+03  0.27668512808E+03  0.00000000000E+00 0.  1.
         23    2    1    2    0    0 -0.18974868470E+02  0.52933716326E+03  0.37562326345E+03  0.65569375531E+03  0.91014211362E+02 0.  0.
        254    2    1    2    0    0  0.18974868470E+02 -0.52933716326E+03  0.19031074482E+04  0.21764072125E+04  0.91343993628E+03 0.  0.
        -24    2    4    4    0    0 -0.28232159119E+03 -0.34235811705E+03  0.17017365215E+04  0.17606821723E+04  0.84734657375E+02 0.  0.
         24    2    4    4    0    0  0.30129645966E+03 -0.18697904620E+03  0.20137092668E+03  0.41572504016E+03  0.80847625723E+02 0.  0.
         13    1    3    3    0    0 -0.67462058096E+01  0.24365290242E+03  0.22857292796E+03  0.33415240766E+03  0.00000000000E+00 0.  1.
        -13    1    3    3    0    0 -0.12228662660E+02  0.28568426084E+03  0.14705033550E+03  0.32154134765E+03  0.00000000000E+00 0. -1.
          4    1    6    6  502    0  0.12309317977E+03 -0.71425264294E+02  0.36683137475E+02  0.14696649911E+03  0.00000000000E+00 0. -1.
          3    1    5    5  503    0 -0.18371814247E+03 -0.27931429671E+03  0.12266577279E+04  0.12714000211E+04  0.00000000000E+00 0. -1.
         -4    1    5    5    0  503 -0.98603448719E+02 -0.63043820349E+02  0.47507879359E+03  0.48928215122E+03  0.00000000000E+00 0.  1.
         -3    1    6    6    0  502  0.17820327989E+03 -0.11555378191E+03  0.16468778921E+03  0.26875854106E+03  0.00000000000E+00 0.  1.
<mgrwt>
<rscale>  0 0.16817200E+04</rscale>
<asrwt>0</asrwt>
<pdfrwt beam="1">  1        1 0.39314088E+00 0.16817200E+04</pdfrwt>
<pdfrwt beam="2">  1       -1 0.42566945E-01 0.16817200E+04</pdfrwt>
<totfact> 0.64286302E+00</totfact>
</mgrwt>
</event>
<event>
12    1  0.1114484E-007  0.2208465E+04  0.7818608E-02  0.8514913E-01
         -2   -1    0    0    0  501 -0.00000000000E+00  0.00000000000E+00  0.11398876944E+04  0.11398876944E+04  0.00000000000E+00 0.  1.
          2   -1    0    0  501    0  0.00000000000E+00 -0.00000000000E+00 -0.10696924749E+04  0.10696924749E+04  0.00000000000E+00 0. -1.
         23    2    1    2    0    0  0.63223982390E+03  0.62467312884E+03  0.20156846675E+03  0.91588311342E+03  0.90930291188E+02 0.  0.
        254    2    1    2    0    0 -0.63223982390E+03 -0.62467312884E+03 -0.13137324720E+03  0.12936970559E+04  0.93083265384E+03 0.  0.
        -24    2    4    4    0    0  0.22304237518E+03 -0.91020834261E+02 -0.12278087020E+03  0.28230228344E+03  0.81158756476E+02 0.  0.
         24    2    4    4    0    0 -0.85528219908E+03 -0.53365229458E+03 -0.85923769988E+01  0.10113947724E+04  0.80951498970E+02 0.  0.
         13    1    3    3    0    0  0.40628752213E+02  0.16362578730E+02  0.36940220397E+00  0.43801437728E+02  0.00000000000E+00 0.  1.
        -13    1    3    3    0    0  0.59161107168E+03  0.60831055011E+03  0.20119906455E+03  0.87208167570E+03  0.00000000000E+00 0. -1.
          4    1    6    6  502    0 -0.74327835411E+03 -0.45584272691E+03  0.19537507565E+02  0.87214506681E+03  0.00000000000E+00 0. -1.
          1    1    5    5  503    0  0.22523112202E+03 -0.98891368939E+02 -0.11782859880E+03  0.27274922524E+03  0.00000000000E+00 0. -1.
         -4    1    5    5    0  503 -0.21887468392E+01  0.78705346783E+01 -0.49522714009E+01  0.95530581949E+01  0.00000000000E+00 0.  1.
         -3    1    6    6    0  502 -0.11200384496E+03 -0.77809567669E+02 -0.28129884564E+02  0.13924970561E+03  0.00000000000E+00 0.  1.
<mgrwt>
<rscale>  0 0.22084649E+04</rscale>
<asrwt>0</asrwt>
<pdfrwt beam="1">  1        2 0.16456807E+00 0.22084649E+04</pdfrwt>
<pdfrwt beam="2">  1       -2 0.17536734E+00 0.22084649E+04</pdfrwt>
<totfact> 0.40585199E+00</totfact>
</mgrwt>
</event>
<event>
12    1  0.1114484E-007  0.1660014E+04  0.7818608E-02  0.8784504E-01
         -1   -1    0    0    0  501 -0.00000000000E+00  0.00000000000E+00  0.64596019296E+03  0.64596019296E+03  0.00000000000E+00 0.  1.
          1   -1    0    0  501    0  0.00000000000E+00 -0.00000000000E+00 -0.10664919322E+04  0.10664919322E+04  0.00000000000E+00 0. -1.
         23    2    1    2    0    0 -0.78013032168E+02 -0.38946688208E+03  0.29335503550E+03  0.50156876279E+03  0.87997508659E+02 0.  0.
        254    2    1    2    0    0  0.78013032168E+02  0.38946688208E+03 -0.71388677475E+03  0.12108833624E+04  0.89377497431E+03 0.  0.
        -24    2    4    4    0    0  0.31666277116E+03  0.47684677138E+03 -0.16532928725E+03  0.60123193341E+03  0.80547566792E+02 0.  0.
         24    2    4    4    0    0 -0.23864973899E+03 -0.87379889297E+02 -0.54855748750E+03  0.60965142897E+03  0.78553197169E+02 0.  0.
         13    1    3    3    0    0 -0.76265909549E+02 -0.37653880655E+03  0.25513909891E+03  0.46118751240E+03  0.00000000000E+00 0.  1.
        -13    1    3    3    0    0 -0.17471226193E+01 -0.12928075532E+02  0.38215936583E+02  0.40381250394E+02  0.00000000000E+00 0. -1.
          2    1    6    6  502    0 -0.16912683478E+03 -0.28325555453E+02 -0.40168313896E+03  0.43675572974E+03  0.00000000000E+00 0. -1.
          3    1    5    5  503    0  0.18093143390E+03  0.33194574023E+03 -0.87990692138E+02  0.38815785465E+03  0.00000000000E+00 0. -1.
         -4    1    5    5    0  503  0.13573133726E+03  0.14490103116E+03 -0.77338595113E+02  0.21307407876E+03  0.00000000000E+00 0.  1.
         -1    1    6    6    0  502 -0.69522904206E+02 -0.59054333844E+02 -0.14687434854E+03  0.17289569923E+03  0.00000000000E+00 0.  1.
<mgrwt>
<rscale>  0 0.16600137E+04</rscale>
<asrwt>0</asrwt>
<pdfrwt beam="1">  1        1 0.16407568E+00 0.16600137E+04</pdfrwt>
<pdfrwt beam="2">  1       -1 0.99378491E-01 0.16600137E+04</pdfrwt>
<totfact> 0.12411477E+01</totfact>
</mgrwt>
</event>
<event>
12    1  0.1114484E-007  0.1842175E+04  0.7818608E-02  0.8684187E-01
          1   -1    0    0  501    0  0.00000000000E+00  0.00000000000E+00  0.25578225984E+04  0.25578225984E+04  0.00000000000E+00 0. -1.
         -1   -1    0    0    0  501 -0.00000000000E+00 -0.00000000000E+00 -0.33168920942E+03  0.33168920942E+03  0.00000000000E+00 0.  1.
         23    2    1    2    0    0 -0.23225947738E+03 -0.46440182531E+03  0.11768247834E+03  0.53979446892E+03  0.88968437026E+02 0.  0.
        254    2    1    2    0    0  0.23225947738E+03  0.46440182531E+03  0.21084509106E+04  0.23497173389E+04  0.89777102311E+03 0.  0.
        -24    2    4    4    0    0  0.45971997021E+03  0.31473506361E+03  0.19381248731E+04  0.20180476251E+04  0.76076159190E+02 0.  0.
         24    2    4    4    0    0 -0.22746049283E+03  0.14966676170E+03  0.17032603749E+03  0.33166971379E+03  0.82797491755E+02 0.  0.
         11    1    3    3    0    0 -0.21676996376E+03 -0.35397320214E+03  0.86262657581E+02  0.42394279227E+03  0.00000000000E+00 0.  1.
        -11    1    3    3    0    0 -0.15489513618E+02 -0.11042862316E+03  0.31419820760E+02  0.11585167665E+03  0.00000000000E+00 0. -1.
          4    1    6    6  502    0 -0.77757603618E+01 -0.89734845399E+01  0.52005981458E+00  0.11885130887E+02  0.00000000000E+00 0. -1.
          1    1    5    5  503    0  0.11911892311E+03  0.10184151511E+03  0.65699615488E+03  0.67542946306E+03  0.00000000000E+00 0. -1.
         -2    1    5    5    0  503  0.34060104710E+03  0.21289354849E+03  0.12811287182E+04  0.13426181620E+04  0.00000000000E+00 0.  1.
         -3    1    6    6    0  502 -0.21968473247E+03  0.15864024624E+03  0.16980597768E+03  0.31978458290E+03  0.00000000000E+00 0.  1.
<mgrwt>
<rscale>  0 0.18421750E+04</rscale>
<asrwt>0</asrwt>
<pdfrwt beam="1">  1        1 0.39351116E+00 0.18421750E+04</pdfrwt>
<pdfrwt beam="2">  1       -1 0.51029111E-01 0.18421750E+04</pdfrwt>
<totfact> 0.44872228E+00</totfact>
</mgrwt>
</event>
<event>
12    1  0.1114484E-007  0.2393852E+04  0.7818608E-02  0.8441809E-01
         -2   -1    0    0    0  501 -0.00000000000E+00  0.00000000000E+00  0.54007810025E+03  0.54007810025E+03  0.00000000000E+00 0.  1.
          2   -1    0    0  501    0  0.00000000000E+00 -0.00000000000E+00 -0.26526391208E+04  0.26526391208E+04  0.00000000000E+00 0. -1.
         23    2    1    2    0    0 -0.57559133886E+02 -0.10007134078E+04 -0.62826307616E+03  0.11866717893E+04  0.93461565171E+02 0.  0.
        254    2    1    2    0    0  0.57559133886E+02  0.10007134078E+04 -0.14842979444E+04  0.20060454317E+04  0.90351397781E+03 0.  0.
        -24    2    4    4    0    0 -0.19219627038E+03  0.19747776915E+03  0.12828716974E+02  0.28695358968E+03  0.78999436669E+02 0.  0.
         24    2    4    4    0    0  0.24975540427E+03  0.80323563866E+03 -0.14971266613E+04  0.17190918421E+04  0.79518979961E+02 0.  0.
         11    1    3    3    0    0 -0.57977148178E+02 -0.10008200593E+04 -0.63057132140E+03  0.11843235758E+04  0.00000000000E+00 0. -1.
        -11    1    3    3    0    0  0.41801429194E+00  0.10665150283E+00  0.23082452387E+01  0.23482134855E+01  0.00000000000E+00 0.  1.
          4    1    6    6  502    0  0.21990870480E+03  0.59154033212E+03 -0.11251739742E+04  0.12900760734E+04  0.00000000000E+00 0. -1.
          1    1    5    5  503    0 -0.12582500757E+03  0.12471277818E+03 -0.29779191500E+02  0.17964411991E+03  0.00000000000E+00 0. -1.
         -2    1    5    5    0  503 -0.66371262813E+02  0.72764990975E+02  0.42607908474E+02  0.10730946978E+03  0.00000000000E+00 0.  1.
         -3    1    6    6    0  502  0.29846699470E+02  0.21169530654E+03 -0.37195268712E+03  0.42901576863E+03  0.00000000000E+00 0.  1.
<mgrwt>
<rscale>  0 0.23938524E+04</rscale>
<asrwt>0</asrwt>
<pdfrwt beam="1">  1        2 0.40809832E+00 0.23938524E+04</pdfrwt>
<pdfrwt beam="2">  1       -2 0.83088939E-01 0.23938524E+04</pdfrwt>
<totfact> 0.32343059E+00</totfact>
</mgrwt>
</event>
<event>
12    1  0.1114484E-007  0.2275218E+04  0.7818608E-02  0.8487757E-01
         -2   -1    0    0    0  501 -0.00000000000E+00  0.00000000000E+00  0.58801935935E+03  0.58801935935E+03  0.00000000000E+00 0.  1.
          2   -1    0    0  501    0  0.00000000000E+00 -0.00000000000E+00 -0.22008709235E+04  0.22008709235E+04  0.00000000000E+00 0. -1.
         23    2    1    2    0    0  0.15608443601E+03  0.64200820676E+03  0.17311414459E+03  0.68900854045E+03  0.90704867822E+02 0.  0.
        254    2    1    2    0    0 -0.15608443601E+03 -0.64200820676E+03 -0.17859657087E+04  0.20998817424E+04  0.88503837802E+03 0.  0.
        -24    2    4    4    0    0 -0.15716043649E+03 -0.15001314555E+03 -0.15139803640E+04  0.15316481933E+04  0.81279141589E+02 0.  0.
         24    2    4    4    0    0  0.10760004810E+01 -0.49199506121E+03 -0.27198534474E+03  0.56823354909E+03  0.82783093283E+02 0.  0.
         13    1    3    3    0    0  0.42149241001E+01  0.75450674952E+02  0.47165570870E+02  0.89079520718E+02  0.00000000000E+00 0. -1.
        -13    1    3    3    0    0  0.15186951191E+03  0.56655753180E+03  0.12594857372E+03  0.59992901973E+03  0.00000000000E+00 0.  1.
          4    1    6    6  502    0  0.40847096264E+02 -0.21994425976E+03 -0.13123654153E+03  0.25935881035E+03  0.00000000000E+00 0. -1.
          3    1    5    5  503    0 -0.16177623836E+03 -0.13866030292E+03 -0.13024354615E+04  0.13197485981E+04  0.00000000000E+00 0. -1.
         -4    1    5    5    0  503  0.46158018617E+01 -0.11352842625E+02 -0.21154490246E+03  0.21189959514E+03  0.00000000000E+00 0.  1.
         -3    1    6    6    0  502 -0.39771095783E+02 -0.27205080145E+03 -0.14074880321E+03  0.30887473874E+03  0.00000000000E+00 0.  1.
<mgrwt>
<rscale>  0 0.22752184E+04</rscale>
<asrwt>0</asrwt>
<pdfrwt beam="1">  1        2 0.33859553E+00 0.22752184E+04</pdfrwt>
<pdfrwt beam="2">  1       -2 0.90464515E-01 0.22752184E+04</pdfrwt>
<totfact> 0.48927538E+00</totfact>
</mgrwt>
</event>
<event>
12    1  0.1114484E-007  0.1218557E+04  0.7818608E-02  0.9096767E-01
          1   -1    0    0  501    0  0.00000000000E+00  0.00000000000E+00  0.69402987049E+03  0.69402987049E+03  0.00000000000E+00 0. -1.
         -1   -1    0    0    0  501 -0.00000000000E+00 -0.00000000000E+00 -0.53487675439E+03  0.53487675439E+03  0.00000000000E+00 0.  1.
         23    2    1    2    0    0  0.14438958040E+03  0.59299944296E+02  0.25143353854E+03  0.31093057848E+03  0.95363336821E+02 0.  0.
        254    2    1    2    0    0 -0.14438958040E+03 -0.59299944296E+02 -0.92280422442E+02  0.91797604640E+03  0.89988861037E+03 0.  0.
        -24    2    4    4    0    0 -0.28513694367E+03  0.57586802167E+01  0.34163680902E+03  0.45192049194E+03  0.78614138148E+02 0.  0.
         24    2    4    4    0    0  0.14074736327E+03 -0.65058624513E+02 -0.43391723147E+03  0.46605555445E+03  0.69865378999E+02 0.  0.
         11    1    3    3    0    0  0.75199849032E+02  0.37106432262E+02  0.51995694958E+02  0.98668418979E+02  0.00000000000E+00 0. -1.
        -11    1    3    3    0    0  0.69189731366E+02  0.22193512034E+02  0.19943784358E+03  0.21226215950E+03  0.00000000000E+00 0.  1.
          4    1    6    6  502    0  0.32506156041E+02  0.31428400681E+01 -0.16571537710E+03  0.16890267562E+03  0.00000000000E+00 0. -1.
          1    1    5    5  503    0 -0.21881327888E+03 -0.88798655407E+01  0.30276404501E+03  0.37366317717E+03  0.00000000000E+00 0. -1.
         -2    1    5    5    0  503 -0.66323664788E+02  0.14638545757E+02  0.38872764017E+02  0.78257314771E+02  0.00000000000E+00 0.  1.
         -3    1    6    6    0  502  0.10824120723E+03 -0.68201464581E+02 -0.26820185436E+03  0.29715287883E+03  0.00000000000E+00 0.  1.
<mgrwt>
<rscale>  0 0.12185573E+04</rscale>
<asrwt>0</asrwt>
<pdfrwt beam="1">  1        1 0.10677383E+00 0.12185573E+04</pdfrwt>
<pdfrwt beam="2">  1       -1 0.82288731E-01 0.12185573E+04</pdfrwt>
<totfact> 0.40081666E+01</totfact>
</mgrwt>
</event>
<event>
12    1  0.1114484E-007  0.1178091E+04  0.7818608E-02  0.9132253E-01
          2   -1    0    0  501    0  0.00000000000E+00  0.00000000000E+00  0.13896803098E+04  0.13896803098E+04  0.00000000000E+00 0. -1.
         -2   -1    0    0    0  501 -0.00000000000E+00 -0.00000000000E+00 -0.24967932111E+03  0.24967932111E+03  0.00000000000E+00 0.  1.
         23    2    1    2    0    0  0.60059210059E+02  0.84002113694E+02 -0.17196589591E+02  0.14940516495E+03  0.10659604497E+03 0.  0.
        254    2    1    2    0    0 -0.60059210059E+02 -0.84002113694E+02  0.11571975783E+04  0.14899544659E+04  0.93284222225E+03 0.  0.
        -24    2    4    4    0    0  0.10741882576E+03 -0.19118955802E+03 -0.70453050287E+02  0.24412531188E+03  0.80878207087E+02 0.  0.
         24    2    4    4    0    0 -0.16747803582E+03  0.10718744433E+03  0.12276506285E+04  0.12458291541E+04  0.73662572726E+02 0.  0.
         11    1    3    3    0    0  0.32768835252E+02 -0.19571334517E+02  0.88372612957E+01  0.39178194008E+02  0.00000000000E+00 0. -1.
        -11    1    3    3    0    0  0.27290374807E+02  0.10357344821E+03 -0.26033850886E+02  0.11022697094E+03  0.00000000000E+00 0.  1.
          2    1    6    6  502    0 -0.32749810299E+01  0.21334819785E+02  0.23838282662E+03  0.23935804157E+03  0.00000000000E+00 0. -1.
          1    1    5    5  503    0 -0.19583282387E+01 -0.94974409512E+01  0.13003311313E+02  0.16221052346E+02  0.00000000000E+00 0. -1.
         -4    1    5    5    0  503  0.10937715400E+03 -0.18169211707E+03 -0.83456361600E+02  0.22790425953E+03  0.00000000000E+00 0.  1.
         -1    1    6    6    0  502 -0.16420305479E+03  0.85852624543E+02  0.98926780193E+03  0.10064711125E+04  0.00000000000E+00 0.  1.
<mgrwt>
<rscale>  0 0.11780907E+04</rscale>
<asrwt>0</asrwt>
<pdfrwt beam="1">  1        2 0.21379697E+00 0.11780907E+04</pdfrwt>
<pdfrwt beam="2">  1       -2 0.38412204E-01 0.11780907E+04</pdfrwt>
<totfact> 0.92723461E+01</totfact>
</mgrwt>
</event>
<event>
12    1  0.1114484E-007  0.2429346E+04  0.7818608E-02  0.8428598E-01
          1   -1    0    0  501    0  0.00000000000E+00  0.00000000000E+00  0.19093584079E+04  0.19093584079E+04  0.00000000000E+00 0. -1.
         -1   -1    0    0    0  501 -0.00000000000E+00 -0.00000000000E+00 -0.77273617229E+03  0.77273617229E+03  0.00000000000E+00 0.  1.
         23    2    1    2    0    0  0.28293789204E+03  0.56967153376E+03 -0.42175882531E+03  0.76851304224E+03  0.90289989733E+02 0.  0.
        254    2    1    2    0    0 -0.28293789204E+03 -0.56967153376E+03  0.15583810609E+04  0.19135815379E+04  0.91030943322E+03 0.  0.
        -24    2    4    4    0    0 -0.28918413920E+03  0.14027470349E+03  0.82878883116E+03  0.89237255510E+03  0.78315973083E+02 0.  0.
         24    2    4    4    0    0  0.62462471527E+01 -0.70994623725E+03  0.72959222976E+03  0.10212089828E+04  0.80624373122E+02 0.  0.
         11    1    3    3    0    0  0.16055895025E+03  0.28136538870E+03 -0.26355559322E+03  0.41762089169E+03  0.00000000000E+00 0. -1.
        -11    1    3    3    0    0  0.12237894179E+03  0.28830614506E+03 -0.15820323209E+03  0.35089215055E+03  0.00000000000E+00 0.  1.
          2    1    6    6  502    0 -0.58574916104E+01 -0.63212093380E+03  0.61337638758E+03  0.88081881110E+03  0.00000000000E+00 0. -1.
          1    1    5    5  503    0 -0.24574619970E+03  0.13576463142E+03  0.64478741849E+03  0.70325958568E+03  0.00000000000E+00 0. -1.
         -2    1    5    5    0  503 -0.43437939498E+02  0.45100720722E+01  0.18400141267E+03  0.18911296942E+03  0.00000000000E+00 0.  1.
         -1    1    6    6    0  502  0.12103738763E+02 -0.77825303449E+02  0.11621584219E+03  0.14039017175E+03  0.00000000000E+00 0.  1.
<mgrwt>
<rscale>  0 0.24293458E+04</rscale>
<asrwt>0</asrwt>
<pdfrwt beam="1">  1        1 0.29374744E+00 0.24293458E+04</pdfrwt>
<pdfrwt beam="2">  1       -1 0.11888249E+00 0.24293458E+04</pdfrwt>
<totfact> 0.19437763E+00</totfact>
</mgrwt>
</event>
<event>
12    1  0.1114484E-007  0.2798913E+04  0.7818608E-02  0.8303606E-01
          1   -1    0    0  501    0  0.00000000000E+00  0.00000000000E+00  0.15645424913E+04  0.15645424913E+04  0.00000000000E+00 0. -1.
         -1   -1    0    0    0  501 -0.00000000000E+00 -0.00000000000E+00 -0.12517902872E+04  0.12517902872E+04  0.00000000000E+00 0.  1.
         23    2    1    2    0    0 -0.43840766186E+02  0.67260105555E+03  0.12067665760E+04  0.13853011114E+04  0.91975038604E+02 0.  0.
        254    2    1    2    0    0  0.43840766186E+02 -0.67260105555E+03 -0.89401437184E+03  0.14310316671E+04  0.89122148894E+03 0.  0.
        -24    2    4    4    0    0 -0.95400943740E+02  0.13198386372E+03  0.42506402199E+02  0.18604842738E+03  0.79285198828E+02 0.  0.
         24    2    4    4    0    0  0.13924170993E+03 -0.80458491927E+03 -0.93652077404E+03  0.12449832397E+04  0.78529999138E+02 0.  0.
         13    1    3    3    0    0 -0.47628826500E+02  0.15002218199E+03  0.29639145717E+03  0.33559358767E+03  0.00000000000E+00 0. -1.
        -13    1    3    3    0    0  0.37880603137E+01  0.52257887356E+03  0.91037511883E+03  0.10497075238E+04  0.00000000000E+00 0.  1.
          4    1    6    6  502    0  0.68998480136E+02 -0.35923148268E+03 -0.36153686667E+03  0.51431211766E+03  0.00000000000E+00 0. -1.
          1    1    5    5  503    0 -0.91013736306E+02  0.13857452726E+03  0.26100716566E+02  0.16783219956E+03  0.00000000000E+00 0. -1.
         -2    1    5    5    0  503 -0.43872074335E+01 -0.65906635423E+01  0.16405685634E+02  0.18216227823E+02  0.00000000000E+00 0.  1.
         -3    1    6    6    0  502  0.70243229790E+02 -0.44535343659E+03 -0.57498390737E+03  0.73067112201E+03  0.00000000000E+00 0.  1.
<mgrwt>
<rscale>  0 0.27989134E+04</rscale>
<asrwt>0</asrwt>
<pdfrwt beam="1">  1        1 0.24069885E+00 0.27989134E+04</pdfrwt>
<pdfrwt beam="2">  1       -1 0.19258312E+00 0.27989134E+04</pdfrwt>
<totfact> 0.86619796E-01</totfact>
</mgrwt>
</event>
<event>
12    1  0.1114484E-007  0.3070504E+04  0.7818608E-02  0.8223880E-01
          1   -1    0    0  501    0  0.00000000000E+00  0.00000000000E+00  0.13657896944E+04  0.13657896944E+04  0.00000000000E+00 0. -1.
         -1   -1    0    0    0  501 -0.00000000000E+00 -0.00000000000E+00 -0.17257403715E+04  0.17257403715E+04  0.00000000000E+00 0.  1.
         23    2    1    2    0    0 -0.40624573106E+03  0.22364422142E+03 -0.14955298063E+04  0.15684408103E+04  0.91350107014E+02 0.  0.
        254    2    1    2    0    0  0.40624573106E+03 -0.22364422142E+03  0.11355791293E+04  0.15230892556E+04  0.90288902404E+03 0.  0.
        -24    2    4    4    0    0  0.46033432476E+03 -0.19878597007E+03  0.14594382506E+03  0.52833065069E+03  0.80063249648E+02 0.  0.
         24    2    4    4    0    0 -0.54088593695E+02 -0.24858251355E+02  0.98963530424E+03  0.99475860487E+03  0.81382663604E+02 0.  0.
         11    1    3    3    0    0 -0.17155471438E+03  0.12901942266E+03 -0.80042444342E+03  0.82870762099E+03  0.00000000000E+00 0. -1.
        -11    1    3    3    0    0 -0.23469101668E+03  0.94624798765E+02 -0.69510536292E+03  0.73973318934E+03  0.00000000000E+00 0.  1.
          2    1    6    6  502    0  0.19819322666E+02 -0.17607015250E+02  0.27525684019E+03  0.27653054191E+03  0.00000000000E+00 0. -1.
          3    1    5    5  503    0  0.11654217521E+03 -0.39991963860E+02  0.20773233991E+01  0.12323047938E+03  0.00000000000E+00 0. -1.
         -4    1    5    5    0  503  0.34379214955E+03 -0.15879400621E+03  0.14386650166E+03  0.40510017131E+03  0.00000000000E+00 0.  1.
         -1    1    6    6    0  502 -0.73907916361E+02 -0.72512361044E+01  0.71437846405E+03  0.71822806296E+03  0.00000000000E+00 0.  1.
<mgrwt>
<rscale>  0 0.30705038E+04</rscale>
<asrwt>0</asrwt>
<pdfrwt beam="1">  1        1 0.21012149E+00 0.30705038E+04</pdfrwt>
<pdfrwt beam="2">  1       -1 0.26549852E+00 0.30705038E+04</pdfrwt>
<totfact> 0.37968254E-01</totfact>
</mgrwt>
</event>
<event>
12    1  0.1114484E-007  0.1801053E+04  0.7818608E-02  0.8705740E-01
         -2   -1    0    0    0  501 -0.00000000000E+00  0.00000000000E+00  0.46788642501E+03  0.46788642501E+03  0.00000000000E+00 0.  1.
          2   -1    0    0  501    0  0.00000000000E+00 -0.00000000000E+00 -0.17332161517E+04  0.17332161517E+04  0.00000000000E+00 0. -1.
         23    2    1    2    0    0  0.52096588519E+02 -0.58014943369E+03 -0.75368457112E+02  0.59435968213E+03  0.91080225474E+02 0.  0.
        254    2    1    2    0    0 -0.52096588519E+02  0.58014943369E+03 -0.11899612696E+04  0.16067428946E+04  0.90902556962E+03 0.  0.
        -24    2    4    4    0    0 -0.43807731112E+03  0.51294967318E+03 -0.77116084780E+03  0.10275430046E+04  0.78271804357E+02 0.  0.
         24    2    4    4    0    0  0.38598072260E+03  0.67199760510E+02 -0.41880042179E+03  0.57919989000E+03  0.81128251851E+02 0.  0.
         13    1    3    3    0    0 -0.76574253671E+01 -0.25475177747E+03  0.79177143560E+00  0.25486806624E+03  0.00000000000E+00 0. -1.
        -13    1    3    3    0    0  0.59754013886E+02 -0.32539765622E+03 -0.76160228548E+02  0.33949161589E+03  0.00000000000E+00 0.  1.
          2    1    6    6  502    0  0.34010724680E+03  0.54476945008E+02 -0.32287357099E+03  0.47211017750E+03  0.00000000000E+00 0. -1.
          3    1    5    5  503    0 -0.25595889059E+03  0.29731527239E+03 -0.50604634271E+03  0.64030791487E+03  0.00000000000E+00 0. -1.
         -4    1    5    5    0  503 -0.18211842054E+03  0.21563440079E+03 -0.26511450508E+03  0.38723508972E+03  0.00000000000E+00 0.  1.
         -1    1    6    6    0  502  0.45873475805E+02  0.12722815502E+02 -0.95926850805E+02  0.10708971249E+03  0.00000000000E+00 0.  1.
<mgrwt>
<rscale>  0 0.18010534E+04</rscale>
<asrwt>0</asrwt>
<pdfrwt beam="1">  1        2 0.26664864E+00 0.18010534E+04</pdfrwt>
<pdfrwt beam="2">  1       -2 0.71982527E-01 0.18010534E+04</pdfrwt>
<totfact> 0.15510781E+01</totfact>
</mgrwt>
</event>
<event>
12    1  0.1114484E-007  0.1640555E+04  0.7818608E-02  0.8796014E-01
         -1   -1    0    0    0  501 -0.00000000000E+00  0.00000000000E+00  0.38145956819E+03  0.38145956819E+03  0.00000000000E+00 0.  1.
          1   -1    0    0  501    0  0.00000000000E+00 -0.00000000000E+00 -0.17638955330E+04  0.17638955330E+04  0.00000000000E+00 0. -1.
         23    2    1    2    0    0 -0.52892556123E+03  0.16947650055E+03 -0.65754757046E+03  0.86532610019E+03  0.89083773446E+02 0.  0.
        254    2    1    2    0    0  0.52892556123E+03 -0.16947650055E+03 -0.72488839434E+03  0.12800290010E+04  0.89695402644E+03 0.  0.
        -24    2    4    4    0    0  0.37557422599E+03 -0.25984596389E+03  0.63352801651E+02  0.46800551006E+03  0.80247465966E+02 0.  0.
         24    2    4    4    0    0  0.15335133525E+03  0.90369463343E+02 -0.78824119599E+03  0.81202349093E+03  0.79841686082E+02 0.  0.
         13    1    3    3    0    0 -0.26792392957E+03  0.82711024646E+02 -0.26350166159E+03  0.38478236874E+03  0.00000000000E+00 0.  1.
        -13    1    3    3    0    0 -0.26100163167E+03  0.86765475903E+02 -0.39404590887E+03  0.48054373145E+03  0.00000000000E+00 0. -1.
          4    1    6    6  502    0  0.53637659739E+02  0.75991476712E+02 -0.42581299132E+03  0.43585365279E+03  0.00000000000E+00 0. -1.
          3    1    5    5  503    0  0.24004086259E+03 -0.18231889217E+03  0.54622550241E+01  0.30147907123E+03  0.00000000000E+00 0. -1.
         -4    1    5    5    0  503  0.13553336339E+03 -0.77527071718E+02  0.57890546627E+02  0.16652643883E+03  0.00000000000E+00 0.  1.
         -3    1    6    6    0  502  0.99713675511E+02  0.14377986631E+02 -0.36242820467E+03  0.37616983813E+03  0.00000000000E+00 0.  1.
<mgrwt>
<rscale>  0 0.16405546E+04</rscale>
<asrwt>0</asrwt>
<pdfrwt beam="1">  1        1 0.27136854E+00 0.16405546E+04</pdfrwt>
<pdfrwt beam="2">  1       -1 0.58686088E-01 0.16405546E+04</pdfrwt>
<totfact> 0.12132559E+01</totfact>
</mgrwt>
</event>
<event>
12    1  0.1114484E-007  0.1720191E+04  0.7818608E-02  0.8749932E-01
         -2   -1    0    0    0  501 -0.00000000000E+00  0.00000000000E+00  0.79756369933E+03  0.79756369933E+03  0.00000000000E+00 0.  1.
          2   -1    0    0  501    0  0.00000000000E+00 -0.00000000000E+00 -0.92752972267E+03  0.92752972267E+03  0.00000000000E+00 0. -1.
         23    2    1    2    0    0  0.41952126868E+03  0.42780172050E+03  0.10433644162E+03  0.61496337716E+03  0.91002501355E+02 0.  0.
        254    2    1    2    0    0 -0.41952126868E+03 -0.42780172050E+03 -0.23430246497E+03  0.11101300448E+04  0.90469810680E+03 0.  0.
        -24    2    4    4    0    0 -0.38646342911E+03 -0.11428220624E+03 -0.53032440722E+03  0.67068762082E+03  0.78507981328E+02 0.  0.
         24    2    4    4    0    0 -0.33057839573E+02 -0.31351951426E+03  0.29602194225E+03  0.43944242402E+03  0.78059894681E+02 0.  0.
         11    1    3    3    0    0  0.17572570289E+03  0.20087461303E+03  0.89760958504E+02  0.28157976222E+03  0.00000000000E+00 0. -1.
        -11    1    3    3    0    0  0.24379556579E+03  0.22692710747E+03  0.14575483118E+02  0.33338361494E+03  0.00000000000E+00 0.  1.
          4    1    6    6  502    0  0.27139026270E+00 -0.20531523828E+02 -0.14494571858E+01  0.20584412780E+02  0.00000000000E+00 0. -1.
          3    1    5    5  503    0 -0.90015170498E+02 -0.32046058980E+02 -0.18488534457E+03  0.20811600480E+03  0.00000000000E+00 0. -1.
         -4    1    5    5    0  503 -0.29644825861E+03 -0.82236147265E+02 -0.34543906265E+03  0.46257161603E+03  0.00000000000E+00 0.  1.
         -3    1    6    6    0  502 -0.33329229836E+02 -0.29298799043E+03  0.29747139944E+03  0.41885801124E+03  0.00000000000E+00 0.  1.
<mgrwt>
<rscale>  0 0.17201907E+04</rscale>
<asrwt>0</asrwt>
<pdfrwt beam="1">  1        2 0.14269688E+00 0.17201907E+04</pdfrwt>
<pdfrwt beam="2">  1       -2 0.12270211E+00 0.17201907E+04</pdfrwt>
<totfact> 0.13408768E+01</totfact>
</mgrwt>
</event>
<event>
12    1  0.1114484E-007  0.2158754E+04  0.7818608E-02  0.8535795E-01
          1   -1    0    0  501    0  0.00000000000E+00  0.00000000000E+00  0.61329031285E+03  0.61329031285E+03  0.00000000000E+00 0. -1.
         -1   -1    0    0    0  501 -0.00000000000E+00 -0.00000000000E+00 -0.18996781477E+04  0.18996781477E+04  0.00000000000E+00 0.  1.
         23    2    1    2    0    0 -0.73134297722E+03 -0.89438035520E+02 -0.10796943908E+04  0.13102448371E+04  0.90221078593E+02 0.  0.
        254    2    1    2    0    0  0.73134297722E+03  0.89438035520E+02 -0.20669344397E+03  0.12027236234E+04  0.92787942212E+03 0.  0.
        -24    2    4    4    0    0  0.12866210080E+03 -0.15032298562E+03 -0.45650351218E+03  0.50319943605E+03  0.75254764765E+02 0.  0.
         24    2    4    4    0    0  0.60268087642E+03  0.23976102114E+03  0.24981006821E+03  0.69952418736E+03  0.78863378466E+02 0.  0.
         11    1    3    3    0    0 -0.31222417705E+03 -0.63536840192E+02 -0.40137196164E+03  0.51246494357E+03  0.00000000000E+00 0. -1.
        -11    1    3    3    0    0 -0.41911880017E+03 -0.25901195328E+02 -0.67832242919E+03  0.79777989352E+03  0.00000000000E+00 0.  1.
          2    1    6    6  502    0  0.26867423351E+03  0.12922419958E+03  0.15042053979E+03  0.33393274218E+03  0.00000000000E+00 0. -1.
          1    1    5    5  503    0  0.82644450576E+02 -0.41951455670E+02 -0.17402995225E+03  0.19717112903E+03  0.00000000000E+00 0. -1.
         -2    1    5    5    0  503  0.46017650221E+02 -0.10837152995E+03 -0.28247355993E+03  0.30602830702E+03  0.00000000000E+00 0.  1.
         -1    1    6    6    0  502  0.33400664291E+03  0.11053682156E+03  0.99389528416E+02  0.36559144518E+03  0.00000000000E+00 0.  1.
<mgrwt>
<rscale>  0 0.21587535E+04</rscale>
<asrwt>0</asrwt>
<pdfrwt beam="1">  1        1 0.94352355E-01 0.21587535E+04</pdfrwt>
<pdfrwt beam="2">  1       -1 0.29225818E+00 0.21587535E+04</pdfrwt>
<totfact> 0.11256537E+00</totfact>
</mgrwt>
</event>
<event>
12    1  0.1114484E-007  0.1755521E+04  0.7818608E-02  0.8730317E-01
          2   -1    0    0  501    0  0.00000000000E+00  0.00000000000E+00  0.14408521460E+04  0.14408521460E+04  0.00000000000E+00 0. -1.
         -2   -1    0    0    0  501 -0.00000000000E+00 -0.00000000000E+00 -0.53472776840E+03  0.53472776840E+03  0.00000000000E+00 0.  1.
         23    2    1    2    0    0  0.16309162625E+03 -0.20096922241E+03  0.10016086883E+04  0.10386284865E+04  0.92421109374E+02 0.  0.
        254    2    1    2    0    0 -0.16309162625E+03  0.20096922241E+03 -0.95484310762E+02  0.93695142791E+03  0.89541790118E+03 0.  0.
        -24    2    4    4    0    0 -0.32312413669E+03 -0.23822389834E+03 -0.19311552147E+03  0.45285626960E+03  0.81396331810E+02 0.  0.
         24    2    4    4    0    0  0.16003251044E+03  0.43919312075E+03  0.97631210712E+02  0.48409515830E+03  0.79468655908E+02 0.  0.
         11    1    3    3    0    0  0.44414856988E+02 -0.19378719079E+02  0.97754114465E+02  0.10910582555E+03  0.00000000000E+00 0.  1.
        -11    1    3    3    0    0  0.11867676926E+03 -0.18159050333E+03  0.90385457387E+03  0.92952266093E+03  0.00000000000E+00 0. -1.
          4    1    6    6  502    0  0.95218440878E+02  0.29268146594E+03  0.10076786533E+03  0.32385668848E+03  0.00000000000E+00 0. -1.
          3    1    5    5  503    0 -0.23353840994E+02 -0.15873219929E+02  0.73734132590E+01  0.29184383207E+02  0.00000000000E+00 0. -1.
         -4    1    5    5    0  503 -0.29977029569E+03 -0.22235067842E+03 -0.20048893473E+03  0.42367188640E+03  0.00000000000E+00 0.  1.
         -3    1    6    6    0  502  0.64814069563E+02  0.14651165481E+03 -0.31366546222E+01  0.16023846982E+03  0.00000000000E+00 0.  1.
<mgrwt>
<rscale>  0 0.17555212E+04</rscale>
<asrwt>0</asrwt>
<pdfrwt beam="1">  1        2 0.22166956E+00 0.17555212E+04</pdfrwt>
<pdfrwt beam="2">  1       -2 0.82265811E-01 0.17555212E+04</pdfrwt>
<totfact> 0.16862026E+01</totfact>
</mgrwt>
</event>
<event>
12    1  0.1114484E-007  0.1553870E+04  0.7818608E-02  0.8849400E-01
          1   -1    0    0  501    0  0.00000000000E+00  0.00000000000E+00  0.21719658700E+04  0.21719658700E+04  0.00000000000E+00 0. -1.
         -1   -1    0    0    0  501 -0.00000000000E+00 -0.00000000000E+00 -0.27791783594E+03  0.27791783594E+03  0.00000000000E+00 0.  1.
         23    2    1    2    0    0  0.34467013670E+03  0.37070825015E+03  0.62320124231E+03  0.80807793695E+03  0.91586319394E+02 0.  0.
        254    2    1    2    0    0 -0.34467013670E+03 -0.37070825015E+03  0.12708467918E+04  0.16418057690E+04  0.90788353060E+03 0.  0.
        -24    2    4    4    0    0 -0.61732374435E+02  0.29409987344E+03  0.34035432573E+03  0.46077427260E+03  0.78525420317E+02 0.  0.
         24    2    4    4    0    0 -0.28293776226E+03 -0.66480812360E+03  0.93049246603E+03  0.11810314964E+04  0.83639390443E+02 0.  0.
         11    1    3    3    0    0  0.27534868912E+03  0.33005071046E+03  0.48369058444E+03  0.64707569383E+03  0.00000000000E+00 0.  1.
        -11    1    3    3    0    0  0.69321447575E+02  0.40657539697E+02  0.13951065787E+03  0.16100224311E+03  0.00000000000E+00 0. -1.
          4    1    6    6  502    0 -0.21422174794E+03 -0.44993045095E+03  0.69185653965E+03  0.85263933726E+03  0.00000000000E+00 0. -1.
          1    1    5    5  503    0 -0.10697227453E+02  0.20365114211E+03  0.19522270979E+03  0.28231210526E+03  0.00000000000E+00 0. -1.
         -2    1    5    5    0  503 -0.51035146982E+02  0.90448731331E+02  0.14513161594E+03  0.17846216734E+03  0.00000000000E+00 0.  1.
         -3    1    6    6    0  502 -0.68716014319E+02 -0.21487767265E+03  0.23863592638E+03  0.32839215914E+03  0.00000000000E+00 0.  1.
<mgrwt>
<rscale>  0 0.15538701E+04</rscale>
<asrwt>0</asrwt>
<pdfrwt beam="1">  1        1 0.33414858E+00 0.15538701E+04</pdfrwt>
<pdfrwt beam="2">  1       -1 0.42756592E-01 0.15538701E+04</pdfrwt>
<totfact> 0.11822793E+01</totfact>
</mgrwt>
</event>
<event>
12    1  0.1114484E-007  0.1909555E+04  0.7818608E-02  0.8650115E-01
          1   -1    0    0  501    0  0.00000000000E+00  0.00000000000E+00  0.81563605964E+03  0.81563605964E+03  0.00000000000E+00 0. -1.
         -1   -1    0    0    0  501 -0.00000000000E+00 -0.00000000000E+00 -0.11176557071E+04  0.11176557071E+04  0.00000000000E+00 0.  1.
         23    2    1    2    0    0  0.18531454454E+03 -0.55207023758E+03  0.34196326214E+03  0.68171696228E+03  0.93145672821E+02 0.  0.
        254    2    1    2    0    0 -0.18531454454E+03  0.55207023758E+03 -0.64398290955E+03  0.12515748044E+04  0.90144466031E+03 0.  0.
        -24    2    4    4    0    0  0.34317796693E+03  0.10662797660E+03 -0.30380186678E+03  0.47746746382E+03  0.80863850804E+02 0.  0.
         24    2    4    4    0    0 -0.52849251148E+03  0.44544226098E+03 -0.34018104277E+03  0.77410734059E+03  0.76130745000E+02 0.  0.
         13    1    3    3    0    0  0.98879892992E+02 -0.39590345819E+03  0.20457169956E+03  0.45647164392E+03  0.00000000000E+00 0. -1.
        -13    1    3    3    0    0  0.86434651552E+02 -0.15616677939E+03  0.13739156258E+03  0.22524531836E+03  0.00000000000E+00 0.  1.
          2    1    6    6  502    0 -0.42121616402E+03  0.31757343086E+03 -0.24109373850E+03  0.58000183755E+03  0.00000000000E+00 0. -1.
          1    1    5    5  503    0  0.21254956337E+03  0.31904792055E+02 -0.14869577818E+03  0.26135352894E+03  0.00000000000E+00 0. -1.
         -2    1    5    5    0  503  0.13062840357E+03  0.74723184544E+02 -0.15510608860E+03  0.21611393488E+03  0.00000000000E+00 0.  1.
         -1    1    6    6    0  502 -0.10727634746E+03  0.12786883013E+03 -0.99087304275E+02  0.19410550304E+03  0.00000000000E+00 0.  1.
<mgrwt>
<rscale>  0 0.19095552E+04</rscale>
<asrwt>0</asrwt>
<pdfrwt beam="1">  1        1 0.12548247E+00 0.19095552E+04</pdfrwt>
<pdfrwt beam="2">  1       -1 0.17194703E+00 0.19095552E+04</pdfrwt>
<totfact> 0.47696381E+00</totfact>
</mgrwt>
</event>
<event>
12    1  0.1114484E-007  0.1752558E+04  0.7818608E-02  0.8731944E-01
         -2   -1    0    0    0  501 -0.00000000000E+00  0.00000000000E+00  0.44874410454E+03  0.44874410454E+03  0.00000000000E+00 0.  1.
          2   -1    0    0  501    0  0.00000000000E+00 -0.00000000000E+00 -0.17111419583E+04  0.17111419583E+04  0.00000000000E+00 0. -1.
         23    2    1    2    0    0 -0.27379882284E+03 -0.44580038731E+03 -0.92884333067E+03  0.10693728434E+04  0.84288578460E+02 0.  0.
        254    2    1    2    0    0  0.27379882284E+03  0.44580038731E+03 -0.33355452308E+03  0.10905132195E+04  0.89680359124E+03 0.  0.
        -24    2    4    4    0    0 -0.10961991844E+03  0.16206331383E+03 -0.52934269336E+03  0.57017230744E+03  0.81312538683E+02 0.  0.
         24    2    4    4    0    0  0.38341874128E+03  0.28373707348E+03  0.19578817029E+03  0.52034091203E+03  0.70035698615E+02 0.  0.
         11    1    3    3    0    0 -0.23200709986E+03 -0.38441972078E+03 -0.72902609739E+03  0.85620375308E+03  0.00000000000E+00 0. -1.
        -11    1    3    3    0    0 -0.41791722978E+02 -0.61380666534E+02 -0.19981723328E+03  0.21316909028E+03  0.00000000000E+00 0.  1.
          2    1    6    6  502    0  0.11724493141E+03  0.57144263070E+02  0.75255592477E+02  0.15058301678E+03  0.00000000000E+00 0. -1.
          1    1    5    5  503    0 -0.25332894143E+02  0.44393517696E+02 -0.58996550537E+02  0.78058522368E+02  0.00000000000E+00 0. -1.
         -2    1    5    5    0  503 -0.84287024298E+02  0.11766979614E+03 -0.47034614283E+03  0.49211378507E+03  0.00000000000E+00 0.  1.
         -1    1    6    6    0  502  0.26617380987E+03  0.22659281041E+03  0.12053257781E+03  0.36975789526E+03  0.00000000000E+00 0.  1.
<mgrwt>
<rscale>  0 0.17525580E+04</rscale>
<asrwt>0</asrwt>
<pdfrwt beam="1">  1        2 0.26325260E+00 0.17525580E+04</pdfrwt>
<pdfrwt beam="2">  1       -2 0.69037556E-01 0.17525580E+04</pdfrwt>
<totfact> 0.17551374E+01</totfact>
</mgrwt>
</event>
<event>
12    1  0.1114484E-007  0.1609637E+04  0.7818608E-02  0.8814649E-01
         -1   -1    0    0    0  501 -0.00000000000E+00  0.00000000000E+00  0.87778903071E+03  0.87778903071E+03  0.00000000000E+00 0.  1.
          1   -1    0    0  501    0  0.00000000000E+00 -0.00000000000E+00 -0.73791397158E+03  0.73791397158E+03  0.00000000000E+00 0. -1.
         23    2    1    2    0    0 -0.24166633698E+03 -0.40303833534E+03  0.31913134170E+03  0.57551947820E+03  0.92386894961E+02 0.  0.
        254    2    1    2    0    0  0.24166633698E+03  0.40303833534E+03 -0.17925628257E+03  0.10401835241E+04  0.91049790266E+03 0.  0.
        -24    2    4    4    0    0  0.46046021431E+03  0.55955744240E+03 -0.47527976465E+02  0.73057246831E+03  0.79681130738E+02 0.  0.
         24    2    4    4    0    0 -0.21879387733E+03 -0.15651910707E+03 -0.13172830611E+03  0.30961105578E+03  0.78343267711E+02 0.  0.
         13    1    3    3    0    0 -0.21027603126E+01  0.14560010785E+01  0.15879149218E+02  0.16083809249E+02  0.00000000000E+00 0. -1.
        -13    1    3    3    0    0 -0.23956357666E+03 -0.40449433641E+03  0.30325219248E+03  0.55943566896E+03  0.00000000000E+00 0.  1.
          2    1    6    6  502    0 -0.16240326359E+03 -0.14584295870E+03 -0.80397748551E+02  0.23261295449E+03  0.00000000000E+00 0. -1.
          1    1    5    5  503    0  0.16059760051E+03  0.22820848442E+03 -0.50971737777E+02  0.28367026581E+03  0.00000000000E+00 0. -1.
         -2    1    5    5    0  503  0.29986261379E+03  0.33134895798E+03  0.34437613118E+01  0.44690220250E+03  0.00000000000E+00 0.  1.
         -1    1    6    6    0  502 -0.56390613740E+02 -0.10676148367E+02 -0.51330557558E+02  0.76998101283E+02  0.00000000000E+00 0.  1.
<mgrwt>
<rscale>  0 0.16096370E+04</rscale>
<asrwt>0</asrwt>
<pdfrwt beam="1">  1        1 0.11352523E+00 0.16096370E+04</pdfrwt>
<pdfrwt beam="2">  1       -1 0.13504447E+00 0.16096370E+04</pdfrwt>
<totfact> 0.11087235E+01</totfact>
</mgrwt>
</event>
<event>
12    1  0.1114484E-007  0.1935977E+04  0.7818608E-02  0.8637153E-01
         -2   -1    0    0    0  501 -0.00000000000E+00  0.00000000000E+00  0.90092598256E+03  0.90092598256E+03  0.00000000000E+00 0.  1.
          2   -1    0    0  501    0  0.00000000000E+00 -0.00000000000E+00 -0.10400428204E+04  0.10400428204E+04  0.00000000000E+00 0. -1.
         23    2    1    2    0    0  0.57667544296E+03  0.48570754804E+03 -0.13945263899E+03  0.77140709522E+03  0.84590066191E+02 0.  0.
        254    2    1    2    0    0 -0.57667544296E+03 -0.48570754804E+03  0.33580116893E+00  0.11695617077E+04  0.89409624017E+03 0.  0.
        -24    2    4    4    0    0 -0.22342650883E+03 -0.64849651519E+03  0.20819800110E+03  0.72131140393E+03  0.80477317951E+02 0.  0.
         24    2    4    4    0    0 -0.35324893413E+03  0.16278896715E+03 -0.20786219993E+03  0.44825030380E+03  0.80228320500E+02 0.  0.
         11    1    3    3    0    0  0.47591331423E+03  0.39288370355E+03 -0.80873906927E+02  0.62240796589E+03  0.00000000000E+00 0.  1.
        -11    1    3    3    0    0  0.10076212873E+03  0.92823844491E+02 -0.58578732063E+02  0.14899912933E+03  0.00000000000E+00 0. -1.
          2    1    6    6  502    0 -0.24578698980E+02  0.12320979310E+02  0.61477584377E+01  0.28172928647E+02  0.00000000000E+00 0. -1.
          3    1    5    5  503    0 -0.38222203960E+02 -0.80027177263E+02  0.54133223276E+02  0.10390231874E+03  0.00000000000E+00 0. -1.
         -4    1    5    5    0  503 -0.18520430487E+03 -0.56846933793E+03  0.15406477782E+03  0.61740908519E+03  0.00000000000E+00 0.  1.
         -1    1    6    6    0  502 -0.32867023515E+03  0.15046798784E+03 -0.21400995837E+03  0.42007737516E+03  0.00000000000E+00 0.  1.
<mgrwt>
<rscale>  0 0.19359769E+04</rscale>
<asrwt>0</asrwt>
<pdfrwt beam="1">  1        2 0.16000659E+00 0.19359769E+04</pdfrwt>
<pdfrwt beam="2">  1       -2 0.13860400E+00 0.19359769E+04</pdfrwt>
<totfact> 0.81758057E+00</totfact>
</mgrwt>
</event>
<event>
12    1  0.1114484E-007  0.2261241E+04  0.7818608E-02  0.8493362E-01
          1   -1    0    0  501    0  0.00000000000E+00  0.00000000000E+00  0.17899665490E+04  0.17899665490E+04  0.00000000000E+00 0. -1.
         -1   -1    0    0    0  501 -0.00000000000E+00 -0.00000000000E+00 -0.71414866969E+03  0.71414866969E+03  0.00000000000E+00 0.  1.
         23    2    1    2    0    0 -0.82476894062E+03  0.39363090002E+03  0.16780636754E+03  0.93338986652E+03  0.88704988969E+02 0.  0.
        254    2    1    2    0    0  0.82476894062E+03 -0.39363090002E+03  0.90801151177E+03  0.15707253522E+04  0.89861233890E+03 0.  0.
        -24    2    4    4    0    0  0.20529522484E+03  0.27920648568E+03  0.17320915195E+03  0.39494086745E+03  0.76645205185E+02 0.  0.
         24    2    4    4    0    0  0.61947371577E+03 -0.67283738569E+03  0.73480235982E+03  0.11757844847E+04  0.77953924919E+02 0.  0.
         13    1    3    3    0    0 -0.39412936148E+03  0.20961941010E+03  0.12243143739E+03  0.46289059996E+03  0.00000000000E+00 0.  1.
        -13    1    3    3    0    0 -0.43063957914E+03  0.18401148992E+03  0.45374930158E+02  0.47049926656E+03  0.00000000000E+00 0. -1.
          4    1    6    6  502    0  0.53672813245E+02 -0.29914177026E+02  0.47481664454E+02  0.77653958869E+02  0.00000000000E+00 0. -1.
          1    1    5    5  503    0  0.32904562692E+02  0.86121314510E+02  0.20630056972E+02  0.94473225358E+02  0.00000000000E+00 0. -1.
         -2    1    5    5    0  503  0.17239066215E+03  0.19308517116E+03  0.15257909498E+03  0.30046764210E+03  0.00000000000E+00 0.  1.
         -3    1    6    6    0  502  0.56580090253E+03 -0.64292320867E+03  0.68732069537E+03  0.10981305259E+04  0.00000000000E+00 0.  1.
<mgrwt>
<rscale>  0 0.22612406E+04</rscale>
<asrwt>0</asrwt>
<pdfrwt beam="1">  1        1 0.27537947E+00 0.22612406E+04</pdfrwt>
<pdfrwt beam="2">  1       -1 0.10986903E+00 0.22612406E+04</pdfrwt>
<totfact> 0.28721663E+00</totfact>
</mgrwt>
</event>
<event>
12    1  0.1114484E-007  0.1939753E+04  0.7818608E-02  0.8635318E-01
         -1   -1    0    0    0  501 -0.00000000000E+00  0.00000000000E+00  0.54762775516E+03  0.54762775516E+03  0.00000000000E+00 0.  1.
          1   -1    0    0  501    0  0.00000000000E+00 -0.00000000000E+00 -0.17177010827E+04  0.17177010827E+04  0.00000000000E+00 0. -1.
         23    2    1    2    0    0 -0.32593155637E+03 -0.52490806630E+03  0.53860845710E+02  0.62680729035E+03  0.90700226151E+02 0.  0.
        254    2    1    2    0    0  0.32593155637E+03  0.52490806630E+03 -0.12239341732E+04  0.16385215475E+04  0.89720574212E+03 0.  0.
        -24    2    4    4    0    0  0.28785205204E+03 -0.18377478143E+03 -0.24882375810E+03  0.43010813830E+03  0.80298031607E+02 0.  0.
         24    2    4    4    0    0  0.38079504334E+02  0.70868284774E+03 -0.97511041513E+03  0.12084134092E+04  0.75770828823E+02 0.  0.
         11    1    3    3    0    0 -0.12819186582E+02 -0.43729971247E+02  0.25050089539E+02  0.52001431863E+02  0.00000000000E+00 0. -1.
        -11    1    3    3    0    0 -0.31311236979E+03 -0.48117809506E+03  0.28810756171E+02  0.57480585849E+03  0.00000000000E+00 0.  1.
          2    1    6    6  502    0  0.33108193183E+02  0.62877765953E+03 -0.81995145324E+03  0.10338171421E+04  0.00000000000E+00 0. -1.
          1    1    5    5  503    0  0.28656404215E+03 -0.16271188581E+03 -0.23709271514E+03  0.40596436248E+03  0.00000000000E+00 0. -1.
         -2    1    5    5    0  503  0.12880098945E+01 -0.21062895627E+02 -0.11731042963E+02  0.24143775816E+02  0.00000000000E+00 0.  1.
         -1    1    6    6    0  502  0.49713111510E+01  0.79905188206E+02 -0.15515896189E+03  0.17459626712E+03  0.00000000000E+00 0.  1.
<mgrwt>
<rscale>  0 0.19397534E+04</rscale>
<asrwt>0</asrwt>
<pdfrwt beam="1">  1        1 0.26426170E+00 0.19397534E+04</pdfrwt>
<pdfrwt beam="2">  1       -1 0.84250424E-01 0.19397534E+04</pdfrwt>
<totfact> 0.60315843E+00</totfact>
</mgrwt>
</event>
<event>
12    1  0.1114484E-007  0.2032259E+04  0.7818608E-02  0.8591685E-01
         -1   -1    0    0    0  501 -0.00000000000E+00  0.00000000000E+00  0.47319287913E+03  0.47319287913E+03  0.00000000000E+00 0.  1.
          1   -1    0    0  501    0  0.00000000000E+00 -0.00000000000E+00 -0.21820265368E+04  0.21820265368E+04  0.00000000000E+00 0. -1.
         23    2    1    2    0    0 -0.10933658216E+03 -0.46767149610E+03 -0.15485394376E+04  0.16238543966E+04  0.90871310938E+02 0.  0.
        254    2    1    2    0    0  0.10933658216E+03  0.46767149610E+03 -0.16029422009E+03  0.10313650193E+04  0.89852570896E+03 0.  0.
        -24    2    4    4    0    0 -0.19364123361E+03  0.23184077125E+03 -0.44742085941E+03  0.54570288330E+03  0.79744221334E+02 0.  0.
         24    2    4    4    0    0  0.30297781577E+03  0.23583072485E+03  0.28712663931E+03  0.48566213604E+03  0.77552019631E+02 0.  0.
         13    1    3    3    0    0 -0.87489636493E+02 -0.18473948779E+03 -0.68905073775E+03  0.71873084951E+03  0.00000000000E+00 0. -1.
        -13    1    3    3    0    0 -0.21846945670E+02 -0.28293200831E+03 -0.85948869983E+03  0.90512354709E+03  0.00000000000E+00 0.  1.
          2    1    6    6  502    0  0.26625160094E+03  0.23463823757E+03  0.25759984555E+03  0.43852331519E+03  0.00000000000E+00 0. -1.
          1    1    5    5  503    0 -0.16198354936E+03  0.14590606678E+03 -0.34693828166E+03  0.40974799800E+03  0.00000000000E+00 0. -1.
         -2    1    5    5    0  503 -0.31657684253E+02  0.85934704468E+02 -0.10048257775E+03  0.13595488530E+03  0.00000000000E+00 0.  1.
         -1    1    6    6    0  502  0.36726214834E+02  0.11924872770E+01  0.29526793760E+02  0.47138820855E+02  0.00000000000E+00 0.  1.
<mgrwt>
<rscale>  0 0.20322593E+04</rscale>
<asrwt>0</asrwt>
<pdfrwt beam="1">  1        1 0.33569639E+00 0.20322593E+04</pdfrwt>
<pdfrwt beam="2">  1       -1 0.72798905E-01 0.20322593E+04</pdfrwt>
<totfact> 0.39440779E+00</totfact>
</mgrwt>
</event>
<event>
12    1  0.1114484E-007  0.1761497E+04  0.7818608E-02  0.8727047E-01
          1   -1    0    0  501    0  0.00000000000E+00  0.00000000000E+00  0.10748555282E+04  0.10748555282E+04  0.00000000000E+00 0. -1.
         -1   -1    0    0    0  501 -0.00000000000E+00 -0.00000000000E+00 -0.72169472867E+03  0.72169472867E+03  0.00000000000E+00 0.  1.
         23    2    1    2    0    0 -0.73706563244E+02  0.26609244651E+03  0.78038723082E+03  0.83190943998E+03  0.82651308176E+02 0.  0.
        254    2    1    2    0    0  0.73706563244E+02 -0.26609244651E+03 -0.42722643129E+03  0.96464081689E+03  0.81961676072E+03 0.  0.
        -24    2    4    4    0    0 -0.68534058317E+01 -0.33247931739E+03  0.14957569952E+03  0.37297496536E+03  0.78408986923E+02 0.  0.
         24    2    4    4    0    0  0.80559969075E+02  0.66386870881E+02 -0.57680213082E+03  0.59166585153E+03  0.80440391011E+02 0.  0.
         11    1    3    3    0    0 -0.51942507208E+01  0.26945943008E-02  0.72209773391E+00  0.52442037479E+01  0.00000000000E+00 0.  1.
        -11    1    3    3    0    0 -0.68512312523E+02  0.26608975192E+03  0.77966513309E+03  0.82666523623E+03  0.00000000000E+00 0. -1.
          4    1    6    6  502    0  0.38466712679E+02 -0.13061058435E+02 -0.21931609948E+03  0.22304670077E+03  0.00000000000E+00 0. -1.
          3    1    5    5  503    0 -0.14700535281E+02 -0.89269676846E+02  0.65282379583E+01  0.90707214887E+02  0.00000000000E+00 0. -1.
         -4    1    5    5    0  503  0.78471294494E+01 -0.24320964055E+03  0.14304746157E+03  0.28226775047E+03  0.00000000000E+00 0.  1.
         -3    1    6    6    0  502  0.42093256397E+02  0.79447929315E+02 -0.35748603134E+03  0.36861915076E+03  0.00000000000E+00 0.  1.
<mgrwt>
<rscale>  0 0.17614966E+04</rscale>
<asrwt>0</asrwt>
<pdfrwt beam="1">  1        1 0.16536239E+00 0.17614966E+04</pdfrwt>
<pdfrwt beam="2">  1       -1 0.11102996E+00 0.17614966E+04</pdfrwt>
<totfact> 0.93633622E+00</totfact>
</mgrwt>
</event>
<event>
12    1  0.1114484E-007  0.1714935E+04  0.7818608E-02  0.8752892E-01
          2   -1    0    0  501    0  0.00000000000E+00  0.00000000000E+00  0.57317585466E+03  0.57317585466E+03  0.00000000000E+00 0. -1.
         -2   -1    0    0    0  501 -0.00000000000E+00 -0.00000000000E+00 -0.12827660904E+04  0.12827660904E+04  0.00000000000E+00 0.  1.
         23    2    1    2    0    0  0.53989079803E+03 -0.26573897966E+03 -0.91113609661E+02  0.61539405195E+03  0.91153004363E+02 0.  0.
        254    2    1    2    0    0 -0.53989079803E+03  0.26573897966E+03 -0.61847662610E+03  0.12405478931E+04  0.89126116208E+03 0.  0.
        -24    2    4    4    0    0  0.48601754456E+02  0.10454016660E+03 -0.60968907483E+03  0.62549211302E+03  0.78922991051E+02 0.  0.
         24    2    4    4    0    0 -0.58849255248E+03  0.16119881306E+03 -0.87875512684E+01  0.61505578012E+03  0.76862539215E+02 0.  0.
         11    1    3    3    0    0  0.49720656004E+03 -0.25274950216E+03 -0.10719431805E+03  0.56796768923E+03  0.00000000000E+00 0.  1.
        -11    1    3    3    0    0  0.42684237991E+02 -0.12989477507E+02  0.16080708393E+02  0.47426362723E+02  0.00000000000E+00 0. -1.
          4    1    6    6  502    0 -0.10297327122E+03  0.59507224711E+02 -0.51384504627E+00  0.11893220091E+03  0.00000000000E+00 0. -1.
          3    1    5    5  503    0 -0.10106915736E+02  0.62653466256E+02 -0.36184922071E+03  0.36737237935E+03  0.00000000000E+00 0. -1.
         -4    1    5    5    0  503  0.58708670192E+02  0.41886700343E+02 -0.24783985412E+03  0.25811973367E+03  0.00000000000E+00 0.  1.
         -3    1    6    6    0  502 -0.48551928127E+03  0.10169158835E+03 -0.82737062221E+01  0.49612357920E+03  0.00000000000E+00 0.  1.
<mgrwt>
<rscale>  0 0.17149350E+04</rscale>
<asrwt>0</asrwt>
<pdfrwt beam="1">  1        2 0.88180902E-01 0.17149350E+04</pdfrwt>
<pdfrwt beam="2">  1       -2 0.19734863E+00 0.17149350E+04</pdfrwt>
<totfact> 0.68904710E+00</totfact>
</mgrwt>
</event>
<event>
12    1  0.1114484E-007  0.1873409E+04  0.7818608E-02  0.8668207E-01
          2   -1    0    0  501    0  0.00000000000E+00  0.00000000000E+00  0.10155273923E+04  0.10155273923E+04  0.00000000000E+00 0. -1.
         -2   -1    0    0    0  501 -0.00000000000E+00 -0.00000000000E+00 -0.86399986419E+03  0.86399986419E+03  0.00000000000E+00 0.  1.
         23    2    1    2    0    0 -0.11408351769E+03  0.43039496061E+02  0.77292250938E+03  0.78835412329E+03  0.96049835905E+02 0.  0.
        254    2    1    2    0    0  0.11408351769E+03 -0.43039496061E+02 -0.62139498126E+03  0.10911731332E+04  0.88862795175E+03 0.  0.
        -24    2    4    4    0    0 -0.33370195540E+03 -0.21552188631E+03 -0.34125962971E+03  0.52972894297E+03  0.79673958280E+02 0.  0.
         24    2    4    4    0    0  0.44778547309E+03  0.17248239025E+03 -0.28013535155E+03  0.56144419023E+03  0.80509370226E+02 0.  0.
         13    1    3    3    0    0 -0.58641767957E+02  0.53395218311E+02  0.62555557308E+03  0.63056298757E+03  0.00000000000E+00 0. -1.
        -13    1    3    3    0    0 -0.55441749735E+02 -0.10355722250E+02  0.14736693630E+03  0.15779113572E+03  0.00000000000E+00 0.  1.
          4    1    6    6  502    0  0.24279549886E+03  0.50421526026E+02 -0.14107987190E+03  0.28529899195E+03  0.00000000000E+00 0. -1.
          1    1    5    5  503    0 -0.25762366630E+03 -0.15793114407E+03 -0.29988514704E+03  0.42572679164E+03  0.00000000000E+00 0. -1.
         -2    1    5    5    0  503 -0.76078289102E+02 -0.57590742239E+02 -0.41374482675E+02  0.10400215133E+03  0.00000000000E+00 0.  1.
         -3    1    6    6    0  502  0.20498997424E+03  0.12206086422E+03 -0.13905547965E+03  0.27614519828E+03  0.00000000000E+00 0.  1.
<mgrwt>
<rscale>  0 0.18734092E+04</rscale>
<asrwt>0</asrwt>
<pdfrwt beam="1">  1        2 0.15623498E+00 0.18734092E+04</pdfrwt>
<pdfrwt beam="2">  1       -2 0.13292306E+00 0.18734092E+04</pdfrwt>
<totfact> 0.94832017E+00</totfact>
</mgrwt>
</event>
<event>
12    1  0.1114484E-007  0.2247186E+04  0.7818608E-02  0.8499041E-01
         -1   -1    0    0    0  501 -0.00000000000E+00  0.00000000000E+00  0.59880704387E+03  0.59880704387E+03  0.00000000000E+00 0.  1.
          1   -1    0    0  501    0  0.00000000000E+00 -0.00000000000E+00 -0.21082934485E+04  0.21082934485E+04  0.00000000000E+00 0. -1.
         23    2    1    2    0    0 -0.83209393753E+03 -0.28625917419E+03 -0.23474625294E+03  0.91535249633E+03  0.91868131508E+02 0.  0.
        254    2    1    2    0    0  0.83209393753E+03  0.28625917419E+03 -0.12747401517E+04  0.17917479960E+04  0.90059635312E+03 0.  0.
        -24    2    4    4    0    0 -0.17723563266E+03  0.13808731402E+03 -0.22989374463E+03  0.32927679702E+03  0.71354743801E+02 0.  0.
         24    2    4    4    0    0  0.10093295702E+04  0.14817186018E+03 -0.10448464070E+04  0.14624711990E+04  0.80105631270E+02 0.  0.
         13    1    3    3    0    0 -0.14090928301E+03 -0.16446937981E+02 -0.52949822605E+02  0.15142526712E+03  0.00000000000E+00 0.  1.
        -13    1    3    3    0    0 -0.69118465452E+03 -0.26981223621E+03 -0.18179643034E+03  0.76392722922E+03  0.00000000000E+00 0. -1.
          2    1    6    6  502    0  0.75649585865E+03  0.13281706687E+03 -0.82344819183E+03  0.11260520779E+04  0.00000000000E+00 0. -1.
          1    1    5    5  503    0 -0.18340316772E+03  0.12899021247E+03 -0.21400364391E+03  0.30995605568E+03  0.00000000000E+00 0. -1.
         -2    1    5    5    0  503  0.61675350655E+01  0.90971015427E+01 -0.15890100722E+02  0.19320741347E+02  0.00000000000E+00 0.  1.
         -1    1    6    6    0  502  0.25283371154E+03  0.15354793307E+02 -0.22139821520E+03  0.33641912113E+03  0.00000000000E+00 0.  1.
<mgrwt>
<rscale>  0 0.22471858E+04</rscale>
<asrwt>0</asrwt>
<pdfrwt beam="1">  1        1 0.32435284E+00 0.22471858E+04</pdfrwt>
<pdfrwt beam="2">  1       -1 0.92124161E-01 0.22471858E+04</pdfrwt>
<totfact> 0.26194528E+00</totfact>
</mgrwt>
</event>
<event>
12    1  0.1114484E-007  0.1151991E+04  0.7818608E-02  0.9155949E-01
         -1   -1    0    0    0  501 -0.00000000000E+00  0.00000000000E+00  0.30286541862E+03  0.30286541862E+03  0.00000000000E+00 0. -1.
          1   -1    0    0  501    0  0.00000000000E+00 -0.00000000000E+00 -0.10954400822E+04  0.10954400822E+04  0.00000000000E+00 0.  1.
         23    2    1    2    0    0 -0.13116044964E+03  0.12287738381E+01  0.42050082292E+02  0.16922133468E+03  0.98300952468E+02 0.  0.
        254    2    1    2    0    0  0.13116044964E+03 -0.12287738381E+01 -0.83462474585E+03  0.12290841661E+04  0.89266166467E+03 0.  0.
        -24    2    4    4    0    0 -0.49439038485E+02 -0.41941237403E+03 -0.31099072689E+03  0.53059782468E+03  0.80423014949E+02 0.  0.
         24    2    4    4    0    0  0.18059948813E+03  0.41818360019E+03 -0.52363401896E+03  0.69848634143E+03  0.78720294556E+02 0.  0.
         13    1    3    3    0    0 -0.13592985888E+03 -0.12577113251E+02  0.57350559239E+02  0.14806821724E+03  0.00000000000E+00 0. -1.
        -13    1    3    3    0    0  0.47694092342E+01  0.13805887089E+02 -0.15300476947E+02  0.21153117443E+02  0.00000000000E+00 0.  1.
          4    1    6    6  502    0  0.64799834772E+02  0.22645315717E+03 -0.23038054132E+03  0.32947722955E+03  0.00000000000E+00 0. -1.
          1    1    5    5  503    0 -0.49473850627E-01 -0.10627134986E+03 -0.12087569965E+03  0.16094886460E+03  0.00000000000E+00 0. -1.
         -2    1    5    5    0  503 -0.49389564634E+02 -0.31314102416E+03 -0.19011502723E+03  0.36964896008E+03  0.00000000000E+00 0.  1.
         -3    1    6    6    0  502  0.11579965336E+03  0.19173044302E+03 -0.29325347764E+03  0.36900911188E+03  0.00000000000E+00 0.  1.
<mgrwt>
<rscale>  0 0.11519912E+04</rscale>
<asrwt>0</asrwt>
<pdfrwt beam="1">  1        1 0.16852924E+00 0.11519912E+04</pdfrwt>
<pdfrwt beam="2">  1       -1 0.46594681E-01 0.11519912E+04</pdfrwt>
<totfact> 0.58194829E+01</totfact>
</mgrwt>
</event>
<event>
12    1  0.1114484E-007  0.3064614E+04  0.7818608E-02  0.8225517E-01
          1   -1    0    0  501    0  0.00000000000E+00  0.00000000000E+00  0.41602241777E+03  0.41602241777E+03  0.00000000000E+00 0. -1.
         -1   -1    0    0    0  501 -0.00000000000E+00 -0.00000000000E+00 -0.56438424381E+04  0.56438424381E+04  0.00000000000E+00 0.  1.
         23    2    1    2    0    0 -0.82525719779E+03  0.10787919584E+04 -0.17271404504E+04  0.21990822298E+04  0.90038802144E+02 0.  0.
        254    2    1    2    0    0  0.82525719779E+03 -0.10787919584E+04 -0.35006795700E+04  0.38607826261E+04  0.89779925518E+03 0.  0.
        -24    2    4    4    0    0 -0.15601405424E+02 -0.18029361312E+03 -0.14822072207E+04  0.14954769390E+04  0.82242564246E+02 0.  0.
         24    2    4    4    0    0  0.84085860321E+03 -0.89849834530E+03 -0.20184723493E+04  0.23653056871E+04  0.78089060992E+02 0.  0.
         11    1    3    3    0    0 -0.37519989922E+03  0.51522001035E+03 -0.74206435083E+03  0.97820556338E+03  0.00000000000E+00 0.  1.
        -11    1    3    3    0    0 -0.45005729857E+03  0.56357194806E+03 -0.98507609954E+03  0.12208766664E+04  0.00000000000E+00 0. -1.
          4    1    6    6  502    0  0.45068555970E+03 -0.43545004879E+03 -0.10707332677E+04  0.12406465852E+04  0.00000000000E+00 0. -1.
          3    1    5    5  503    0 -0.43004875201E+02 -0.13359266917E+03 -0.91634919340E+03  0.92703412277E+03  0.00000000000E+00 0. -1.
         -4    1    5    5    0  503  0.27403469777E+02 -0.46700943951E+02 -0.56585802729E+03  0.56844281628E+03  0.00000000000E+00 0.  1.
         -3    1    6    6    0  502  0.39017304351E+03 -0.46304829651E+03 -0.94773908154E+03  0.11246591019E+04  0.00000000000E+00 0.  1.
<mgrwt>
<rscale>  0 0.30646142E+04</rscale>
<asrwt>0</asrwt>
<pdfrwt beam="1">  1        1 0.64003449E-01 0.30646142E+04</pdfrwt>
<pdfrwt beam="2">  1       -1 0.86828345E+00 0.30646142E+04</pdfrwt>
<totfact> 0.95570142E-04</totfact>
</mgrwt>
</event>
<event>
12    1  0.1114484E-007  0.1965258E+04  0.7818608E-02  0.8623038E-01
         -2   -1    0    0    0  501 -0.00000000000E+00  0.00000000000E+00  0.87565596971E+03  0.87565596971E+03  0.00000000000E+00 0. -1.
          2   -1    0    0  501    0  0.00000000000E+00 -0.00000000000E+00 -0.11026704220E+04  0.11026704220E+04  0.00000000000E+00 0.  1.
         23    2    1    2    0    0  0.57900864599E+03  0.75544627006E+02 -0.56745273284E+03  0.81939375944E+03  0.91899544137E+02 0.  0.
        254    2    1    2    0    0 -0.57900864599E+03 -0.75544627006E+02  0.34043828052E+03  0.11589326323E+04  0.94141840887E+03 0.  0.
        -24    2    4    4    0    0  0.13271793207E+03 -0.29818347016E+03 -0.94123028275E+00  0.33488115098E+03  0.74947101350E+02 0.  0.
         24    2    4    4    0    0 -0.71172657805E+03  0.22263884315E+03  0.34137951081E+03  0.82405148132E+03  0.79988105863E+02 0.  0.
         11    1    3    3    0    0  0.41799172051E+03  0.77629766698E+02 -0.36218091223E+03  0.55849661796E+03  0.00000000000E+00 0.  1.
        -11    1    3    3    0    0  0.16101692548E+03 -0.20851396921E+01 -0.20527182060E+03  0.26089714148E+03  0.00000000000E+00 0. -1.
          4    1    6    6  502    0 -0.10767149673E+03  0.63604209427E+02  0.48068255021E+02  0.13397463866E+03  0.00000000000E+00 0. -1.
          1    1    5    5  503    0  0.58856226627E+02 -0.56440856266E+02  0.80872108430E+01  0.81945278375E+02  0.00000000000E+00 0. -1.
         -2    1    5    5    0  503  0.73861705438E+02 -0.24174261389E+03 -0.90284411257E+01  0.25293587261E+03  0.00000000000E+00 0.  1.
         -1    1    6    6    0  502 -0.60405508132E+03  0.15903463372E+03  0.29331125578E+03  0.69007684265E+03  0.00000000000E+00 0.  1.
<mgrwt>
<rscale>  0 0.19652582E+04</rscale>
<asrwt>0</asrwt>
<pdfrwt beam="1">  1        2 0.16964160E+00 0.19652582E+04</pdfrwt>
<pdfrwt beam="2">  1       -2 0.13471630E+00 0.19652582E+04</pdfrwt>
<totfact> 0.80208304E+00</totfact>
</mgrwt>
</event>
<event>
12    1  0.1114484E-007  0.1202815E+04  0.7818608E-02  0.9110396E-01
          2   -1    0    0  501    0  0.00000000000E+00  0.00000000000E+00  0.65459527193E+03  0.65459527193E+03  0.00000000000E+00 0. -1.
         -2   -1    0    0    0  501 -0.00000000000E+00 -0.00000000000E+00 -0.55254137836E+03  0.55254137836E+03  0.00000000000E+00 0.  1.
         23    2    1    2    0    0  0.17644951529E+03 -0.12296602007E+03  0.13091942297E+03  0.26714994936E+03  0.89297965239E+02 0.  0.
        254    2    1    2    0    0 -0.17644951529E+03  0.12296602007E+03 -0.28865529401E+02  0.93998670092E+03  0.91459647145E+03 0.  0.
        -24    2    4    4    0    0 -0.15446474307E+02  0.50027249496E+03  0.65607986844E+02  0.51150633742E+03  0.82602436410E+02 0.  0.
         24    2    4    4    0    0 -0.16100304098E+03 -0.37730647489E+03 -0.94473516245E+02  0.42848036351E+03  0.79925098966E+02 0.  0.
         11    1    3    3    0    0  0.19738411867E+02 -0.53264773969E+02  0.10968075911E+02  0.57853606095E+02  0.00000000000E+00 0. -1.
        -11    1    3    3    0    0  0.15671110342E+03 -0.69701246100E+02  0.11995134706E+03  0.20929634327E+03  0.00000000000E+00 0.  1.
          2    1    6    6  502    0 -0.69608525936E+02 -0.18748998118E+03 -0.85817592537E+02  0.21762926990E+03  0.00000000000E+00 0. -1.
          3    1    5    5  503    0 -0.43663982018E+02  0.40794958439E+03  0.61656623470E+02  0.41488666639E+03  0.00000000000E+00 0. -1.
         -4    1    5    5    0  503  0.28217507712E+02  0.92322910568E+02  0.39513633733E+01  0.96619671029E+02  0.00000000000E+00 0.  1.
         -1    1    6    6    0  502 -0.91394515043E+02 -0.18981649371E+03 -0.86559237073E+01  0.21085109361E+03  0.00000000000E+00 0.  1.
<mgrwt>
<rscale>  0 0.12028150E+04</rscale>
<asrwt>0</asrwt>
<pdfrwt beam="1">  1        2 0.10070696E+00 0.12028150E+04</pdfrwt>
<pdfrwt beam="2">  1       -2 0.85006366E-01 0.12028150E+04</pdfrwt>
<totfact> 0.52999348E+01</totfact>
</mgrwt>
</event>
<event>
12    1  0.1114484E-007  0.1081749E+04  0.7818608E-02  0.9223165E-01
          2   -1    0    0  501    0  0.00000000000E+00  0.00000000000E+00  0.40923183565E+03  0.40923183565E+03  0.00000000000E+00 0. -1.
         -2   -1    0    0    0  501 -0.00000000000E+00 -0.00000000000E+00 -0.71486420723E+03  0.71486420723E+03  0.00000000000E+00 0.  1.
         23    2    1    2    0    0 -0.14432279176E+03 -0.13110039064E+02 -0.25190274488E+02  0.17306557960E+03  0.91193221068E+02 0.  0.
        254    2    1    2    0    0  0.14432279176E+03  0.13110039064E+02 -0.28044209709E+03  0.95103046329E+03  0.89711216185E+03 0.  0.
        -24    2    4    4    0    0  0.11898952395E+03  0.13979655795E+03 -0.58104350822E+03  0.61438127531E+03  0.78429640942E+02 0.  0.
         24    2    4    4    0    0  0.25333267805E+02 -0.12668651888E+03  0.30060141113E+03  0.33664918798E+03  0.79247831952E+02 0.  0.
         13    1    3    3    0    0 -0.53020391635E+02  0.29609557992E+02 -0.37717748775E+02  0.71487876079E+02  0.00000000000E+00 0.  1.
        -13    1    3    3    0    0 -0.91302400121E+02 -0.42719597056E+02  0.12527474287E+02  0.10157770352E+03  0.00000000000E+00 0. -1.
          4    1    6    6  502    0 -0.10304506460E+02  0.57810886609E+01  0.10742815564E+02  0.15969092827E+02  0.00000000000E+00 0. -1.
          3    1    5    5  503    0 -0.91712731226E+01  0.88510351506E+01 -0.16507198659E+02  0.20855231514E+02  0.00000000000E+00 0. -1.
         -4    1    5    5    0  503  0.12816079707E+03  0.13094552280E+03 -0.56453630956E+03  0.59352604379E+03  0.00000000000E+00 0.  1.
         -3    1    6    6    0  502  0.35637774264E+02 -0.13246760754E+03  0.28985859557E+03  0.32068009515E+03  0.00000000000E+00 0.  1.
<mgrwt>
<rscale>  0 0.10817489E+04</rscale>
<asrwt>0</asrwt>
<pdfrwt beam="1">  1        2 0.62958744E-01 0.10817489E+04</pdfrwt>
<pdfrwt beam="2">  1       -2 0.10997911E+00 0.10817489E+04</pdfrwt>
<totfact> 0.50625150E+01</totfact>
</mgrwt>
</event>
<event>
12    1  0.1114484E-007  0.2923155E+04  0.7818608E-02  0.8266021E-01
         -2   -1    0    0    0  501 -0.00000000000E+00  0.00000000000E+00  0.80105348623E+03  0.80105348623E+03  0.00000000000E+00 0.  1.
          2   -1    0    0  501    0  0.00000000000E+00 -0.00000000000E+00 -0.26667492867E+04  0.26667492867E+04  0.00000000000E+00 0. -1.
         23    2    1    2    0    0 -0.78528133187E+03  0.10404727136E+04 -0.11075827777E+04  0.17129828359E+04  0.91215944834E+02 0.  0.
        254    2    1    2    0    0  0.78528133187E+03 -0.10404727136E+04 -0.75811302281E+03  0.17548199371E+04  0.89744493880E+03 0.  0.
        -24    2    4    4    0    0  0.19600943833E+03 -0.78800392270E+03 -0.75084417865E+03  0.11087640038E+04  0.78871752199E+02 0.  0.
         24    2    4    4    0    0  0.58927189354E+03 -0.25246879094E+03 -0.72688441580E+01  0.64605593332E+03  0.79709334279E+02 0.  0.
         13    1    3    3    0    0 -0.53726361645E+03  0.66621845412E+03 -0.68206487175E+03  0.10944001606E+04  0.00000000000E+00 0. -1.
        -13    1    3    3    0    0 -0.24801771542E+03  0.37425425951E+03 -0.42551790593E+03  0.61858267531E+03  0.00000000000E+00 0.  1.
          2    1    6    6  502    0  0.32154864804E+03 -0.10150967151E+03 -0.25583712827E+02  0.33816012898E+03  0.00000000000E+00 0. -1.
          1    1    5    5  503    0  0.81246610392E+02 -0.21528401150E+03 -0.24438216313E+03  0.33566480149E+03  0.00000000000E+00 0. -1.
         -2    1    5    5    0  503  0.11476282794E+03 -0.57271991120E+03 -0.50646201553E+03  0.77309920226E+03  0.00000000000E+00 0.  1.
         -1    1    6    6    0  502  0.26772324549E+03 -0.15095911943E+03  0.18314868669E+02  0.30789580434E+03  0.00000000000E+00 0.  1.
<mgrwt>
<rscale>  0 0.29231550E+04</rscale>
<asrwt>0</asrwt>
<pdfrwt beam="1">  1        2 0.41026912E+00 0.29231550E+04</pdfrwt>
<pdfrwt beam="2">  1       -2 0.12323900E+00 0.29231550E+04</pdfrwt>
<totfact> 0.11891072E+00</totfact>
</mgrwt>
</event>
<event>
12    1  0.1114484E-007  0.1607652E+04  0.7818608E-02  0.8815861E-01
         -1   -1    0    0    0  501 -0.00000000000E+00  0.00000000000E+00  0.33097665102E+03  0.33097665102E+03  0.00000000000E+00 0.  1.
          1   -1    0    0  501    0  0.00000000000E+00 -0.00000000000E+00 -0.19522116562E+04  0.19522116562E+04  0.00000000000E+00 0. -1.
         23    2    1    2    0    0 -0.22052979129E+03 -0.32627542633E+03 -0.25820292030E+02  0.40804304329E+03  0.10365034988E+03 0.  0.
        254    2    1    2    0    0  0.22052979129E+03  0.32627542633E+03 -0.15954147132E+04  0.18751452639E+04  0.90317916896E+03 0.  0.
        -24    2    4    4    0    0 -0.62182776966E+02  0.10814005387E+02 -0.13979883824E+04  0.14011890324E+04  0.70537555664E+02 0.  0.
         24    2    4    4    0    0  0.28271256825E+03  0.31546142094E+03 -0.19742633074E+03  0.47395623151E+03  0.78835581856E+02 0.  0.
         13    1    3    3    0    0 -0.21727629389E+03 -0.33287489571E+03 -0.18927549819E+02  0.39796097324E+03  0.00000000000E+00 0.  1.
        -13    1    3    3    0    0 -0.32534974002E+01  0.65994693816E+01 -0.68927422108E+01  0.10082070057E+02  0.00000000000E+00 0. -1.
          2    1    6    6  502    0  0.23009947663E+03  0.24824888272E+03 -0.19027461852E+03  0.38830105250E+03  0.00000000000E+00 0. -1.
          3    1    5    5  503    0 -0.77165372509E+02  0.41632341801E+01 -0.10668436361E+04  0.10696388041E+04  0.00000000000E+00 0. -1.
         -4    1    5    5    0  503  0.14982595542E+02  0.66507712071E+01 -0.33114474631E+03  0.33155022838E+03  0.00000000000E+00 0.  1.
         -1    1    6    6    0  502  0.52613091618E+02  0.67212538222E+02 -0.71517122240E+01  0.85655179012E+02  0.00000000000E+00 0.  1.
<mgrwt>
<rscale>  0 0.16076523E+04</rscale>
<asrwt>0</asrwt>
<pdfrwt beam="1">  1        1 0.30034026E+00 0.16076523E+04</pdfrwt>
<pdfrwt beam="2">  1       -1 0.50919484E-01 0.16076523E+04</pdfrwt>
<totfact> 0.11940663E+01</totfact>
</mgrwt>
</event>
<event>
12    1  0.1114484E-007  0.3777192E+04  0.7818608E-02  0.8051067E-01
          1   -1    0    0  501    0  0.00000000000E+00  0.00000000000E+00  0.13568904445E+04  0.13568904445E+04  0.00000000000E+00 0. -1.
         -1   -1    0    0    0  501 -0.00000000000E+00 -0.00000000000E+00 -0.26286539785E+04  0.26286539785E+04  0.00000000000E+00 0.  1.
         23    2    1    2    0    0 -0.15386823282E+04 -0.84165008914E+03 -0.91593032424E+03  0.19807354900E+04  0.92013817953E+02 0.  0.
        254    2    1    2    0    0  0.15386823282E+04  0.84165008914E+03 -0.35583320981E+03  0.20048089331E+04  0.90372750606E+03 0.  0.
        -24    2    4    4    0    0 -0.34769283794E+02  0.83256231948E+02  0.14177970113E+03  0.18665904311E+03  0.81237992760E+02 0.  0.
         24    2    4    4    0    0  0.15734516120E+04  0.75839385719E+03 -0.49761291095E+03  0.18181498900E+04  0.84493758797E+02 0.  0.
         11    1    3    3    0    0 -0.41635678677E+03 -0.18192179894E+03 -0.23977945630E+03  0.51375354256E+03  0.00000000000E+00 0. -1.
        -11    1    3    3    0    0 -0.11223255414E+04 -0.65972829020E+03 -0.67615086794E+03  0.14669819474E+04  0.00000000000E+00 0.  1.
          4    1    6    6  502    0  0.37002035870E+03  0.19614653598E+03 -0.15313035366E+03  0.44591191354E+03  0.00000000000E+00 0. -1.
          1    1    5    5  503    0  0.62195146603E+01  0.59090628718E+02  0.12087134229E+03  0.13468580531E+03  0.00000000000E+00 0. -1.
         -2    1    5    5    0  503 -0.40988798454E+02  0.24165603230E+02  0.20908358847E+02  0.51973237804E+02  0.00000000000E+00 0.  1.
         -3    1    6    6    0  502  0.12034312533E+04  0.56224732121E+03 -0.34448255728E+03  0.13722379764E+04  0.00000000000E+00 0.  1.
<mgrwt>
<rscale>  0 0.37771923E+04</rscale>
<asrwt>0</asrwt>
<pdfrwt beam="1">  1        1 0.20875238E+00 0.37771923E+04</pdfrwt>
<pdfrwt beam="2">  1       -1 0.40440830E+00 0.37771923E+04</pdfrwt>
<totfact> 0.43802710E-02</totfact>
</mgrwt>
</event>
<event>
12    1  0.1114484E-007  0.1101137E+04  0.7818608E-02  0.9204084E-01
          2   -1    0    0  501    0  0.00000000000E+00  0.00000000000E+00  0.19784176992E+04  0.19784176992E+04  0.00000000000E+00 0. -1.
         -2   -1    0    0    0  501 -0.00000000000E+00 -0.00000000000E+00 -0.15321635020E+03  0.15321635020E+03  0.00000000000E+00 0.  1.
         23    2    1    2    0    0  0.62012680486E+02  0.95647509728E+02  0.87707355612E+02  0.17207017252E+03  0.94453932608E+02 0.  0.
        254    2    1    2    0    0 -0.62012680486E+02 -0.95647509728E+02  0.17374939934E+04  0.19595638769E+04  0.89889442752E+03 0.  0.
        -24    2    4    4    0    0 -0.28441741351E+03  0.31271721739E+03  0.91228440149E+03  0.10089977348E+04  0.84429121101E+02 0.  0.
         24    2    4    4    0    0  0.22240473302E+03 -0.40836472712E+03  0.82520959188E+03  0.95056614204E+03  0.79871798805E+02 0.  0.
         13    1    3    3    0    0 -0.17689593573E+02  0.40484467504E+02  0.46537358517E+01  0.44424892653E+02  0.00000000000E+00 0. -1.
        -13    1    3    3    0    0  0.79702274059E+02  0.55163042224E+02  0.83053619760E+02  0.12764527987E+03  0.00000000000E+00 0.  1.
          2    1    6    6  502    0  0.20062379310E+03 -0.40036648518E+03  0.77135774703E+03  0.89192824976E+03  0.00000000000E+00 0. -1.
          1    1    5    5  503    0 -0.25505479040E+03  0.24936939071E+03  0.81099706526E+03  0.88597645510E+03  0.00000000000E+00 0. -1.
         -2    1    5    5    0  503 -0.29362623104E+02  0.63347826686E+02  0.10128733624E+03  0.12302127972E+03  0.00000000000E+00 0.  1.
         -1    1    6    6    0  502  0.21780939920E+02 -0.79982419386E+01  0.53851844853E+02  0.58637892288E+02  0.00000000000E+00 0.  1.
<mgrwt>
<rscale>  0 0.11011375E+04</rscale>
<asrwt>0</asrwt>
<pdfrwt beam="1">  1        2 0.30437194E+00 0.11011375E+04</pdfrwt>
<pdfrwt beam="2">  1       -2 0.23571748E-01 0.11011375E+04</pdfrwt>
<totfact> 0.10901957E+02</totfact>
</mgrwt>
</event>
<event>
12    1  0.1403053E-007  0.1937817E+04  0.7818608E-02  0.8636258E-01
         -1   -1    0    0    0  501 -0.00000000000E+00  0.00000000000E+00  0.46652997844E+03  0.46652997844E+03  0.00000000000E+00 0.  1.
          1   -1    0    0  501    0  0.00000000000E+00 -0.00000000000E+00 -0.20122697540E+04  0.20122697540E+04  0.00000000000E+00 0. -1.
         23    2    1    2    0    0 -0.39637974084E+03  0.49727171982E+03 -0.11416626608E+04  0.13100077657E+04  0.91272410282E+02 0.  0.
        254    2    1    2    0    0  0.39637974084E+03 -0.49727171982E+03 -0.40407711478E+03  0.11687919668E+04  0.89353247539E+03 0.  0.
        -24    2    4    4    0    0  0.54214185638E+03 -0.41424867065E+03 -0.59025781030E+03  0.90577491868E+03  0.80648416688E+02 0.  0.
         24    2    4    4    0    0 -0.14576211554E+03 -0.83023049173E+02  0.18618069552E+03  0.26301704808E+03  0.79845445546E+02 0.  0.
         11    1    3    3    0    0 -0.59435375186E+02  0.96112322121E+02 -0.27489811266E+03  0.29721896748E+03  0.00000000000E+00 0.  1.
        -11    1    3    3    0    0 -0.33694436565E+03  0.40115939770E+03 -0.86676454815E+03  0.10127887982E+04  0.00000000000E+00 0. -1.
          2    1    6    6  502    0 -0.11992930043E+03 -0.26503982952E+02  0.13499511005E+03  0.18250802161E+03  0.00000000000E+00 0. -1.
          1    1    5    5  503    0  0.52270406361E+03 -0.41463607284E+03 -0.57841744728E+03  0.88301152559E+03  0.00000000000E+00 0. -1.
         -4    1    5    5    0  503  0.19437792773E+02  0.38740219070E+00 -0.11840363014E+02  0.22763393083E+02  0.00000000000E+00 0.  1.
         -1    1    6    6    0  502 -0.25832815107E+02 -0.56519066221E+02  0.51185585471E+02  0.80509026468E+02  0.00000000000E+00 0.  1.
<mgrwt>
<rscale>  0 0.19378175E+04</rscale>
<asrwt>0</asrwt>
<pdfrwt beam="1">  1        1 0.30957995E+00 0.19378175E+04</pdfrwt>
<pdfrwt beam="2">  1       -1 0.71773845E-01 0.19378175E+04</pdfrwt>
<totfact> 0.53418479E+00</totfact>
</mgrwt>
</event>
<event>
12    1  0.1114484E-007  0.2260369E+04  0.7818608E-02  0.8493713E-01
         -2   -1    0    0    0  501 -0.00000000000E+00  0.00000000000E+00  0.61826096222E+03  0.61826096222E+03  0.00000000000E+00 0.  1.
          2   -1    0    0  501    0  0.00000000000E+00 -0.00000000000E+00 -0.20659834969E+04  0.20659834969E+04  0.00000000000E+00 0. -1.
         23    2    1    2    0    0  0.18871817990E+03  0.42462813945E+02 -0.17205168456E+04  0.17338093541E+04  0.92190120327E+02 0.  0.
        254    2    1    2    0    0 -0.18871817990E+03 -0.42462813945E+02  0.27279431086E+03  0.95043510511E+03  0.88965864857E+03 0.  0.
        -24    2    4    4    0    0 -0.10106589043E+03 -0.45809203153E+03  0.18507594674E+03  0.51037780484E+03  0.78547909286E+02 0.  0.
         24    2    4    4    0    0 -0.87652289476E+02  0.41562921758E+03  0.87718364124E+02  0.44005730027E+03  0.74332669516E+02 0.  0.
         11    1    3    3    0    0  0.26661945166E+01 -0.13824503175E+02 -0.26455015928E+03  0.26492454069E+03  0.00000000000E+00 0.  1.
        -11    1    3    3    0    0  0.18605198539E+03  0.56287317119E+02 -0.14559666863E+04  0.14688848134E+04  0.00000000000E+00 0. -1.
          4    1    6    6  502    0 -0.62780591605E+02  0.28785819447E+03  0.95335670508E+02  0.30966535628E+03  0.00000000000E+00 0. -1.
          3    1    5    5  503    0 -0.10251751379E+03 -0.43281117155E+03  0.15490673968E+03  0.47098986066E+03  0.00000000000E+00 0. -1.
         -4    1    5    5    0  503  0.14516233673E+01 -0.25280859980E+02  0.30169207056E+02  0.39387944172E+02  0.00000000000E+00 0.  1.
         -3    1    6    6    0  502 -0.24871697872E+02  0.12777102311E+03 -0.76173063838E+01  0.13039194399E+03  0.00000000000E+00 0.  1.
<mgrwt>
<rscale>  0 0.22603689E+04</rscale>
<asrwt>0</asrwt>
<pdfrwt beam="1">  1        2 0.31784362E+00 0.22603689E+04</pdfrwt>
<pdfrwt beam="2">  1       -2 0.95117071E-01 0.22603689E+04</pdfrwt>
<totfact> 0.51883232E+00</totfact>
</mgrwt>
</event>
<event>
12    1  0.1114484E-007  0.2377768E+04  0.7818608E-02  0.8447874E-01
          2   -1    0    0  501    0  0.00000000000E+00  0.00000000000E+00  0.68829545450E+03  0.68829545450E+03  0.00000000000E+00 0.  1.
         -2   -1    0    0    0  501 -0.00000000000E+00 -0.00000000000E+00 -0.20535435356E+04  0.20535435356E+04  0.00000000000E+00 0. -1.
         23    2    1    2    0    0 -0.65315285829E+03 -0.35863732790E+03  0.22922111200E+03  0.78586943949E+03  0.99091212937E+02 0.  0.
        254    2    1    2    0    0  0.65315285829E+03  0.35863732790E+03 -0.15944691931E+04  0.19559695506E+04  0.85337886419E+03 0.  0.
        -24    2    4    4    0    0  0.23172323369E+03  0.37793010468E+01  0.22288866633E+02  0.24617671909E+03  0.79976517154E+02 0.  0.
         24    2    4    4    0    0  0.42142962460E+03  0.35485802685E+03 -0.16167580597E+04  0.17097928315E+04  0.77186496668E+02 0.  0.
         11    1    3    3    0    0 -0.47265292857E+03 -0.20753837763E+03  0.16309816929E+03  0.54136307770E+03  0.00000000000E+00 0.  1.
        -11    1    3    3    0    0 -0.18049992973E+03 -0.15109895027E+03  0.66122942706E+02  0.24450636179E+03  0.00000000000E+00 0. -1.
          2    1    6    6  502    0  0.38427076110E+03  0.32022798868E+03 -0.15246425246E+04  0.16046011375E+04  0.00000000000E+00 0. -1.
          1    1    5    5  503    0  0.21977719267E+03  0.15852894626E+02  0.28549298922E+01  0.22036669283E+03  0.00000000000E+00 0. -1.
         -2    1    5    5    0  503  0.11946041023E+02 -0.12073593579E+02  0.19433936741E+02  0.25810026255E+02  0.00000000000E+00 0.  1.
         -1    1    6    6    0  502  0.37158863501E+02  0.34630038175E+02 -0.92115535071E+02  0.10519169398E+03  0.00000000000E+00 0.  1.
<mgrwt>
<rscale>  0 0.23777676E+04</rscale>
<asrwt>0</asrwt>
<pdfrwt beam="1">  1        2 0.10589161E+00 0.23777676E+04</pdfrwt>
<pdfrwt beam="2">  1       -2 0.31592978E+00 0.23777676E+04</pdfrwt>
<totfact> 0.95710172E-01</totfact>
</mgrwt>
</event>
<event>
12    1  0.1114484E-007  0.1275673E+04  0.7818608E-02  0.9049083E-01
          2   -1    0    0  501    0  0.00000000000E+00  0.00000000000E+00  0.40359844643E+03  0.40359844643E+03  0.00000000000E+00 0. -1.
         -2   -1    0    0    0  501 -0.00000000000E+00 -0.00000000000E+00 -0.10080197685E+04  0.10080197685E+04  0.00000000000E+00 0.  1.
         23    2    1    2    0    0  0.10172163634E+03  0.13237903009E+03  0.13144937228E+03  0.23131087332E+03  0.91401770975E+02 0.  0.
        254    2    1    2    0    0 -0.10172163634E+03 -0.13237903009E+03 -0.73587069434E+03  0.11803073416E+04  0.90760577506E+03 0.  0.
        -24    2    4    4    0    0 -0.27229331898E+03 -0.49064010186E+02 -0.88171741191E+03  0.92747652281E+03  0.78969470264E+02 0.  0.
         24    2    4    4    0    0  0.17057168264E+03 -0.83315019907E+02  0.14584671757E+03  0.25283081879E+03  0.81339206044E+02 0.  0.
         11    1    3    3    0    0  0.10565128710E+03  0.78667034310E+02  0.68504325557E+02  0.14847066839E+03  0.00000000000E+00 0.  1.
        -11    1    3    3    0    0 -0.39296507625E+01  0.53711995783E+02  0.62945046724E+02  0.82840204932E+02  0.00000000000E+00 0. -1.
          4    1    6    6  502    0  0.11985638731E+03 -0.18252855675E+02  0.66068748039E+02  0.13807171972E+03  0.00000000000E+00 0. -1.
          1    1    5    5  503    0 -0.22462761581E+03 -0.66662322613E+02 -0.67150430825E+03  0.71120986146E+03  0.00000000000E+00 0. -1.
         -2    1    5    5    0  503 -0.47665703172E+02  0.17598312427E+02 -0.21021310367E+03  0.21626666135E+03  0.00000000000E+00 0.  1.
         -3    1    6    6    0  502  0.50715295332E+02 -0.65062164232E+02  0.79777969536E+02  0.11475909907E+03  0.00000000000E+00 0.  1.
<mgrwt>
<rscale>  0 0.12756727E+04</rscale>
<asrwt>0</asrwt>
<pdfrwt beam="1">  1        2 0.62092070E-01 0.12756727E+04</pdfrwt>
<pdfrwt beam="2">  1       -2 0.15507996E+00 0.12756727E+04</pdfrwt>
<totfact> 0.21164056E+01</totfact>
</mgrwt>
</event>
<event>
12    1  0.1114484E-007  0.2321925E+04  0.7818608E-02  0.8469326E-01
          2   -1    0    0  501    0  0.00000000000E+00  0.00000000000E+00  0.77898229086E+03  0.77898229086E+03  0.00000000000E+00 0. -1.
         -2   -1    0    0    0  501 -0.00000000000E+00 -0.00000000000E+00 -0.17302491524E+04  0.17302491524E+04  0.00000000000E+00 0.  1.
         23    2    1    2    0    0  0.49563512323E+03 -0.74533080282E+03  0.15620092052E+02  0.89984461591E+03  0.91127188593E+02 0.  0.
        254    2    1    2    0    0 -0.49563512323E+03  0.74533080282E+03 -0.96688695364E+03  0.16093868274E+04  0.92416632600E+03 0.  0.
        -24    2    4    4    0    0  0.17316888120E+03  0.14023305726E+03  0.56810967617E+02  0.24252579497E+03  0.77061685813E+02 0.  0.
         24    2    4    4    0    0 -0.66880400443E+03  0.60509774556E+03 -0.10236979213E+04  0.13668610324E+04  0.83123823223E+02 0.  0.
         13    1    3    3    0    0  0.21798379117E+03 -0.28789112341E+03  0.45167419232E+02  0.36392077148E+03  0.00000000000E+00 0.  1.
        -13    1    3    3    0    0  0.27765133205E+03 -0.45743967941E+03 -0.29547327180E+02  0.53592384443E+03  0.00000000000E+00 0. -1.
          4    1    6    6  502    0 -0.43009120487E+03  0.43620372291E+03 -0.66687732531E+03  0.90552608985E+03  0.00000000000E+00 0. -1.
          3    1    5    5  503    0  0.14459365780E+03  0.95944722317E+02  0.71695402834E+02  0.18775768002E+03  0.00000000000E+00 0. -1.
         -4    1    5    5    0  503  0.28575223399E+02  0.44288334939E+02 -0.14884435217E+02  0.54768114955E+02  0.00000000000E+00 0.  1.
         -3    1    6    6    0  502 -0.23871279956E+03  0.16889402265E+03 -0.35682059594E+03  0.46133494258E+03  0.00000000000E+00 0.  1.
<mgrwt>
<rscale>  0 0.23219246E+04</rscale>
<asrwt>0</asrwt>
<pdfrwt beam="1">  1        2 0.11984343E+00 0.23219246E+04</pdfrwt>
<pdfrwt beam="2">  1       -2 0.26619217E+00 0.23219246E+04</pdfrwt>
<totfact> 0.16512664E+00</totfact>
</mgrwt>
</event>
<event>
12    1  0.1114484E-007  0.1321361E+04  0.7818608E-02  0.9012795E-01
         -1   -1    0    0    0  501 -0.00000000000E+00  0.00000000000E+00  0.38966604044E+03  0.38966604044E+03  0.00000000000E+00 0.  1.
          1   -1    0    0  501    0  0.00000000000E+00 -0.00000000000E+00 -0.11201871604E+04  0.11201871604E+04  0.00000000000E+00 0. -1.
         23    2    1    2    0    0 -0.17457552480E+03 -0.26240262964E+03 -0.48899638549E+02  0.33231428938E+03  0.93326622006E+02 0.  0.
        254    2    1    2    0    0  0.17457552480E+03  0.26240262964E+03 -0.68162148137E+03  0.11775389114E+04  0.90700512135E+03 0.  0.
        -24    2    4    4    0    0  0.16264574292E+03  0.15634444524E+03 -0.89479535405E+03  0.92618987893E+03  0.79194336667E+02 0.  0.
         24    2    4    4    0    0  0.11929781883E+02  0.10605818440E+03  0.21317387268E+03  0.25134903249E+03  0.79640303672E+02 0.  0.
         13    1    3    3    0    0 -0.23851091901E+02 -0.12134207451E+02  0.18445878342E+02  0.32501753847E+02  0.00000000000E+00 0. -1.
        -13    1    3    3    0    0 -0.15072443290E+03 -0.25026842219E+03 -0.67345516891E+02  0.29981253553E+03  0.00000000000E+00 0.  1.
          4    1    6    6  502    0  0.42130125876E+02  0.85067660556E+02  0.13593083701E+03  0.16579700488E+03  0.00000000000E+00 0. -1.
          1    1    5    5  503    0  0.89815874433E+02  0.10411197217E+03 -0.67429290095E+03  0.68816939072E+03  0.00000000000E+00 0. -1.
         -2    1    5    5    0  503  0.72829868486E+02  0.52232473069E+02 -0.22050245309E+03  0.23802048821E+03  0.00000000000E+00 0.  1.
         -3    1    6    6    0  502 -0.30200343993E+02  0.20990523840E+02  0.77243035671E+02  0.85552027609E+02  0.00000000000E+00 0.  1.
<mgrwt>
<rscale>  0 0.13213613E+04</rscale>
<asrwt>0</asrwt>
<pdfrwt beam="1">  1        1 0.17233649E+00 0.13213613E+04</pdfrwt>
<pdfrwt beam="2">  1       -1 0.59948622E-01 0.13213613E+04</pdfrwt>
<totfact> 0.33883676E+01</totfact>
</mgrwt>
</event>
<event>
12    1  0.1114484E-007  0.1452949E+04  0.7818608E-02  0.8916359E-01
         -2   -1    0    0    0  501 -0.00000000000E+00  0.00000000000E+00  0.23771838972E+03  0.23771838972E+03  0.00000000000E+00 0.  1.
          2   -1    0    0  501    0  0.00000000000E+00 -0.00000000000E+00 -0.22201275501E+04  0.22201275501E+04  0.00000000000E+00 0. -1.
         23    2    1    2    0    0  0.77746931550E+02  0.61961012320E+02 -0.13410986290E+04  0.13479497726E+04  0.92408356938E+02 0.  0.
        254    2    1    2    0    0 -0.77746931550E+02 -0.61961012320E+02 -0.64131053138E+03  0.11098961672E+04  0.90039244325E+03 0.  0.
        -24    2    4    4    0    0  0.28828877324E+03  0.25340145323E+03 -0.41263370584E+03  0.56921696783E+03  0.80116590021E+02 0.  0.
         24    2    4    4    0    0 -0.36603570479E+03 -0.31536246555E+03 -0.22867682553E+03  0.54067919935E+03  0.81272899624E+02 0.  0.
         11    1    3    3    0    0  0.99881470464E+01 -0.15544205926E+02 -0.61473889256E+02  0.64190532632E+02  0.00000000000E+00 0.  1.
        -11    1    3    3    0    0  0.67758784504E+02  0.77505218246E+02 -0.12796247397E+04  0.12837592400E+04  0.00000000000E+00 0. -1.
          4    1    6    6  502    0 -0.28549820674E+03 -0.20954219721E+03 -0.13983361657E+03  0.38075004765E+03  0.00000000000E+00 0. -1.
          3    1    5    5  503    0  0.21280067511E+03  0.18886286674E+03 -0.25049881924E+03  0.37908174342E+03  0.00000000000E+00 0. -1.
         -4    1    5    5    0  503  0.75488098132E+02  0.64538586491E+02 -0.16213488661E+03  0.19013522441E+03  0.00000000000E+00 0.  1.
         -3    1    6    6    0  502 -0.80537498053E+02 -0.10582026834E+03 -0.88843208969E+02  0.15992915170E+03  0.00000000000E+00 0.  1.
<mgrwt>
<rscale>  0 0.14529489E+04</rscale>
<asrwt>0</asrwt>
<pdfrwt beam="1">  1        2 0.34155809E+00 0.14529489E+04</pdfrwt>
<pdfrwt beam="2">  1       -2 0.36572059E-01 0.14529489E+04</pdfrwt>
<totfact> 0.34387318E+01</totfact>
</mgrwt>
</event>
<event>
12    1  0.1114484E-007  0.2342785E+04  0.7818608E-02  0.8461240E-01
          2   -1    0    0  501    0  0.00000000000E+00  0.00000000000E+00  0.95671514081E+03  0.95671514081E+03  0.00000000000E+00 0.  1.
         -2   -1    0    0    0  501 -0.00000000000E+00 -0.00000000000E+00 -0.14342409371E+04  0.14342409371E+04  0.00000000000E+00 0. -1.
         23    2    1    2    0    0  0.42645011857E+02 -0.51630037909E+03 -0.10654471308E+04  0.11883471359E+04  0.92772024067E+02 0.  0.
        254    2    1    2    0    0 -0.42645011857E+02  0.51630037909E+03  0.58792133452E+03  0.12026089420E+04  0.91226755574E+03 0.  0.
        -24    2    4    4    0    0  0.43045031500E+02  0.59030133427E+03 -0.11835565480E+01  0.59733268199E+03  0.80600199682E+02 0.  0.
         24    2    4    4    0    0 -0.85690043356E+02 -0.74000955181E+02  0.58910489106E+03  0.60527625999E+03  0.80596856823E+02 0.  0.
         11    1    3    3    0    0  0.43543823261E+02 -0.10691107399E+03 -0.27283737587E+03  0.29625373577E+03  0.00000000000E+00 0. -1.
        -11    1    3    3    0    0 -0.89881140426E+00 -0.40938930510E+03 -0.79260975490E+03  0.89209340013E+03  0.00000000000E+00 0.  1.
          4    1    6    6  502    0 -0.47884084110E+01  0.64213904339E+01  0.19053344432E+03  0.19070174754E+03  0.00000000000E+00 0. -1.
          1    1    5    5  503    0  0.19791340115E+02  0.28091329343E+02  0.41804660189E+01  0.34616415528E+02  0.00000000000E+00 0. -1.
         -2    1    5    5    0  503  0.23253691384E+02  0.56221000493E+03 -0.53640225669E+01  0.56271626646E+03  0.00000000000E+00 0.  1.
         -3    1    6    6    0  502 -0.80901634945E+02 -0.80422345615E+02  0.39857144674E+03  0.41457451244E+03  0.00000000000E+00 0.  1.
<mgrwt>
<rscale>  0 0.23427847E+04</rscale>
<asrwt>0</asrwt>
<pdfrwt beam="1">  1        2 0.14718694E+00 0.23427847E+04</pdfrwt>
<pdfrwt beam="2">  1       -2 0.22065245E+00 0.23427847E+04</pdfrwt>
<totfact> 0.23764321E+00</totfact>
</mgrwt>
</event>
<event>
12    1  0.1114484E-007  0.1474117E+04  0.7818608E-02  0.8901850E-01
          1   -1    0    0  501    0  0.00000000000E+00  0.00000000000E+00  0.11581061990E+04  0.11581061990E+04  0.00000000000E+00 0. -1.
         -1   -1    0    0    0  501 -0.00000000000E+00 -0.00000000000E+00 -0.46908923702E+03  0.46908923702E+03  0.00000000000E+00 0.  1.
         23    2    1    2    0    0 -0.26314233907E+03 -0.26129946298E+02 -0.20632116640E+03  0.34831274967E+03  0.93950429341E+02 0.  0.
        254    2    1    2    0    0  0.26314233907E+03  0.26129946298E+02  0.89533812836E+03  0.12788826863E+04  0.87406172354E+03 0.  0.
        -24    2    4    4    0    0  0.41820508560E+03  0.19229034666E+03  0.92417162026E+03  0.10353127946E+04  0.76865648185E+02 0.  0.
         24    2    4    4    0    0 -0.15506274653E+03 -0.16616040036E+03 -0.28833491897E+02  0.24356989175E+03  0.82711473800E+02 0.  0.
         11    1    3    3    0    0 -0.51530468117E+02 -0.40240197923E+02 -0.72085306606E+02  0.97318827067E+02  0.00000000000E+00 0. -1.
        -11    1    3    3    0    0 -0.21161187095E+03  0.14110251625E+02 -0.13423585980E+03  0.25099392261E+03  0.00000000000E+00 0.  1.
          2    1    6    6  502    0  0.66094427451E+01  0.34899055642E+01 -0.16099258196E+01  0.76456546739E+01  0.00000000000E+00 0. -1.
          1    1    5    5  503    0  0.23757088991E+02  0.16906354968E+02  0.10976070710E+03  0.11356776364E+03  0.00000000000E+00 0. -1.
         -2    1    5    5    0  503  0.39444799661E+03  0.17538399169E+03  0.81441091316E+03  0.92174503093E+03  0.00000000000E+00 0.  1.
         -1    1    6    6    0  502 -0.16167218928E+03 -0.16965030593E+03 -0.27223566078E+02  0.23592423707E+03  0.00000000000E+00 0.  1.
<mgrwt>
<rscale>  0 0.14741169E+04</rscale>
<asrwt>0</asrwt>
<pdfrwt beam="1">  1        1 0.17817018E+00 0.14741169E+04</pdfrwt>
<pdfrwt beam="2">  1       -1 0.72167575E-01 0.14741169E+04</pdfrwt>
<totfact> 0.21546274E+01</totfact>
</mgrwt>
</event>
<event>
12    1  0.1114484E-007  0.1508729E+04  0.7818608E-02  0.8878669E-01
         -2   -1    0    0    0  501 -0.00000000000E+00  0.00000000000E+00  0.66586750245E+03  0.66586750245E+03  0.00000000000E+00 0.  1.
          2   -1    0    0  501    0  0.00000000000E+00 -0.00000000000E+00 -0.85462345824E+03  0.85462345824E+03  0.00000000000E+00 0. -1.
         23    2    1    2    0    0  0.31052259048E+03 -0.30958224755E+03  0.13930538262E+03  0.46915889689E+03  0.91862036284E+02 0.  0.
        254    2    1    2    0    0 -0.31052259048E+03  0.30958224755E+03 -0.32806133841E+03  0.10513320638E+04  0.89744605376E+03 0.  0.
        -24    2    4    4    0    0 -0.55700685641E+03 -0.15153520625E+02 -0.28882452378E+03  0.63271282501E+03  0.80122694144E+02 0.  0.
         24    2    4    4    0    0  0.24648426593E+03  0.32473576818E+03 -0.39236814628E+02  0.41861923879E+03  0.86572091210E+02 0.  0.
         13    1    3    3    0    0  0.23928970012E+02 -0.33778861639E+02  0.43472564124E+02  0.60028917457E+02  0.00000000000E+00 0.  1.
        -13    1    3    3    0    0  0.28659362047E+03 -0.27580338592E+03  0.95832818497E+02  0.40912997944E+03  0.00000000000E+00 0. -1.
          2    1    6    6  502    0  0.11877814879E+02  0.55783184361E+01  0.13721845291E+02  0.18986552111E+02  0.00000000000E+00 0. -1.
          3    1    5    5  503    0 -0.32884596121E+03 -0.28558634932E+02 -0.20867141774E+03  0.39051123213E+03  0.00000000000E+00 0. -1.
         -4    1    5    5    0  503 -0.22816089520E+03  0.13405114307E+02 -0.80153106046E+02  0.24220159288E+03  0.00000000000E+00 0.  1.
         -1    1    6    6    0  502  0.23460645105E+03  0.31915744974E+03 -0.52958659919E+02  0.39963268668E+03  0.00000000000E+00 0.  1.
<mgrwt>
<rscale>  0 0.15087293E+04</rscale>
<asrwt>0</asrwt>
<pdfrwt beam="1">  1        2 0.13148053E+00 0.15087293E+04</pdfrwt>
<pdfrwt beam="2">  1       -2 0.10244115E+00 0.15087293E+04</pdfrwt>
<totfact> 0.23726973E+01</totfact>
</mgrwt>
</event>
<event>
12    1  0.1114484E-007  0.1193851E+04  0.7818608E-02  0.9118256E-01
         -2   -1    0    0    0  501 -0.00000000000E+00  0.00000000000E+00  0.27669886884E+03  0.27669886884E+03  0.00000000000E+00 0. -1.
          2   -1    0    0  501    0  0.00000000000E+00 -0.00000000000E+00 -0.12877544431E+04  0.12877544431E+04  0.00000000000E+00 0.  1.
         23    2    1    2    0    0  0.66069236929E+02  0.63229893186E+02  0.76479945225E+02  0.14651019812E+03  0.85163916491E+02 0.  0.
        254    2    1    2    0    0 -0.66069236929E+02 -0.63229893186E+02 -0.10875355195E+04  0.14179431138E+04  0.90524361606E+03 0.  0.
        -24    2    4    4    0    0  0.34414318523E+03 -0.16136545974E+03 -0.21128760118E+03  0.44247492740E+03  0.81659460149E+02 0.  0.
         24    2    4    4    0    0 -0.41021242215E+03  0.98135566558E+02 -0.87624791830E+03  0.97546818641E+03  0.76308241053E+02 0.  0.
         11    1    3    3    0    0  0.39152097734E+02  0.78535200072E+02  0.34376364424E+02  0.94246479183E+02  0.00000000000E+00 0. -1.
        -11    1    3    3    0    0  0.26917139195E+02 -0.15305306886E+02  0.42103580801E+02  0.52263718941E+02  0.00000000000E+00 0.  1.
          4    1    6    6  502    0 -0.87662177593E+01  0.16633570720E+02 -0.44886207076E+02  0.48665119279E+02  0.00000000000E+00 0. -1.
          1    1    5    5  503    0  0.36238491667E+02 -0.48158219189E+02 -0.25304706141E+02  0.65366432567E+02  0.00000000000E+00 0. -1.
         -2    1    5    5    0  503  0.30790469356E+03 -0.11320724056E+03 -0.18598289504E+03  0.37710849483E+03  0.00000000000E+00 0.  1.
         -3    1    6    6    0  502 -0.40144620440E+03  0.81501995838E+02 -0.83136171122E+03  0.92680306713E+03  0.00000000000E+00 0.  1.
<mgrwt>
<rscale>  0 0.11938512E+04</rscale>
<asrwt>0</asrwt>
<pdfrwt beam="1">  1        2 0.19811607E+00 0.11938512E+04</pdfrwt>
<pdfrwt beam="2">  1       -2 0.42569056E-01 0.11938512E+04</pdfrwt>
<totfact> 0.86736750E+01</totfact>
</mgrwt>
</event>
<event>
12    1  0.1114484E-007  0.1877911E+04  0.7818608E-02  0.8665931E-01
         -2   -1    0    0    0  501 -0.00000000000E+00  0.00000000000E+00  0.59462757079E+03  0.59462757079E+03  0.00000000000E+00 0.  1.
          2   -1    0    0  501    0  0.00000000000E+00 -0.00000000000E+00 -0.14826708771E+04  0.14826708771E+04  0.00000000000E+00 0. -1.
         23    2    1    2    0    0  0.11916529267E+03  0.64628917328E+01  0.44094195034E+03  0.46632543780E+03  0.93741529883E+02 0.  0.
        254    2    1    2    0    0 -0.11916529267E+03 -0.64628917328E+01 -0.13289852567E+04  0.16109730101E+04  0.90265723888E+03 0.  0.
        -24    2    4    4    0    0  0.62268066845E+02 -0.13638915719E+03 -0.13614681141E+04  0.13720130964E+04  0.79656741992E+02 0.  0.
         24    2    4    4    0    0 -0.18143335952E+03  0.12992626546E+03  0.32482857448E+02  0.23895991372E+03  0.79043063811E+02 0.  0.
         13    1    3    3    0    0  0.60216360365E+02  0.11805922979E+02  0.36458706864E+03  0.36971491787E+03  0.00000000000E+00 0.  1.
        -13    1    3    3    0    0  0.58948932306E+02 -0.53430312465E+01  0.76354881699E+02  0.96610519935E+02  0.00000000000E+00 0. -1.
          4    1    6    6  502    0 -0.29909173714E+02  0.44949369932E+02 -0.19848082735E+02  0.57523481447E+02  0.00000000000E+00 0. -1.
          1    1    5    5  503    0  0.74970013114E+02 -0.10157408364E+03 -0.86504565755E+03  0.87420923524E+03  0.00000000000E+00 0. -1.
         -2    1    5    5    0  503 -0.12701946269E+02 -0.34815073549E+02 -0.49642245659E+03  0.49780386116E+03  0.00000000000E+00 0.  1.
         -3    1    6    6    0  502 -0.15152418580E+03  0.84976895529E+02  0.52330940183E+02  0.18143643228E+03  0.00000000000E+00 0.  1.
<mgrwt>
<rscale>  0 0.18779105E+04</rscale>
<asrwt>0</asrwt>
<pdfrwt beam="1">  1        2 0.22810321E+00 0.18779105E+04</pdfrwt>
<pdfrwt beam="2">  1       -2 0.91481166E-01 0.18779105E+04</pdfrwt>
<totfact> 0.12397171E+01</totfact>
</mgrwt>
</event>
<event>
12    1  0.1114484E-007  0.1792617E+04  0.7818608E-02  0.8710235E-01
          2   -1    0    0  501    0  0.00000000000E+00  0.00000000000E+00  0.19179851986E+04  0.19179851986E+04  0.00000000000E+00 0. -1.
         -2   -1    0    0    0  501 -0.00000000000E+00 -0.00000000000E+00 -0.41886090193E+03  0.41886090193E+03  0.00000000000E+00 0.  1.
         23    2    1    2    0    0 -0.18094593703E+03 -0.56147552707E+03  0.20886394885E+03  0.63816506039E+03  0.12503717669E+03 0.  0.
        254    2    1    2    0    0  0.18094593703E+03  0.56147552707E+03  0.12902603478E+04  0.16986810401E+04  0.93421052839E+03 0.  0.
        -24    2    4    4    0    0 -0.92338299477E+02 -0.11302140117E+03  0.80090422068E+03  0.81789605072E+03  0.78779314551E+02 0.  0.
         24    2    4    4    0    0  0.27328423650E+03  0.67449692823E+03  0.48935612711E+03  0.88078498940E+03  0.81745937498E+02 0.  0.
         13    1    3    3    0    0 -0.12086784342E+03 -0.35310500329E+03  0.19442955684E+03  0.42082660503E+03  0.00000000000E+00 0.  1.
        -13    1    3    3    0    0 -0.60078093603E+02 -0.20837052377E+03  0.14434392014E+02  0.21733845537E+03  0.00000000000E+00 0. -1.
          4    1    6    6  502    0  0.21424645029E+03  0.58757170811E+03  0.39612300345E+03  0.74030769785E+03  0.00000000000E+00 0. -1.
          3    1    5    5  503    0 -0.93494607623E+02 -0.88501484107E+02  0.51148938776E+03  0.52744208036E+03  0.00000000000E+00 0. -1.
         -4    1    5    5    0  503  0.11563081461E+01 -0.24519917061E+02  0.28941483292E+03  0.29045397035E+03  0.00000000000E+00 0.  1.
         -3    1    6    6    0  502  0.59037786215E+02  0.86925220127E+02  0.93233123659E+02  0.14047729155E+03  0.00000000000E+00 0.  1.
<mgrwt>
<rscale>  0 0.17926171E+04</rscale>
<asrwt>0</asrwt>
<pdfrwt beam="1">  1        2 0.29507464E+00 0.17926171E+04</pdfrwt>
<pdfrwt beam="2">  1       -2 0.64440140E-01 0.17926171E+04</pdfrwt>
<totfact> 0.15590006E+01</totfact>
</mgrwt>
</event>
<event>
12    1  0.1114484E-007  0.1979719E+04  0.7818608E-02  0.8616162E-01
         -2   -1    0    0    0  501 -0.00000000000E+00  0.00000000000E+00  0.13979088778E+04  0.13979088778E+04  0.00000000000E+00 0. -1.
          2   -1    0    0  501    0  0.00000000000E+00 -0.00000000000E+00 -0.70091974628E+03  0.70091974628E+03  0.00000000000E+00 0.  1.
         23    2    1    2    0    0 -0.38517537780E+03 -0.41291975673E+03 -0.29873686412E+03  0.64525938308E+03  0.90846905862E+02 0.  0.
        254    2    1    2    0    0  0.38517537780E+03  0.41291975673E+03  0.99572599566E+03  0.14535692410E+04  0.89584065707E+03 0.  0.
        -24    2    4    4    0    0 -0.26653527342E+03  0.22633433889E+01  0.33365170224E+03  0.43472616089E+03  0.81346185264E+02 0.  0.
         24    2    4    4    0    0  0.65171065122E+03  0.41065641334E+03  0.66207429342E+03  0.10188430801E+04  0.79582593595E+02 0.  0.
         11    1    3    3    0    0 -0.35306241209E+03 -0.39357054724E+03 -0.25305863172E+03  0.58616509071E+03  0.00000000000E+00 0. -1.
        -11    1    3    3    0    0 -0.32112965716E+02 -0.19349209491E+02 -0.45678232404E+02  0.59094292368E+02  0.00000000000E+00 0.  1.
          4    1    6    6  502    0  0.44525275523E+03  0.23928604399E+03  0.45158196597E+03  0.67781568209E+03  0.00000000000E+00 0. -1.
          1    1    5    5  503    0 -0.17164350244E+03  0.36509859892E+02  0.23805431727E+03  0.29574367240E+03  0.00000000000E+00 0. -1.
         -2    1    5    5    0  503 -0.94891770980E+02 -0.34246516503E+02  0.95597384978E+02  0.13898248849E+03  0.00000000000E+00 0.  1.
         -3    1    6    6    0  502  0.20645789599E+03  0.17137036935E+03  0.21049232745E+03  0.34102739805E+03  0.00000000000E+00 0.  1.
<mgrwt>
<rscale>  0 0.19797191E+04</rscale>
<asrwt>0</asrwt>
<pdfrwt beam="1">  1        2 0.10783381E+00 0.19797191E+04</pdfrwt>
<pdfrwt beam="2">  1       -2 0.21506290E+00 0.19797191E+04</pdfrwt>
<totfact> 0.40421961E+00</totfact>
</mgrwt>
</event>
<event>
12    1  0.1114484E-007  0.1736908E+04  0.7818608E-02  0.8740590E-01
         -2   -1    0    0    0  501 -0.00000000000E+00  0.00000000000E+00  0.42920394762E+03  0.42920394762E+03  0.00000000000E+00 0.  1.
          2   -1    0    0  501    0  0.00000000000E+00 -0.00000000000E+00 -0.17572347550E+04  0.17572347550E+04  0.00000000000E+00 0. -1.
         23    2    1    2    0    0  0.50770421571E+03  0.19734950445E+02 -0.96222098089E+03  0.10920304290E+04  0.92239920021E+02 0.  0.
        254    2    1    2    0    0 -0.50770421571E+03 -0.19734950445E+02 -0.36580982653E+03  0.10944082737E+04  0.89764113173E+03 0.  0.
        -24    2    4    4    0    0 -0.20419546641E+03  0.36275602662E+03 -0.42043596330E+03  0.59670880728E+03  0.77506632592E+02 0.  0.
         24    2    4    4    0    0 -0.30350874930E+03 -0.38249097707E+03  0.54626136767E+02  0.49769946639E+03  0.79396697572E+02 0.  0.
         13    1    3    3    0    0  0.13054785501E+03  0.30595099705E+02 -0.18986385381E+03  0.23243727231E+03  0.00000000000E+00 0.  1.
        -13    1    3    3    0    0  0.37715636070E+03 -0.10860149260E+02 -0.77235712708E+03  0.85959315668E+03  0.00000000000E+00 0. -1.
          4    1    6    6  502    0 -0.65826844863E+02 -0.66108384957E+02 -0.18961785617E+02  0.95200007248E+02  0.00000000000E+00 0. -1.
          3    1    5    5  503    0 -0.76575699432E+01  0.58418608751E+02 -0.39060537757E+02  0.70690153739E+02  0.00000000000E+00 0. -1.
         -4    1    5    5    0  503 -0.19653789646E+03  0.30433741787E+03 -0.38137542554E+03  0.52601865354E+03  0.00000000000E+00 0.  1.
         -3    1    6    6    0  502 -0.23768190444E+03 -0.31638259211E+03  0.73587922384E+02  0.40249945914E+03  0.00000000000E+00 0.  1.
<mgrwt>
<rscale>  0 0.17369077E+04</rscale>
<asrwt>0</asrwt>
<pdfrwt beam="1">  1        2 0.27034381E+00 0.17369077E+04</pdfrwt>
<pdfrwt beam="2">  1       -2 0.66031377E-01 0.17369077E+04</pdfrwt>
<totfact> 0.18246227E+01</totfact>
</mgrwt>
</event>
<event>
12    1  0.1114484E-007  0.1494097E+04  0.7818608E-02  0.8888388E-01
         -1   -1    0    0    0  501 -0.00000000000E+00  0.00000000000E+00  0.18302624400E+03  0.18302624400E+03  0.00000000000E+00 0.  1.
          1   -1    0    0  501    0  0.00000000000E+00 -0.00000000000E+00 -0.30491869662E+04  0.30491869662E+04  0.00000000000E+00 0. -1.
         23    2    1    2    0    0 -0.90246741949E+02  0.17716731466E+03  0.40399518936E+01  0.21720774151E+03  0.87350729522E+02 0.  0.
        254    2    1    2    0    0  0.90246741949E+02 -0.17716731466E+03 -0.28702006741E+04  0.30150054687E+04  0.90148396259E+03 0.  0.
        -24    2    4    4    0    0  0.30089591537E+03  0.98710911450E+02 -0.38688794138E+03  0.50628228777E+03  0.79732551662E+02 0.  0.
         24    2    4    4    0    0 -0.21064917343E+03 -0.27587822611E+03 -0.24833127327E+04  0.25087231809E+04  0.79799749965E+02 0.  0.
         11    1    3    3    0    0 -0.67994512812E+02  0.14883715180E+03 -0.31461375310E+02  0.16663003830E+03  0.00000000000E+00 0.  1.
        -11    1    3    3    0    0 -0.22252229136E+02  0.28330162857E+02  0.35501327204E+02  0.50577703213E+02  0.00000000000E+00 0. -1.
          2    1    6    6  502    0 -0.67576579466E+02 -0.15218322136E+03 -0.12303765747E+04  0.12415928650E+04  0.00000000000E+00 0. -1.
          1    1    5    5  503    0  0.18136485256E+03  0.78059750657E+02 -0.18397642840E+03  0.26987749188E+03  0.00000000000E+00 0. -1.
         -2    1    5    5    0  503  0.11953106282E+03  0.20651160793E+02 -0.20291151297E+03  0.23640479589E+03  0.00000000000E+00 0.  1.
         -1    1    6    6    0  502 -0.14307259396E+03 -0.12369500474E+03 -0.12529361581E+04  0.12671303159E+04  0.00000000000E+00 0.  1.
<mgrwt>
<rscale>  0 0.14940967E+04</rscale>
<asrwt>0</asrwt>
<pdfrwt beam="1">  1        1 0.46910573E+00 0.14940967E+04</pdfrwt>
<pdfrwt beam="2">  1       -1 0.28157881E-01 0.14940967E+04</pdfrwt>
<totfact> 0.61117057E+00</totfact>
</mgrwt>
</event>
<event>
12    1  0.1114484E-007  0.1878407E+04  0.7818608E-02  0.8665680E-01
          1   -1    0    0  501    0  0.00000000000E+00  0.00000000000E+00  0.11517062074E+04  0.11517062074E+04  0.00000000000E+00 0. -1.
         -1   -1    0    0    0  501 -0.00000000000E+00 -0.00000000000E+00 -0.76590977719E+03  0.76590977719E+03  0.00000000000E+00 0.  1.
         23    2    1    2    0    0  0.71115775348E+03 -0.85902517022E+01  0.13800992553E+03  0.72989323281E+03  0.88759500843E+02 0.  0.
        254    2    1    2    0    0 -0.71115775348E+03  0.85902517022E+01  0.24778650469E+03  0.11877227518E+04  0.91840516140E+03 0.  0.
        -24    2    4    4    0    0 -0.37870555568E+03  0.27925135765E+03  0.49407522841E+03  0.68683710450E+03  0.78966183485E+02 0.  0.
         24    2    4    4    0    0 -0.33245219780E+03 -0.27066110595E+03 -0.24628872371E+03  0.50088564731E+03  0.80289464797E+02 0.  0.
         13    1    3    3    0    0  0.69672779273E+03 -0.21728270020E+02  0.13662223004E+03  0.71032905659E+03  0.00000000000E+00 0.  1.
        -13    1    3    3    0    0  0.14429960749E+02  0.13138018318E+02  0.13876954892E+01  0.19564176223E+02  0.00000000000E+00 0. -1.
          4    1    6    6  502    0 -0.46652568938E+02 -0.20757442729E+02 -0.57459133466E+02  0.76869276279E+02  0.00000000000E+00 0. -1.
          1    1    5    5  503    0 -0.64298490523E+02  0.15058635816E+02  0.58986987549E+02  0.88546728321E+02  0.00000000000E+00 0. -1.
         -2    1    5    5    0  503 -0.31440706516E+03  0.26419272183E+03  0.43508824086E+03  0.59829037618E+03  0.00000000000E+00 0.  1.
         -3    1    6    6    0  502 -0.28579962886E+03 -0.24990366322E+03 -0.18882959025E+03  0.42401637103E+03  0.00000000000E+00 0.  1.
<mgrwt>
<rscale>  0 0.18784068E+04</rscale>
<asrwt>0</asrwt>
<pdfrwt beam="1">  1        1 0.17718557E+00 0.18784068E+04</pdfrwt>
<pdfrwt beam="2">  1       -1 0.11783227E+00 0.18784068E+04</pdfrwt>
<totfact> 0.70376916E+00</totfact>
</mgrwt>
</event>
<event>
12    1  0.1114484E-007  0.1866161E+04  0.7818608E-02  0.8671886E-01
          2   -1    0    0  501    0  0.00000000000E+00  0.00000000000E+00  0.21804470028E+04  0.21804470028E+04  0.00000000000E+00 0. -1.
         -2   -1    0    0    0  501 -0.00000000000E+00 -0.00000000000E+00 -0.39929374151E+03  0.39929374151E+03  0.00000000000E+00 0.  1.
         23    2    1    2    0    0  0.56649135701E+03  0.42324003887E+02  0.94837586698E+02  0.58317393935E+03  0.91618212188E+02 0.  0.
        254    2    1    2    0    0 -0.56649135701E+03 -0.42324003887E+02  0.16863156746E+04  0.19965668050E+04  0.90549139887E+03 0.  0.
        -24    2    4    4    0    0 -0.35105635433E+03  0.41929286197E+03  0.91214465618E+03  0.10662965066E+04  0.77027905810E+02 0.  0.
         24    2    4    4    0    0 -0.21543500268E+03 -0.46161686586E+03  0.77417101842E+03  0.93027029832E+03  0.80991919022E+02 0.  0.
         13    1    3    3    0    0  0.21633652242E+03 -0.27664329191E+02  0.27939140911E+02  0.21988042577E+03  0.00000000000E+00 0. -1.
        -13    1    3    3    0    0  0.35015483459E+03  0.69988333078E+02  0.66898445787E+02  0.36329351357E+03  0.00000000000E+00 0.  1.
          2    1    6    6  502    0 -0.68943519595E+02 -0.72810247399E+02  0.15576819325E+03  0.18525191240E+03  0.00000000000E+00 0. -1.
          3    1    5    5  503    0 -0.11306283920E+02  0.46130855106E+02  0.84164083506E+02  0.96640989240E+02  0.00000000000E+00 0. -1.
         -4    1    5    5    0  503 -0.33975007041E+03  0.37316200687E+03  0.82798057268E+03  0.96965551741E+03  0.00000000000E+00 0.  1.
         -1    1    6    6    0  502 -0.14649148309E+03 -0.38880661846E+03  0.61840282517E+03  0.74501838592E+03  0.00000000000E+00 0.  1.
<mgrwt>
<rscale>  0 0.18661606E+04</rscale>
<asrwt>0</asrwt>
<pdfrwt beam="1">  1        2 0.33545338E+00 0.18661606E+04</pdfrwt>
<pdfrwt beam="2">  1       -2 0.61429808E-01 0.18661606E+04</pdfrwt>
<totfact> 0.12255436E+01</totfact>
</mgrwt>
</event>
<event>
12    1  0.1114484E-007  0.1251107E+04  0.7818608E-02  0.9069262E-01
          1   -1    0    0  501    0  0.00000000000E+00  0.00000000000E+00  0.15453312851E+04  0.15453312851E+04  0.00000000000E+00 0. -1.
         -1   -1    0    0    0  501 -0.00000000000E+00 -0.00000000000E+00 -0.25322557081E+03  0.25322557081E+03  0.00000000000E+00 0.  1.
         23    2    1    2    0    0  0.12520846487E+03 -0.18153597456E+03  0.37546912108E+02  0.24179617348E+03  0.91777716055E+02 0.  0.
        254    2    1    2    0    0 -0.12520846487E+03  0.18153597456E+03  0.12545588022E+04  0.15567606824E+04  0.89496009102E+03 0.  0.
        -24    2    4    4    0    0 -0.20052497404E+03 -0.22748190095E+03  0.10420620987E+03  0.33091146418E+03  0.81762965199E+02 0.  0.
         24    2    4    4    0    0  0.75316509165E+02  0.40901787551E+03  0.11503525923E+04  0.12258492182E+04  0.80168698537E+02 0.  0.
         13    1    3    3    0    0  0.99634280808E+02 -0.10515546087E+03 -0.14981584988E+02  0.14563347401E+03  0.00000000000E+00 0.  1.
        -13    1    3    3    0    0  0.25574184064E+02 -0.76380513684E+02  0.52528497096E+02  0.96162699465E+02  0.00000000000E+00 0. -1.
          4    1    6    6  502    0 -0.88354814706E+01  0.12715342636E+03  0.40359654741E+03  0.42324488497E+03  0.00000000000E+00 0. -1.
          1    1    5    5  503    0 -0.36436105416E+02 -0.76749797984E+02  0.59329261730E+02  0.10362471986E+03  0.00000000000E+00 0. -1.
         -2    1    5    5    0  503 -0.16408886862E+03 -0.15073210297E+03  0.44876948141E+02  0.22728674432E+03  0.00000000000E+00 0.  1.
         -3    1    6    6    0  502  0.84151990635E+02  0.28186444915E+03  0.74675604488E+03  0.80260433327E+03  0.00000000000E+00 0.  1.
<mgrwt>
<rscale>  0 0.12511073E+04</rscale>
<asrwt>0</asrwt>
<pdfrwt beam="1">  1        1 0.23774327E+00 0.12511073E+04</pdfrwt>
<pdfrwt beam="2">  1       -1 0.38957781E-01 0.12511073E+04</pdfrwt>
<totfact> 0.38354761E+01</totfact>
</mgrwt>
</event>
<event>
12    1  0.1114484E-007  0.1183280E+04  0.7818608E-02  0.9127619E-01
         -2   -1    0    0    0  501 -0.00000000000E+00  0.00000000000E+00  0.23574669211E+03  0.23574669211E+03  0.00000000000E+00 0.  1.
          2   -1    0    0  501    0  0.00000000000E+00 -0.00000000000E+00 -0.14848048213E+04  0.14848048213E+04  0.00000000000E+00 0. -1.
         23    2    1    2    0    0 -0.92867621463E+02  0.18869824671E+03 -0.10208666382E+03  0.24743855223E+03  0.81072355184E+02 0.  0.
        254    2    1    2    0    0  0.92867621463E+02 -0.18869824671E+03 -0.11469714654E+04  0.14731129612E+04  0.90015933621E+03 0.  0.
        -24    2    4    4    0    0  0.45940978259E+03 -0.11268324738E+03 -0.36452360864E+03  0.60207762858E+03  0.76584247752E+02 0.  0.
         24    2    4    4    0    0 -0.36654216113E+03 -0.76014999326E+02 -0.78244785675E+03  0.87103533261E+03  0.79664710542E+02 0.  0.
         11    1    3    3    0    0 -0.66344043076E+02  0.13789873546E+03 -0.31012575966E+02  0.15613895466E+03  0.00000000000E+00 0. -1.
        -11    1    3    3    0    0 -0.26523578386E+02  0.50799511244E+02 -0.71074087852E+02  0.91299597573E+02  0.00000000000E+00 0.  1.
          4    1    6    6  502    0 -0.80989465886E+01 -0.13891769591E+02 -0.16252183364E+02  0.22862800841E+02  0.00000000000E+00 0. -1.
          1    1    5    5  503    0  0.19267290177E+03 -0.23771220100E+02 -0.11179432270E+03  0.22402207161E+03  0.00000000000E+00 0. -1.
         -2    1    5    5    0  503  0.26673688082E+03 -0.88912027281E+02 -0.25272928594E+03  0.37805555697E+03  0.00000000000E+00 0.  1.
         -3    1    6    6    0  502 -0.35844321454E+03 -0.62123229735E+02 -0.76619567339E+03  0.84817253176E+03  0.00000000000E+00 0.  1.
<mgrwt>
<rscale>  0 0.11832799E+04</rscale>
<asrwt>0</asrwt>
<pdfrwt beam="1">  1        2 0.22843151E+00 0.11832799E+04</pdfrwt>
<pdfrwt beam="2">  1       -2 0.36268723E-01 0.11832799E+04</pdfrwt>
<totfact> 0.91443253E+01</totfact>
</mgrwt>
</event>
<event>
12    1  0.1114484E-007  0.2597696E+04  0.7818608E-02  0.8368984E-01
          2   -1    0    0  501    0  0.00000000000E+00  0.00000000000E+00  0.24113521608E+04  0.24113521608E+04  0.00000000000E+00 0. -1.
         -2   -1    0    0    0  501 -0.00000000000E+00 -0.00000000000E+00 -0.69961018316E+03  0.69961018316E+03  0.00000000000E+00 0.  1.
         23    2    1    2    0    0  0.66542934314E+03  0.53956585131E+03  0.16609469176E+04  0.18706130713E+04  0.80753207598E+02 0.  0.
        254    2    1    2    0    0 -0.66542934314E+03 -0.53956585131E+03  0.50795060005E+02  0.12403492727E+04  0.89552144672E+03 0.  0.
        -24    2    4    4    0    0 -0.33515516729E+03 -0.66040059034E+03  0.29883647678E+03  0.80286036379E+03  0.82605072507E+02 0.  0.
         24    2    4    4    0    0 -0.33027417586E+03  0.12083473902E+03 -0.24804141678E+03  0.43748890891E+03  0.78676143718E+02 0.  0.
         11    1    3    3    0    0  0.37415116614E+03  0.35421495531E+03  0.10003095818E+04  0.11252006884E+04  0.00000000000E+00 0. -1.
        -11    1    3    3    0    0  0.29127817701E+03  0.18535089600E+03  0.66063733583E+03  0.74541238288E+03  0.00000000000E+00 0.  1.
          4    1    6    6  502    0 -0.29953503743E+03  0.94801818136E+02 -0.19107820659E+03  0.36772204775E+03  0.00000000000E+00 0. -1.
          1    1    5    5  503    0 -0.26183677006E+03 -0.46993596770E+03  0.24891870163E+03  0.59275528502E+03  0.00000000000E+00 0. -1.
         -2    1    5    5    0  503 -0.73318397229E+02 -0.19046462264E+03  0.49917775153E+02  0.21010507877E+03  0.00000000000E+00 0.  1.
         -3    1    6    6    0  502 -0.30739138433E+02  0.26032920888E+02 -0.56963210190E+02  0.69766861165E+02  0.00000000000E+00 0.  1.
<mgrwt>
<rscale>  0 0.25976963E+04</rscale>
<asrwt>0</asrwt>
<pdfrwt beam="1">  1        2 0.37097725E+00 0.25976963E+04</pdfrwt>
<pdfrwt beam="2">  1       -2 0.10763234E+00 0.25976963E+04</pdfrwt>
<totfact> 0.23990467E+00</totfact>
</mgrwt>
</event>
<event>
12    1  0.1394408E-007  0.1432892E+04  0.7818608E-02  0.8930348E-01
          2   -1    0    0  501    0  0.00000000000E+00  0.00000000000E+00  0.29218398753E+04  0.29218398753E+04  0.00000000000E+00 0. -1.
         -2   -1    0    0    0  501 -0.00000000000E+00 -0.00000000000E+00 -0.17567516675E+03  0.17567516675E+03  0.00000000000E+00 0.  1.
         23    2    1    2    0    0  0.32342429197E+03 -0.55048098719E+02  0.14172846578E+04  0.14578228568E+04  0.94435770069E+02 0.  0.
        254    2    1    2    0    0 -0.32342429197E+03  0.55048098719E+02  0.13288800508E+04  0.16396921853E+04  0.90279272672E+03 0.  0.
        -24    2    4    4    0    0 -0.38937127986E+03  0.25858419133E+02  0.14345210902E+04  0.14888176411E+04  0.80302918390E+02 0.  0.
         24    2    4    4    0    0  0.65946987891E+02  0.29189679585E+02 -0.10564103939E+03  0.15087454428E+03  0.80012850862E+02 0.  0.
         11    1    3    3    0    0  0.24537935515E+03 -0.24749837250E+02  0.87416389701E+03  0.90828745517E+03  0.00000000000E+00 0. -1.
        -11    1    3    3    0    0  0.78044936822E+02 -0.30298261469E+02  0.54312076077E+03  0.54953540159E+03  0.00000000000E+00 0.  1.
          4    1    6    6  502    0  0.71940195120E+02 -0.17609657763E+00 -0.94793102098E+02  0.11900065079E+03  0.00000000000E+00 0. -1.
          1    1    5    5  503    0 -0.36848386574E+03  0.41966074658E+02  0.13070901088E+04  0.13586854174E+04  0.00000000000E+00 0. -1.
         -2    1    5    5    0  503 -0.20887414121E+02 -0.16107655524E+02  0.12743098136E+03  0.13013222370E+03  0.00000000000E+00 0.  1.
         -3    1    6    6    0  502 -0.59932072296E+01  0.29365776163E+02 -0.10847937287E+02  0.31873893486E+02  0.00000000000E+00 0.  1.
<mgrwt>
<rscale>  0 0.14328918E+04</rscale>
<asrwt>0</asrwt>
<pdfrwt beam="1">  1        2 0.44951379E+00 0.14328918E+04</pdfrwt>
<pdfrwt beam="2">  1       -2 0.27026951E-01 0.14328918E+04</pdfrwt>
<totfact> 0.23708801E+01</totfact>
</mgrwt>
</event>
<event>
12    1  0.1114484E-007  0.2147503E+04  0.7818608E-02  0.8540602E-01
          2   -1    0    0  501    0  0.00000000000E+00  0.00000000000E+00  0.38884438109E+04  0.38884438109E+04  0.00000000000E+00 0. -1.
         -2   -1    0    0    0  501 -0.00000000000E+00 -0.00000000000E+00 -0.29650472096E+03  0.29650472096E+03  0.00000000000E+00 0.  1.
         23    2    1    2    0    0 -0.17590810614E+03  0.12078472215E+02 -0.19985136041E+03  0.28310575728E+03  0.95492158043E+02 0.  0.
        254    2    1    2    0    0  0.17590810614E+03 -0.12078472215E+02  0.37917904503E+04  0.39018427745E+04  0.90311276525E+03 0.  0.
        -24    2    4    4    0    0  0.29326434790E+02  0.26468500425E+02 -0.16348591602E+02  0.89749570560E+02  0.78911898191E+02 0.  0.
         24    2    4    4    0    0  0.14658167135E+03 -0.38546972640E+02  0.38081390419E+04  0.38120932040E+04  0.84614287853E+02 0.  0.
         13    1    3    3    0    0 -0.58983617712E+02 -0.16676549892E+02 -0.16026309111E+02  0.63356270869E+02  0.00000000000E+00 0. -1.
        -13    1    3    3    0    0 -0.11692448843E+03  0.28755022107E+02 -0.18382505130E+03  0.21974948641E+03  0.00000000000E+00 0.  1.
          4    1    6    6  502    0  0.15158609386E+03 -0.35238076041E+02  0.37847052087E+04  0.37879035868E+04  0.00000000000E+00 0. -1.
          1    1    5    5  503    0  0.14304109980E+02  0.35957701469E+02 -0.42916579166E+02  0.57787512704E+02  0.00000000000E+00 0. -1.
         -2    1    5    5    0  503  0.15022324810E+02 -0.94892010439E+01  0.26567987564E+02  0.31962057856E+02  0.00000000000E+00 0.  1.
         -3    1    6    6    0  502 -0.50044225081E+01 -0.33088965986E+01  0.23433833193E+02  0.24189617182E+02  0.00000000000E+00 0.  1.
<mgrwt>
<rscale>  0 0.21475027E+04</rscale>
<asrwt>0</asrwt>
<pdfrwt beam="1">  1        2 0.59822209E+00 0.21475027E+04</pdfrwt>
<pdfrwt beam="2">  1       -2 0.45616114E-01 0.21475027E+04</pdfrwt>
<totfact> 0.17682435E+00</totfact>
</mgrwt>
</event>
<event>
12    1  0.1114484E-007  0.1595615E+04  0.7818608E-02  0.8823247E-01
          1   -1    0    0  501    0  0.00000000000E+00  0.00000000000E+00  0.36732302005E+03  0.36732302005E+03  0.00000000000E+00 0. -1.
         -1   -1    0    0    0  501 -0.00000000000E+00 -0.00000000000E+00 -0.17327977984E+04  0.17327977984E+04  0.00000000000E+00 0.  1.
         23    2    1    2    0    0 -0.31771621900E+03 -0.40732336362E+03 -0.65831294443E+03  0.84171962432E+03  0.90884953639E+02 0.  0.
        254    2    1    2    0    0  0.31771621900E+03  0.40732336362E+03 -0.70716183391E+03  0.12584011941E+04  0.90368124228E+03 0.  0.
        -24    2    4    4    0    0 -0.13770005635E+03  0.25222118805E+03 -0.71097805475E+03  0.77096421089E+03  0.79493313701E+02 0.  0.
         24    2    4    4    0    0  0.45541627534E+03  0.15510217557E+03  0.38162208440E+01  0.48743698322E+03  0.78227746698E+02 0.  0.
         13    1    3    3    0    0 -0.94514480520E+02 -0.17481082711E+03 -0.29918083205E+03  0.35916706776E+03  0.00000000000E+00 0. -1.
        -13    1    3    3    0    0 -0.22320173848E+03 -0.23251253651E+03 -0.35913211238E+03  0.48255255655E+03  0.00000000000E+00 0.  1.
          2    1    6    6  502    0  0.27438605459E+03  0.86531445243E+02  0.40087515613E+02  0.29048650034E+03  0.00000000000E+00 0. -1.
          1    1    5    5  503    0 -0.77869048353E+02  0.18724624738E+03 -0.41187644075E+03  0.45909361605E+03  0.00000000000E+00 0. -1.
         -2    1    5    5    0  503 -0.59831007994E+02  0.64974940665E+02 -0.29910161400E+03  0.31187059485E+03  0.00000000000E+00 0.  1.
         -1    1    6    6    0  502  0.18103022075E+03  0.68570730325E+02 -0.36271294769E+02  0.19695048288E+03  0.00000000000E+00 0.  1.
<mgrwt>
<rscale>  0 0.15956146E+04</rscale>
<asrwt>0</asrwt>
<pdfrwt beam="1">  1        1 0.56511234E-01 0.15956146E+04</pdfrwt>
<pdfrwt beam="2">  1       -1 0.26658428E+00 0.15956146E+04</pdfrwt>
<totfact> 0.35098662E+00</totfact>
</mgrwt>
</event>
<event>
12    1  0.1114484E-007  0.1156881E+04  0.7818608E-02  0.9151459E-01
         -1   -1    0    0    0  501 -0.00000000000E+00  0.00000000000E+00  0.48211996901E+03  0.48211996901E+03  0.00000000000E+00 0.  1.
          1   -1    0    0  501    0  0.00000000000E+00 -0.00000000000E+00 -0.69400481582E+03  0.69400481582E+03  0.00000000000E+00 0. -1.
         23    2    1    2    0    0 -0.13295378873E+03 -0.73974476594E+01  0.12533941429E+03  0.20520621992E+03  0.93103124281E+02 0.  0.
        254    2    1    2    0    0  0.13295378873E+03  0.73974476594E+01 -0.33722426110E+03  0.97091856491E+03  0.90068375430E+03 0.  0.
        -24    2    4    4    0    0  0.30353963689E+03  0.25526006551E+03  0.11652013392E+03  0.42117970440E+03  0.80755121102E+02 0.  0.
         24    2    4    4    0    0 -0.17058584817E+03 -0.24786261785E+03 -0.45374439502E+03  0.54973886051E+03  0.76114583518E+02 0.  0.
         13    1    3    3    0    0 -0.38746907166E+02 -0.91017934278E+01  0.10000947691E+03  0.10763856618E+03  0.00000000000E+00 0. -1.
        -13    1    3    3    0    0 -0.94206881562E+02  0.17043457684E+01  0.25329937381E+02  0.97567653737E+02  0.00000000000E+00 0.  1.
          2    1    6    6  502    0 -0.43612057363E+02 -0.79173150115E+02 -0.20113628106E+03  0.22051349802E+03  0.00000000000E+00 0. -1.
          1    1    5    5  503    0  0.83948012548E+02  0.92344678321E+02  0.22046375616E+01  0.12481854370E+03  0.00000000000E+00 0. -1.
         -2    1    5    5    0  503  0.21959162435E+03  0.16291538719E+03  0.11431549636E+03  0.29636116070E+03  0.00000000000E+00 0.  1.
         -1    1    6    6    0  502 -0.12697379080E+03 -0.16868946773E+03 -0.25260811395E+03  0.32922536250E+03  0.00000000000E+00 0.  1.
<mgrwt>
<rscale>  0 0.11568813E+04</rscale>
<asrwt>0</asrwt>
<pdfrwt beam="1">  1        1 0.10676997E+00 0.11568813E+04</pdfrwt>
<pdfrwt beam="2">  1       -1 0.74172303E-01 0.11568813E+04</pdfrwt>
<totfact> 0.50163707E+01</totfact>
</mgrwt>
</event>
<event>
12    1  0.1114484E-007  0.2519951E+04  0.7818608E-02  0.8395912E-01
         -1   -1    0    0    0  501 -0.00000000000E+00  0.00000000000E+00  0.11737606186E+04  0.11737606186E+04  0.00000000000E+00 0.  1.
          1   -1    0    0  501    0  0.00000000000E+00 -0.00000000000E+00 -0.13525225696E+04  0.13525225696E+04  0.00000000000E+00 0. -1.
         23    2    1    2    0    0  0.59961382056E+03  0.59712396237E+03  0.61737121456E+03  0.10514644900E+04  0.91304966625E+02 0.  0.
        254    2    1    2    0    0 -0.59961382056E+03 -0.59712396237E+03 -0.79613316560E+03  0.14748186982E+04  0.90838781092E+03 0.  0.
        -24    2    4    4    0    0 -0.50586388277E+03 -0.28485915466E+03 -0.94164960825E+03  0.11090304251E+04  0.78749559819E+02 0.  0.
         24    2    4    4    0    0 -0.93749937795E+02 -0.31226480771E+03  0.14551644265E+03  0.36578827314E+03  0.79546619725E+02 0.  0.
         11    1    3    3    0    0  0.31418248361E+03  0.27275635562E+03  0.34701437338E+03  0.54178006411E+03  0.00000000000E+00 0. -1.
        -11    1    3    3    0    0  0.28543133695E+03  0.32436760676E+03  0.27035684117E+03  0.50968442589E+03  0.00000000000E+00 0.  1.
          2    1    6    6  502    0 -0.25369466144E+02 -0.17721720501E+02  0.26814213241E+02  0.40947175992E+02  0.00000000000E+00 0. -1.
          3    1    5    5  503    0 -0.15574291335E+03 -0.12589308377E+03 -0.29093839000E+03  0.35319975987E+03  0.00000000000E+00 0. -1.
         -4    1    5    5    0  503 -0.35012096941E+03 -0.15896607089E+03 -0.65071121826E+03  0.75583066522E+03  0.00000000000E+00 0.  1.
         -1    1    6    6    0  502 -0.68380471652E+02 -0.29454308721E+03  0.11870222941E+03  0.32484109715E+03  0.00000000000E+00 0.  1.
<mgrwt>
<rscale>  0 0.25199506E+04</rscale>
<asrwt>0</asrwt>
<pdfrwt beam="1">  1        1 0.20808040E+00 0.25199506E+04</pdfrwt>
<pdfrwt beam="2">  1       -1 0.18057856E+00 0.25199506E+04</pdfrwt>
<totfact> 0.15172575E+00</totfact>
</mgrwt>
</event>
<event>
12    1  0.1184833E-007  0.2002678E+04  0.7818608E-02  0.8605370E-01
          1   -1    0    0  501    0  0.00000000000E+00  0.00000000000E+00  0.81005681979E+03  0.81005681979E+03  0.00000000000E+00 0. -1.
         -1   -1    0    0    0  501 -0.00000000000E+00 -0.00000000000E+00 -0.12377894101E+04  0.12377894101E+04  0.00000000000E+00 0.  1.
         23    2    1    2    0    0 -0.33854350579E+03 -0.19674935526E+03 -0.89270370320E+03  0.97904820951E+03  0.91068549675E+02 0.  0.
        254    2    1    2    0    0  0.33854350579E+03  0.19674935526E+03  0.46497111294E+03  0.10687980203E+04  0.87909559109E+03 0.  0.
        -24    2    4    4    0    0  0.50550752152E+03  0.27913294113E+03  0.59046784499E+03  0.83029115949E+03  0.85311666402E+02 0.  0.
         24    2    4    4    0    0 -0.16696401573E+03 -0.82383585874E+02 -0.12549673206E+03  0.23850686083E+03  0.80449084138E+02 0.  0.
         11    1    3    3    0    0 -0.43338581181E+02 -0.12410284133E+02 -0.18477387447E+03  0.19019367092E+03  0.00000000000E+00 0. -1.
        -11    1    3    3    0    0 -0.29520492461E+03 -0.18433907112E+03 -0.70792982873E+03  0.78885453859E+03  0.00000000000E+00 0.  1.
          4    1    6    6  502    0 -0.17498956726E+03 -0.84285710823E+02 -0.11742836251E+03  0.22696883050E+03  0.00000000000E+00 0. -1.
          1    1    5    5  503    0  0.41920285434E+03  0.26530816526E+03  0.50986904364E+03  0.71139714457E+03  0.00000000000E+00 0. -1.
         -2    1    5    5    0  503  0.86304667181E+02  0.13824775872E+02  0.80598801351E+02  0.11889401492E+03  0.00000000000E+00 0.  1.
         -3    1    6    6    0  502  0.80255515329E+01  0.19021249486E+01 -0.80683695499E+01  0.11538030331E+02  0.00000000000E+00 0.  1.
<mgrwt>
<rscale>  0 0.20026780E+04</rscale>
<asrwt>0</asrwt>
<pdfrwt beam="1">  1        1 0.12462413E+00 0.20026780E+04</pdfrwt>
<pdfrwt beam="2">  1       -1 0.19042914E+00 0.20026780E+04</pdfrwt>
<totfact> 0.35260809E+00</totfact>
</mgrwt>
</event>
<event>
12    1  0.1114484E-007  0.1715744E+04  0.7818608E-02  0.8752435E-01
         -2   -1    0    0    0  501 -0.00000000000E+00  0.00000000000E+00  0.66404859963E+03  0.66404859963E+03  0.00000000000E+00 0.  1.
          2   -1    0    0  501    0  0.00000000000E+00 -0.00000000000E+00 -0.11082693994E+04  0.11082693994E+04  0.00000000000E+00 0. -1.
         23    2    1    2    0    0  0.21121592528E+03  0.41816740987E+02  0.46450626052E+03  0.51975124961E+03  0.89523675577E+02 0.  0.
        254    2    1    2    0    0 -0.21121592528E+03 -0.41816740987E+02 -0.90872706027E+03  0.12525667494E+04  0.83473216347E+03 0.  0.
        -24    2    4    4    0    0 -0.48234668816E+02 -0.31913643836E+03 -0.85414838445E+03  0.91678614630E+03  0.82174970875E+02 0.  0.
         24    2    4    4    0    0 -0.16298125647E+03  0.27731969737E+03 -0.54578675821E+02  0.33578060310E+03  0.79376804278E+02 0.  0.
         11    1    3    3    0    0  0.12371577320E+03 -0.14209797378E+02  0.20036802863E+03  0.23591281817E+03  0.00000000000E+00 0.  1.
        -11    1    3    3    0    0  0.87500152079E+02  0.56026538365E+02  0.26413823189E+03  0.28383843144E+03  0.00000000000E+00 0. -1.
          2    1    6    6  502    0 -0.11159553096E+03  0.24847195483E+03 -0.45492155704E+02  0.27615468690E+03  0.00000000000E+00 0. -1.
          1    1    5    5  503    0 -0.54547536434E+02 -0.31998331978E+03 -0.84769985087E+03  0.90772231207E+03  0.00000000000E+00 0. -1.
         -2    1    5    5    0  503  0.63128676181E+01  0.84688141963E+00 -0.64485335756E+01  0.90638342316E+01  0.00000000000E+00 0.  1.
         -1    1    6    6    0  502 -0.51385725503E+02  0.28847742546E+02 -0.90865201175E+01  0.59625916205E+02  0.00000000000E+00 0.  1.
<mgrwt>
<rscale>  0 0.17157444E+04</rscale>
<asrwt>0</asrwt>
<pdfrwt beam="1">  1        2 0.17050298E+00 0.17157444E+04</pdfrwt>
<pdfrwt beam="2">  1       -2 0.10216132E+00 0.17157444E+04</pdfrwt>
<totfact> 0.16065982E+01</totfact>
</mgrwt>
</event>
<event>
12    1  0.1114484E-007  0.1293543E+04  0.7818608E-02  0.9034701E-01
         -1   -1    0    0    0  501 -0.00000000000E+00  0.00000000000E+00  0.33216797289E+03  0.33216797289E+03  0.00000000000E+00 0.  1.
          1   -1    0    0  501    0  0.00000000000E+00 -0.00000000000E+00 -0.12593430814E+04  0.12593430814E+04  0.00000000000E+00 0. -1.
         23    2    1    2    0    0  0.43000636147E+02  0.22438146205E+03  0.96703901523E+01  0.24576974655E+03  0.90073062864E+02 0.  0.
        254    2    1    2    0    0 -0.43000636147E+02 -0.22438146205E+03 -0.93684549869E+03  0.13457413078E+04  0.93869275262E+03 0.  0.
        -24    2    4    4    0    0 -0.19976425031E+03  0.46122029358E+02  0.11320668867E+03  0.24740276028E+03  0.79745684135E+02 0.  0.
         24    2    4    4    0    0  0.15676361417E+03 -0.27050349140E+03 -0.10500521874E+04  0.10983385475E+04  0.77401544991E+02 0.  0.
         13    1    3    3    0    0  0.36343817959E+02  0.59988346836E+02 -0.30382651474E+02  0.76436773680E+02  0.00000000000E+00 0. -1.
        -13    1    3    3    0    0  0.66568181881E+01  0.16439311521E+03  0.40053041627E+02  0.16933297287E+03  0.00000000000E+00 0.  1.
          4    1    6    6  502    0  0.95515297989E+02 -0.10897895039E+03 -0.38990272353E+03  0.41596119722E+03  0.00000000000E+00 0. -1.
          3    1    5    5  503    0 -0.18388156623E+03  0.51205495274E+02  0.73863312346E+02  0.20467100932E+03  0.00000000000E+00 0. -1.
         -4    1    5    5    0  503 -0.15882684081E+02 -0.50834659160E+01  0.39343376320E+02  0.42731750954E+02  0.00000000000E+00 0.  1.
         -3    1    6    6    0  502  0.61248316176E+02 -0.16152454102E+03 -0.66014946382E+03  0.68237735027E+03  0.00000000000E+00 0.  1.
<mgrwt>
<rscale>  0 0.12935431E+04</rscale>
<asrwt>0</asrwt>
<pdfrwt beam="1">  1        1 0.19374509E+00 0.12935431E+04</pdfrwt>
<pdfrwt beam="2">  1       -1 0.51102765E-01 0.12935431E+04</pdfrwt>
<totfact> 0.36608827E+01</totfact>
</mgrwt>
</event>
<event>
12    1  0.1114484E-007  0.2031367E+04  0.7818608E-02  0.8592094E-01
         -2   -1    0    0    0  501 -0.00000000000E+00  0.00000000000E+00  0.61463015678E+03  0.61463015678E+03  0.00000000000E+00 0. -1.
          2   -1    0    0  501    0  0.00000000000E+00 -0.00000000000E+00 -0.16784292167E+04  0.16784292167E+04  0.00000000000E+00 0.  1.
         23    2    1    2    0    0 -0.75069618021E+03  0.27094348250E+03 -0.45385219515E+03  0.92275909207E+03  0.92452156632E+02 0.  0.
        254    2    1    2    0    0  0.75069618021E+03 -0.27094348250E+03 -0.60994686473E+03  0.13703002814E+04  0.93205823725E+03 0.  0.
        -24    2    4    4    0    0  0.75254761220E+03 -0.50055898749E+03 -0.65887767765E+03  0.11213433399E+04  0.80024266406E+02 0.  0.
         24    2    4    4    0    0 -0.18514319940E+01  0.22961550499E+03  0.48930812927E+02  0.24895694147E+03  0.82816823900E+02 0.  0.
         13    1    3    3    0    0 -0.61947685765E+03  0.23664195107E+03 -0.33760278556E+03  0.74412810120E+03  0.00000000000E+00 0. -1.
        -13    1    3    3    0    0 -0.13121932256E+03  0.34301531432E+02 -0.11624940959E+03  0.17863099087E+03  0.00000000000E+00 0.  1.
          2    1    6    6  502    0 -0.17723452580E+02  0.80123967176E+01 -0.55050323352E+01  0.20214466441E+02  0.00000000000E+00 0. -1.
          3    1    5    5  503    0  0.29813955162E+03 -0.17070837469E+03 -0.28919822164E+03  0.44907032059E+03  0.00000000000E+00 0. -1.
         -4    1    5    5    0  503  0.45440806058E+03 -0.32985061280E+03 -0.36967945601E+03  0.67227301930E+03  0.00000000000E+00 0.  1.
         -1    1    6    6    0  502  0.15872020586E+02  0.22160310828E+03  0.54435845262E+02  0.22874247503E+03  0.00000000000E+00 0.  1.
<mgrwt>
<rscale>  0 0.20313672E+04</rscale>
<asrwt>0</asrwt>
<pdfrwt beam="1">  1        2 0.25821988E+00 0.20313672E+04</pdfrwt>
<pdfrwt beam="2">  1       -2 0.94558487E-01 0.20313672E+04</pdfrwt>
<totfact> 0.88033486E+00</totfact>
</mgrwt>
</event>
<event>
12    1  0.1114484E-007  0.2740994E+04  0.7818608E-02  0.8321825E-01
          1   -1    0    0  501    0  0.00000000000E+00  0.00000000000E+00  0.24594140074E+04  0.24594140074E+04  0.00000000000E+00 0. -1.
         -1   -1    0    0    0  501 -0.00000000000E+00 -0.00000000000E+00 -0.76370279227E+03  0.76370279227E+03  0.00000000000E+00 0.  1.
         23    2    1    2    0    0  0.97480904479E+03  0.23630483522E+03 -0.53562102186E+02  0.10085095236E+04  0.90166021034E+02 0.  0.
        254    2    1    2    0    0 -0.97480904479E+03 -0.23630483522E+03  0.17492733173E+04  0.22146072761E+04  0.91566129099E+03 0.  0.
        -24    2    4    4    0    0 -0.92206079551E+03  0.11923281316E+03  0.15095639225E+04  0.17750432076E+04  0.87078002250E+02 0.  0.
         24    2    4    4    0    0 -0.52748249282E+02 -0.35553764838E+03  0.23970939480E+03  0.43956406848E+03  0.81034431742E+02 0.  0.
         11    1    3    3    0    0  0.30043472461E+03  0.69778656290E+02 -0.58141289121E+02  0.31386381461E+03  0.00000000000E+00 0. -1.
        -11    1    3    3    0    0  0.67437432018E+03  0.16652617893E+03  0.45791869350E+01  0.69464570894E+03  0.00000000000E+00 0.  1.
          4    1    6    6  502    0  0.12199268944E+02 -0.24865204693E+02  0.32424722479E+01  0.27885734587E+02  0.00000000000E+00 0. -1.
          3    1    5    5  503    0 -0.74805017729E+02  0.21657317974E+01  0.83285148993E+02  0.11196828620E+03  0.00000000000E+00 0. -1.
         -4    1    5    5    0  503 -0.84725577778E+03  0.11706708136E+03  0.14262787735E+04  0.16630749214E+04  0.00000000000E+00 0.  1.
         -3    1    6    6    0  502 -0.64947518227E+02 -0.33067244369E+03  0.23646692255E+03  0.41167833390E+03  0.00000000000E+00 0.  1.
<mgrwt>
<rscale>  0 0.27409935E+04</rscale>
<asrwt>0</asrwt>
<pdfrwt beam="1">  1        1 0.37837138E+00 0.27409935E+04</pdfrwt>
<pdfrwt beam="2">  1       -1 0.11749274E+00 0.27409935E+04</pdfrwt>
<totfact> 0.81941637E-01</totfact>
</mgrwt>
</event>
<event>
12    1  0.1114484E-007  0.1539076E+04  0.7818608E-02  0.8858875E-01
         -1   -1    0    0    0  501 -0.00000000000E+00  0.00000000000E+00  0.11873781819E+04  0.11873781819E+04  0.00000000000E+00 0.  1.
          1   -1    0    0  501    0  0.00000000000E+00 -0.00000000000E+00 -0.49873666497E+03  0.49873666497E+03  0.00000000000E+00 0. -1.
         23    2    1    2    0    0 -0.27596755345E+03 -0.38838651044E+03  0.40136669189E+03  0.62882593563E+03  0.85584250429E+02 0.  0.
        254    2    1    2    0    0  0.27596755345E+03  0.38838651044E+03  0.28727482507E+03  0.10572889113E+04  0.89907221330E+03 0.  0.
        -24    2    4    4    0    0  0.26533557040E+03 -0.15307533524E+03  0.38760746297E+03  0.50077269426E+03  0.81845725561E+02 0.  0.
         24    2    4    4    0    0  0.10631983052E+02  0.54146184568E+03 -0.10033263790E+03  0.55651621700E+03  0.79684955720E+02 0.  0.
         13    1    3    3    0    0 -0.27852616016E+03 -0.39122066496E+03  0.39862637862E+03  0.62412612533E+03  0.00000000000E+00 0.  1.
        -13    1    3    3    0    0  0.25586067101E+01  0.28341545180E+01  0.27403132665E+01  0.46998103076E+01  0.00000000000E+00 0. -1.
          4    1    6    6  502    0  0.44783339562E+02  0.30508085406E+03 -0.48860137206E+02  0.31219735429E+03  0.00000000000E+00 0. -1.
          1    1    5    5  503    0  0.79389935212E+02 -0.81316922640E+02  0.18082990875E+03  0.21357588726E+03  0.00000000000E+00 0. -1.
         -2    1    5    5    0  503  0.18594563518E+03 -0.71758412604E+02  0.20677755422E+03  0.28719680700E+03  0.00000000000E+00 0.  1.
         -3    1    6    6    0  502 -0.34151356510E+02  0.23638099162E+03 -0.51472500698E+02  0.24431886272E+03  0.00000000000E+00 0.  1.
<mgrwt>
<rscale>  0 0.15390764E+04</rscale>
<asrwt>0</asrwt>
<pdfrwt beam="1">  1        1 0.76728718E-01 0.15390764E+04</pdfrwt>
<pdfrwt beam="2">  1       -1 0.18267357E+00 0.15390764E+04</pdfrwt>
<totfact> 0.85392175E+00</totfact>
</mgrwt>
</event>
<event>
12    1  0.1114484E-007  0.1984700E+04  0.7818608E-02  0.8613807E-01
          1   -1    0    0  501    0  0.00000000000E+00  0.00000000000E+00  0.23575684014E+04  0.23575684014E+04  0.00000000000E+00 0. -1.
         -1   -1    0    0    0  501 -0.00000000000E+00 -0.00000000000E+00 -0.41770111183E+03  0.41770111183E+03  0.00000000000E+00 0.  1.
         23    2    1    2    0    0  0.72399047903E+03  0.25540490821E+03  0.99939223300E+03  0.12636251330E+04  0.92573000414E+02 0.  0.
        254    2    1    2    0    0 -0.72399047903E+03 -0.25540490821E+03  0.94047505659E+03  0.15116443803E+04  0.90065616055E+03 0.  0.
        -24    2    4    4    0    0 -0.78094213348E+03 -0.46131448475E+02  0.31909171708E+03  0.84878894797E+03  0.81390588496E+02 0.  0.
         24    2    4    4    0    0  0.56951654456E+02 -0.20927345973E+03  0.62138333951E+03  0.66285543233E+03  0.78874569096E+02 0.  0.
         11    1    3    3    0    0  0.79506810721E+02  0.27616682269E+02  0.16293881593E+03  0.18339321642E+03  0.00000000000E+00 0.  1.
        -11    1    3    3    0    0  0.64448366831E+03  0.22778822594E+03  0.83645341707E+03  0.10802319165E+04  0.00000000000E+00 0. -1.
          2    1    6    6  502    0  0.51182961215E+02 -0.94381797386E+02  0.38918413622E+03  0.40372256697E+03  0.00000000000E+00 0. -1.
          1    1    5    5  503    0 -0.49071877020E+02  0.17003725505E+02  0.20464083521E+02  0.55820735481E+02  0.00000000000E+00 0. -1.
         -2    1    5    5    0  503 -0.73187025646E+03 -0.63135173980E+02  0.29862763356E+03  0.79296821249E+03  0.00000000000E+00 0.  1.
         -1    1    6    6    0  502  0.57686932402E+01 -0.11489166235E+03  0.23219920329E+03  0.25913286535E+03  0.00000000000E+00 0.  1.
<mgrwt>
<rscale>  0 0.19847004E+04</rscale>
<asrwt>0</asrwt>
<pdfrwt beam="1">  1        1 0.36270282E+00 0.19847004E+04</pdfrwt>
<pdfrwt beam="2">  1       -1 0.64261711E-01 0.19847004E+04</pdfrwt>
<totfact> 0.38770014E+00</totfact>
</mgrwt>
</event>
<event>
12    1  0.1114484E-007  0.1959278E+04  0.7818608E-02  0.8625900E-01
         -2   -1    0    0    0  501 -0.00000000000E+00  0.00000000000E+00  0.44869131767E+03  0.44869131767E+03  0.00000000000E+00 0.  1.
          2   -1    0    0  501    0  0.00000000000E+00 -0.00000000000E+00 -0.21388701942E+04  0.21388701942E+04  0.00000000000E+00 0. -1.
         23    2    1    2    0    0  0.50278037950E+03 -0.53591824020E+02  0.99754392887E+02  0.52309583354E+03  0.89543947603E+02 0.  0.
        254    2    1    2    0    0 -0.50278037950E+03  0.53591824020E+02 -0.17899332694E+04  0.20644656783E+04  0.89582209979E+03 0.  0.
        -24    2    4    4    0    0 -0.38534414137E+02  0.41474890329E+03 -0.89859434890E+03  0.99352963038E+03  0.78280065774E+02 0.  0.
         24    2    4    4    0    0 -0.46424596536E+03 -0.36115707927E+03 -0.89133892052E+03  0.10709360480E+04  0.80375340429E+02 0.  0.
         13    1    3    3    0    0  0.73576730490E+02  0.18318615932E+02 -0.32256094905E+01  0.75891445604E+02  0.00000000000E+00 0. -1.
        -13    1    3    3    0    0  0.42920364901E+03 -0.71910439952E+02  0.10298000238E+03  0.44720438793E+03  0.00000000000E+00 0.  1.
          2    1    6    6  502    0 -0.35012712776E+03 -0.28352398213E+03 -0.73780804650E+03  0.86448572430E+03  0.00000000000E+00 0. -1.
          1    1    5    5  503    0 -0.56654443429E+02  0.21404322379E+03 -0.50249716284E+03  0.54911531237E+03  0.00000000000E+00 0. -1.
         -2    1    5    5    0  503  0.18120029292E+02  0.20070567950E+03 -0.39609718606E+03  0.44441431801E+03  0.00000000000E+00 0.  1.
         -1    1    6    6    0  502 -0.11411883760E+03 -0.77633097140E+02 -0.15353087402E+03  0.20645032368E+03  0.00000000000E+00 0.  1.
<mgrwt>
<rscale>  0 0.19592779E+04</rscale>
<asrwt>0</asrwt>
<pdfrwt beam="1">  1        2 0.32905695E+00 0.19592779E+04</pdfrwt>
<pdfrwt beam="2">  1       -2 0.69029433E-01 0.19592779E+04</pdfrwt>
<totfact> 0.99834967E+00</totfact>
</mgrwt>
</event>
<event>
12    1  0.1114484E-007  0.1756714E+04  0.7818608E-02  0.8729663E-01
         -2   -1    0    0    0  501 -0.00000000000E+00  0.00000000000E+00  0.79734538289E+03  0.79734538289E+03  0.00000000000E+00 0.  1.
          2   -1    0    0  501    0  0.00000000000E+00 -0.00000000000E+00 -0.96759955935E+03  0.96759955935E+03  0.00000000000E+00 0. -1.
         23    2    1    2    0    0 -0.16391434586E+03 -0.75676927723E+02 -0.67847590102E+03  0.70777783436E+03  0.89582388772E+02 0.  0.
        254    2    1    2    0    0  0.16391434586E+03  0.75676927723E+02  0.50822172455E+03  0.10571671079E+04  0.90924037664E+03 0.  0.
        -24    2    4    4    0    0 -0.70297239723E+02  0.22886048452E+03  0.67579784466E+03  0.72125813434E+03  0.78687649667E+02 0.  0.
         24    2    4    4    0    0  0.23421158558E+03 -0.15318355680E+03 -0.16757612011E+03  0.33590897354E+03  0.80204822670E+02 0.  0.
         13    1    3    3    0    0 -0.17181273143E+03 -0.63925931385E+02 -0.65667137503E+03  0.68177960821E+03  0.00000000000E+00 0. -1.
        -13    1    3    3    0    0  0.78983855643E+01 -0.11750996337E+02 -0.21804525988E+02  0.25998226151E+02  0.00000000000E+00 0.  1.
          2    1    6    6  502    0  0.60687566526E+02 -0.64936808497E+02 -0.89579044098E+02  0.12619102571E+03  0.00000000000E+00 0. -1.
          3    1    5    5  503    0  0.22804747317E+01  0.11498142892E+03  0.35608661048E+03  0.37419727915E+03  0.00000000000E+00 0. -1.
         -4    1    5    5    0  503 -0.72577714455E+02  0.11387905560E+03  0.31971123419E+03  0.34706085519E+03  0.00000000000E+00 0.  1.
         -1    1    6    6    0  502  0.17352401906E+03 -0.88246748301E+02 -0.77997076014E+02  0.20971794783E+03  0.00000000000E+00 0.  1.
<mgrwt>
<rscale>  0 0.17567140E+04</rscale>
<asrwt>0</asrwt>
<pdfrwt beam="1">  1        2 0.14886147E+00 0.17567140E+04</pdfrwt>
<pdfrwt beam="2">  1       -2 0.12266852E+00 0.17567140E+04</pdfrwt>
<totfact> 0.12588952E+01</totfact>
</mgrwt>
</event>
<event>
12    1  0.1114484E-007  0.1444185E+04  0.7818608E-02  0.8922442E-01
          1   -1    0    0  501    0  0.00000000000E+00  0.00000000000E+00  0.60877488532E+03  0.60877488532E+03  0.00000000000E+00 0. -1.
         -1   -1    0    0    0  501 -0.00000000000E+00 -0.00000000000E+00 -0.85650299997E+03  0.85650299997E+03  0.00000000000E+00 0.  1.
         23    2    1    2    0    0 -0.61802671454E+02 -0.35784487773E+03 -0.31130396915E+03  0.48703612649E+03  0.91768734228E+02 0.  0.
        254    2    1    2    0    0  0.61802671454E+02  0.35784487773E+03  0.63575854493E+02  0.97824175880E+03  0.90611396782E+03 0.  0.
        -24    2    4    4    0    0 -0.48754509481E+02  0.26851718543E+03  0.46489857957E+03  0.54508409240E+03  0.80669061203E+02 0.  0.
         24    2    4    4    0    0  0.11055718094E+03  0.89327692294E+02 -0.40132272508E+03  0.43315766640E+03  0.79770341814E+02 0.  0.
         11    1    3    3    0    0 -0.25459208185E+02 -0.45277806715E+02 -0.13237474385E+02  0.53604867227E+02  0.00000000000E+00 0. -1.
        -11    1    3    3    0    0 -0.36343463269E+02 -0.31256707101E+03 -0.29806649476E+03  0.43343125926E+03  0.00000000000E+00 0.  1.
          4    1    6    6  502    0  0.87514051719E+01  0.18093512832E+01 -0.13127742288E+03  0.13158123955E+03  0.00000000000E+00 0. -1.
          3    1    5    5  503    0 -0.35451740078E+01  0.16720211894E+03  0.22107491280E+03  0.27720612170E+03  0.00000000000E+00 0. -1.
         -4    1    5    5    0  503 -0.45209335474E+02  0.10131506650E+03  0.24382366677E+03  0.26787797070E+03  0.00000000000E+00 0.  1.
         -3    1    6    6    0  502  0.10180577576E+03  0.87518341011E+02 -0.27004530220E+03  0.30157642685E+03  0.00000000000E+00 0.  1.
<mgrwt>
<rscale>  0 0.14441849E+04</rscale>
<asrwt>0</asrwt>
<pdfrwt beam="1">  1        1 0.93657675E-01 0.14441849E+04</pdfrwt>
<pdfrwt beam="2">  1       -1 0.13176969E+00 0.14441849E+04</pdfrwt>
<totfact> 0.15971930E+01</totfact>
</mgrwt>
</event>
<event>
12    1  0.1114484E-007  0.1919962E+04  0.7818608E-02  0.8644983E-01
          2   -1    0    0  501    0  0.00000000000E+00  0.00000000000E+00  0.99952736643E+03  0.99952736643E+03  0.00000000000E+00 0.  1.
         -2   -1    0    0    0  501 -0.00000000000E+00 -0.00000000000E+00 -0.92199904998E+03  0.92199904998E+03  0.00000000000E+00 0. -1.
         23    2    1    2    0    0  0.63621815780E+03  0.12185396758E+03  0.40046147420E+03  0.76682383742E+03  0.89596158328E+02 0.  0.
        254    2    1    2    0    0 -0.63621815780E+03 -0.12185396758E+03 -0.32293315776E+03  0.11547025790E+04  0.89968343757E+03 0.  0.
        -24    2    4    4    0    0  0.26950600104E+02 -0.15199122837E+03  0.22890116011E+03  0.28732630144E+03  0.79580110928E+02 0.  0.
         24    2    4    4    0    0 -0.66316875790E+03  0.30137260792E+02 -0.55183431787E+03  0.86737627755E+03  0.84376753524E+02 0.  0.
         13    1    3    3    0    0  0.59930677160E+03  0.92137401982E+02  0.36622925387E+03  0.70836556503E+03  0.00000000000E+00 0.  1.
        -13    1    3    3    0    0  0.36911386194E+02  0.29716565594E+02  0.34232220329E+02  0.58458272384E+02  0.00000000000E+00 0. -1.
          4    1    6    6  502    0 -0.11346323288E+03  0.25151575350E+02 -0.13055587064E+03  0.17478942278E+03  0.00000000000E+00 0. -1.
          1    1    5    5  503    0 -0.23073384234E+02 -0.92272554682E+02  0.13813246478E+03  0.16771160733E+03  0.00000000000E+00 0. -1.
         -2    1    5    5    0  503  0.50023984338E+02 -0.59718673685E+02  0.90768695334E+02  0.11961469412E+03  0.00000000000E+00 0.  1.
         -3    1    6    6    0  502 -0.54970552502E+03  0.49856854417E+01 -0.42127844723E+03  0.69258685477E+03  0.00000000000E+00 0.  1.
<mgrwt>
<rscale>  0 0.19199618E+04</rscale>
<asrwt>0</asrwt>
<pdfrwt beam="1">  1        2 0.15377344E+00 0.19199618E+04</pdfrwt>
<pdfrwt beam="2">  1       -2 0.14184601E+00 0.19199618E+04</pdfrwt>
<totfact> 0.81805635E+00</totfact>
</mgrwt>
</event>
<event>
12    1  0.1114484E-007  0.1834438E+04  0.7818608E-02  0.8688197E-01
          2   -1    0    0  501    0  0.00000000000E+00  0.00000000000E+00  0.14244617557E+04  0.14244617557E+04  0.00000000000E+00 0. -1.
         -2   -1    0    0    0  501 -0.00000000000E+00 -0.00000000000E+00 -0.59060244492E+03  0.59060244492E+03  0.00000000000E+00 0.  1.
         23    2    1    2    0    0 -0.12189914547E+03 -0.16524878818E+03 -0.40964010884E+03  0.46834735889E+03  0.96838350609E+02 0.  0.
        254    2    1    2    0    0  0.12189914547E+03  0.16524878818E+03  0.12434994196E+04  0.15467168417E+04  0.89659110980E+03 0.  0.
        -24    2    4    4    0    0 -0.92648015123E+02 -0.28061848844E+03  0.14437231900E+03  0.33872443925E+03  0.80996842501E+02 0.  0.
         24    2    4    4    0    0  0.21454716060E+03  0.44586727662E+03  0.10991271006E+04  0.12079924024E+04  0.79606209560E+02 0.  0.
         11    1    3    3    0    0 -0.68546700432E+01 -0.86310953235E+02 -0.13667934741E+03  0.16179558448E+03  0.00000000000E+00 0.  1.
        -11    1    3    3    0    0 -0.11504447543E+03 -0.78937834944E+02 -0.27296076144E+03  0.30655177441E+03  0.00000000000E+00 0. -1.
          2    1    6    6  502    0  0.18504058608E+03  0.39559321363E+03  0.89767428662E+03  0.99827507934E+03  0.00000000000E+00 0. -1.
          3    1    5    5  503    0 -0.24066526570E+02 -0.16154223174E+03  0.11051156866E+03  0.19720014489E+03  0.00000000000E+00 0. -1.
         -4    1    5    5    0  503 -0.68581488554E+02 -0.11907625670E+03  0.33860750334E+02  0.14152429436E+03  0.00000000000E+00 0.  1.
         -1    1    6    6    0  502  0.29506574513E+02  0.50274062987E+02  0.20145281397E+03  0.20971732309E+03  0.00000000000E+00 0.  1.
<mgrwt>
<rscale>  0 0.18344379E+04</rscale>
<asrwt>0</asrwt>
<pdfrwt beam="1">  1        2 0.21914796E+00 0.18344379E+04</pdfrwt>
<pdfrwt beam="2">  1       -2 0.90861915E-01 0.18344379E+04</pdfrwt>
<totfact> 0.13638484E+01</totfact>
</mgrwt>
</event>
<event>
12    1  0.1114484E-007  0.2962439E+04  0.7818608E-02  0.8254539E-01
          2   -1    0    0  501    0  0.00000000000E+00  0.00000000000E+00  0.21534143988E+04  0.21534143988E+04  0.00000000000E+00 0. -1.
         -2   -1    0    0    0  501 -0.00000000000E+00 -0.00000000000E+00 -0.10188520555E+04  0.10188520555E+04  0.00000000000E+00 0.  1.
         23    2    1    2    0    0 -0.24767111099E+03  0.11869291542E+04  0.11416856919E+04  0.16678158864E+04  0.89564588752E+02 0.  0.
        254    2    1    2    0    0  0.24767111099E+03 -0.11869291542E+04 -0.71233485549E+01  0.15044505679E+04  0.89060595823E+03 0.  0.
        -24    2    4    4    0    0  0.20435850135E+03 -0.58255089218E+03  0.42699118448E+03  0.75479695796E+03  0.79177250981E+02 0.  0.
         24    2    4    4    0    0  0.43312609635E+02 -0.60437826205E+03 -0.43411453303E+03  0.74965360995E+03  0.79850117949E+02 0.  0.
         13    1    3    3    0    0 -0.63387942296E+02  0.16166184885E+03  0.14745060335E+03  0.22780312779E+03  0.00000000000E+00 0.  1.
        -13    1    3    3    0    0 -0.18428316869E+03  0.10252673054E+04  0.99423508850E+03  0.14400127586E+04  0.00000000000E+00 0. -1.
          2    1    6    6  502    0  0.62753425405E+02 -0.39952362367E+03 -0.30745862695E+03  0.50802354823E+03  0.00000000000E+00 0. -1.
          1    1    5    5  503    0  0.53922757037E+02 -0.27184292015E+03  0.19545378065E+03  0.33912890961E+03  0.00000000000E+00 0. -1.
         -2    1    5    5    0  503  0.15043574431E+03 -0.31070797203E+03  0.23153740383E+03  0.41566804835E+03  0.00000000000E+00 0.  1.
         -1    1    6    6    0  502 -0.19440815769E+02 -0.20485463838E+03 -0.12665590608E+03  0.24163006172E+03  0.00000000000E+00 0.  1.
<mgrwt>
<rscale>  0 0.29624386E+04</rscale>
<asrwt>0</asrwt>
<pdfrwt beam="1">  1        2 0.33129452E+00 0.29624386E+04</pdfrwt>
<pdfrwt beam="2">  1       -2 0.15674647E+00 0.29624386E+04</pdfrwt>
<totfact> 0.12543557E+00</totfact>
</mgrwt>
</event>
<event>
12    1  0.1114484E-007  0.1278911E+04  0.7818608E-02  0.9046458E-01
         -2   -1    0    0    0  501 -0.00000000000E+00  0.00000000000E+00  0.67733511096E+03  0.67733511096E+03  0.00000000000E+00 0.  1.
          2   -1    0    0  501    0  0.00000000000E+00 -0.00000000000E+00 -0.60369457899E+03  0.60369457899E+03  0.00000000000E+00 0. -1.
         23    2    1    2    0    0 -0.45482622533E+02 -0.10300379167E+03 -0.28235916558E+03  0.31782533375E+03  0.92778199685E+02 0.  0.
        254    2    1    2    0    0  0.45482622533E+02  0.10300379167E+03  0.35599969754E+03  0.96320435620E+03  0.88788985640E+03 0.  0.
        -24    2    4    4    0    0 -0.55338664783E+02  0.30162730464E+03 -0.18942315810E+03  0.36878481305E+03  0.77972474513E+02 0.  0.
         24    2    4    4    0    0  0.10082128732E+03 -0.19862351297E+03  0.54542285565E+03  0.59441954315E+03  0.78944727082E+02 0.  0.
         13    1    3    3    0    0  0.11741767622E+02 -0.73026215259E+02 -0.10014083710E+03  0.12449451585E+03  0.00000000000E+00 0. -1.
        -13    1    3    3    0    0 -0.57224390154E+02 -0.29977576411E+02 -0.18221832848E+03  0.19333081790E+03  0.00000000000E+00 0.  1.
          4    1    6    6  502    0  0.99744447829E+02 -0.17746883443E+03  0.53128339102E+03  0.56895182893E+03  0.00000000000E+00 0. -1.
          3    1    5    5  503    0 -0.66823286788E+02  0.29455861358E+03 -0.17516907680E+03  0.34916233181E+03  0.00000000000E+00 0. -1.
         -4    1    5    5    0  503  0.11484622005E+02  0.70686910680E+01 -0.14254081308E+02  0.19622481238E+02  0.00000000000E+00 0.  1.
         -3    1    6    6    0  502  0.10768394864E+01 -0.21154678548E+02  0.14139464624E+02  0.25467714220E+02  0.00000000000E+00 0.  1.
<mgrwt>
<rscale>  0 0.12789113E+04</rscale>
<asrwt>0</asrwt>
<pdfrwt beam="1">  1        2 0.92876089E-01 0.12789113E+04</pdfrwt>
<pdfrwt beam="2">  1       -2 0.10420540E+00 0.12789113E+04</pdfrwt>
<totfact> 0.36180097E+01</totfact>
</mgrwt>
</event>
<event>
12    1  0.1114484E-007  0.1836740E+04  0.7818608E-02  0.8687002E-01
          2   -1    0    0  501    0  0.00000000000E+00  0.00000000000E+00  0.39509519440E+04  0.39509519440E+04  0.00000000000E+00 0. -1.
         -2   -1    0    0    0  501 -0.00000000000E+00 -0.00000000000E+00 -0.21346837558E+03  0.21346837558E+03  0.00000000000E+00 0.  1.
         23    2    1    2    0    0  0.65830632827E+03 -0.14617429523E+03  0.10136460697E+04  0.12206524498E+04  0.88203752618E+02 0.  0.
        254    2    1    2    0    0 -0.65830632827E+03  0.14617429523E+03  0.27238374986E+04  0.29437678698E+04  0.88980020549E+03 0.  0.
        -24    2    4    4    0    0 -0.45774302092E+02  0.38587935801E+03  0.60350874244E+03  0.72232794068E+03  0.80849774316E+02 0.  0.
         24    2    4    4    0    0 -0.61253202618E+03 -0.23970506279E+03  0.21203287562E+04  0.22214399291E+04  0.79670094795E+02 0.  0.
         13    1    3    3    0    0  0.42468586157E+03 -0.12000499057E+03  0.72015936588E+03  0.84462346110E+03  0.00000000000E+00 0.  1.
        -13    1    3    3    0    0  0.23362046671E+03 -0.26169304663E+02  0.29348670387E+03  0.37602898867E+03  0.00000000000E+00 0. -1.
          4    1    6    6  502    0 -0.43416460662E+03 -0.13167861701E+03  0.14856842146E+04  0.15534142234E+04  0.00000000000E+00 0. -1.
          3    1    5    5  503    0  0.22435437489E+02  0.12553921442E+03  0.18217233756E+03  0.22237401778E+03  0.00000000000E+00 0. -1.
         -4    1    5    5    0  503 -0.68209739581E+02  0.26034014360E+03  0.42133640488E+03  0.49995392290E+03  0.00000000000E+00 0.  1.
         -3    1    6    6    0  502 -0.17836741956E+03 -0.10802644578E+03  0.63464454158E+03  0.66802570573E+03  0.00000000000E+00 0.  1.
<mgrwt>
<rscale>  0 0.18367398E+04</rscale>
<asrwt>0</asrwt>
<pdfrwt beam="1">  1        2 0.60783871E+00 0.18367398E+04</pdfrwt>
<pdfrwt beam="2">  1       -2 0.32841291E-01 0.18367398E+04</pdfrwt>
<totfact> 0.30901404E+00</totfact>
</mgrwt>
</event>
<event>
12    1  0.1114484E-007  0.1672636E+04  0.7818608E-02  0.8777127E-01
         -1   -1    0    0    0  501 -0.00000000000E+00  0.00000000000E+00  0.44782411523E+03  0.44782411523E+03  0.00000000000E+00 0.  1.
          1   -1    0    0  501    0  0.00000000000E+00 -0.00000000000E+00 -0.15618356008E+04  0.15618356008E+04  0.00000000000E+00 0. -1.
         23    2    1    2    0    0 -0.24881353281E+02  0.34301118193E+02  0.29830523774E+03  0.31354475764E+03  0.86767803513E+02 0.  0.
        254    2    1    2    0    0  0.24881353281E+02 -0.34301118193E+02 -0.14123167233E+04  0.16961149584E+04  0.93828128868E+03 0.  0.
        -24    2    4    4    0    0 -0.25065292066E+03 -0.24833426415E+03 -0.12528395311E+04  0.13039828019E+04  0.79167313907E+02 0.  0.
         24    2    4    4    0    0  0.27553427394E+03  0.21403314595E+03 -0.15947719221E+03  0.39213215649E+03  0.81273179040E+02 0.  0.
         11    1    3    3    0    0 -0.41156865786E+02  0.50329764171E+02  0.26693663270E+03  0.27474012928E+03  0.00000000000E+00 0.  1.
        -11    1    3    3    0    0  0.16275512505E+02 -0.16028645978E+02  0.31368605046E+02  0.38804628354E+02  0.00000000000E+00 0. -1.
          2    1    6    6  502    0  0.11903681991E+03  0.13809304520E+03 -0.61051981281E+02  0.19226751687E+03  0.00000000000E+00 0. -1.
          1    1    5    5  503    0 -0.82275390338E+02 -0.72322617887E+02 -0.53012822002E+03  0.54132774783E+03  0.00000000000E+00 0. -1.
         -2    1    5    5    0  503 -0.16837753032E+03 -0.17601164626E+03 -0.72271131107E+03  0.76265505407E+03  0.00000000000E+00 0.  1.
         -1    1    6    6    0  502  0.15649745403E+03  0.75940100758E+02 -0.98425210931E+02  0.19986463961E+03  0.00000000000E+00 0.  1.
<mgrwt>
<rscale>  0 0.16726358E+04</rscale>
<asrwt>0</asrwt>
<pdfrwt beam="1">  1        1 0.24028240E+00 0.16726358E+04</pdfrwt>
<pdfrwt beam="2">  1       -1 0.68896017E-01 0.16726358E+04</pdfrwt>
<totfact> 0.12052384E+01</totfact>
</mgrwt>
</event>
<event>
12    1  0.1114484E-007  0.1203005E+04  0.7818608E-02  0.9110231E-01
          1   -1    0    0  501    0  0.00000000000E+00  0.00000000000E+00  0.23971520099E+04  0.23971520099E+04  0.00000000000E+00 0. -1.
         -1   -1    0    0    0  501 -0.00000000000E+00 -0.00000000000E+00 -0.15093122344E+03  0.15093122344E+03  0.00000000000E+00 0.  1.
         23    2    1    2    0    0  0.16983985119E+03 -0.13762366207E+03  0.77920914832E+03  0.81377415625E+03  0.85297322028E+02 0.  0.
        254    2    1    2    0    0 -0.16983985119E+03  0.13762366207E+03  0.14670116382E+04  0.17343090771E+04  0.89884313483E+03 0.  0.
        -24    2    4    4    0    0 -0.46666886946E+02  0.47545551159E+03  0.48595077073E+03  0.68602116034E+03  0.79000879894E+02 0.  0.
         24    2    4    4    0    0 -0.12317296424E+03 -0.33783184953E+03  0.98106086742E+03  0.10482879168E+04  0.84410859277E+02 0.  0.
         13    1    3    3    0    0  0.30982258208E+02 -0.59602534829E+02  0.14394893934E+03  0.15885106112E+03  0.00000000000E+00 0.  1.
        -13    1    3    3    0    0  0.13885759298E+03 -0.78021127236E+02  0.63526020898E+03  0.65492309513E+03  0.00000000000E+00 0. -1.
          4    1    6    6  502    0 -0.11209730106E+03 -0.18773733412E+03  0.56403143523E+03  0.60493187340E+03  0.00000000000E+00 0. -1.
          1    1    5    5  503    0 -0.47057701115E+02  0.14593640024E+03  0.17886398228E+03  0.23559326032E+03  0.00000000000E+00 0. -1.
         -2    1    5    5    0  503  0.39081416812E+00  0.32951911135E+03  0.30708678845E+03  0.45042790003E+03  0.00000000000E+00 0.  1.
         -3    1    6    6    0  502 -0.11075663185E+02 -0.15009451541E+03  0.41702943220E+03  0.44335604337E+03  0.00000000000E+00 0.  1.
<mgrwt>
<rscale>  0 0.12030047E+04</rscale>
<asrwt>0</asrwt>
<pdfrwt beam="1">  1        1 0.36879259E+00 0.12030047E+04</pdfrwt>
<pdfrwt beam="2">  1       -1 0.23220190E-01 0.12030047E+04</pdfrwt>
<totfact> 0.25229402E+01</totfact>
</mgrwt>
</event>
<event>
12    1  0.1114484E-007  0.1654612E+04  0.7818608E-02  0.8787683E-01
         -1   -1    0    0    0  501 -0.00000000000E+00  0.00000000000E+00  0.13832168161E+04  0.13832168161E+04  0.00000000000E+00 0.  1.
          1   -1    0    0  501    0  0.00000000000E+00 -0.00000000000E+00 -0.49481400133E+03  0.49481400133E+03  0.00000000000E+00 0. -1.
         23    2    1    2    0    0 -0.23819487402E+03  0.44992998672E+03  0.39412989679E+01  0.51705315305E+03  0.90303035844E+02 0.  0.
        254    2    1    2    0    0  0.23819487402E+03 -0.44992998672E+03  0.88446151578E+03  0.13609776644E+04  0.90045224140E+03 0.  0.
        -24    2    4    4    0    0 -0.33193841605E+03 -0.20048989098E+03  0.24843143077E+03  0.46759346200E+03  0.80908352334E+02 0.  0.
         24    2    4    4    0    0  0.57013329007E+03 -0.24944009574E+03  0.63603008501E+03  0.89338420236E+03  0.79553341781E+02 0.  0.
         13    1    3    3    0    0 -0.22366095764E+03  0.39100949400E+03 -0.22134167306E+02  0.45100174028E+03  0.00000000000E+00 0. -1.
        -13    1    3    3    0    0 -0.14533916372E+02  0.58920492718E+02  0.26075466274E+02  0.66051412768E+02  0.00000000000E+00 0.  1.
          2    1    6    6  502    0  0.34717792452E+01  0.13557146531E+01 -0.17637885898E+01  0.41233679847E+01  0.00000000000E+00 0. -1.
          1    1    5    5  503    0  0.20545919752E+01 -0.52095630297E+01  0.14337849292E+02  0.15392687143E+02  0.00000000000E+00 0. -1.
         -2    1    5    5    0  503 -0.33399300803E+03 -0.19528032795E+03  0.23409358148E+03  0.45220077486E+03  0.00000000000E+00 0.  1.
         -1    1    6    6    0  502  0.56666151082E+03 -0.25079581040E+03  0.63779387360E+03  0.88926083438E+03  0.00000000000E+00 0.  1.
<mgrwt>
<rscale>  0 0.16546118E+04</rscale>
<asrwt>0</asrwt>
<pdfrwt beam="1">  1        1 0.76125231E-01 0.16546118E+04</pdfrwt>
<pdfrwt beam="2">  1       -1 0.21280259E+00 0.16546118E+04</pdfrwt>
<totfact> 0.52845274E+00</totfact>
</mgrwt>
</event>
<event>
12    1  0.1114484E-007  0.2492415E+04  0.7818608E-02  0.8405693E-01
         -2   -1    0    0    0  501 -0.00000000000E+00  0.00000000000E+00  0.66815766588E+03  0.66815766588E+03  0.00000000000E+00 0.  1.
          2   -1    0    0  501    0  0.00000000000E+00 -0.00000000000E+00 -0.23243510448E+04  0.23243510448E+04  0.00000000000E+00 0. -1.
         23    2    1    2    0    0  0.98097270511E+03 -0.22190134778E+03 -0.10772626934E+04  0.14765912910E+04  0.90990514975E+02 0.  0.
        254    2    1    2    0    0 -0.98097270511E+03  0.22190134778E+03 -0.57893068557E+03  0.15159174197E+04  0.97534467155E+03 0.  0.
        -24    2    4    4    0    0 -0.14395931349E+03 -0.33582042489E+03 -0.52291716149E+02  0.37769133730E+03  0.80104188288E+02 0.  0.
         24    2    4    4    0    0 -0.83701339162E+03  0.55772177267E+03 -0.52663896942E+03  0.11382260824E+04  0.81024793005E+02 0.  0.
         13    1    3    3    0    0  0.23214324640E+03 -0.26990761652E+02 -0.20846747625E+03  0.31317355687E+03  0.00000000000E+00 0.  1.
        -13    1    3    3    0    0  0.74882945871E+03 -0.19491058613E+03 -0.86879521714E+03  0.11634177342E+04  0.00000000000E+00 0. -1.
          2    1    6    6  502    0 -0.54249684352E+03  0.40326974146E+03 -0.37038280876E+03  0.77078708774E+03  0.00000000000E+00 0. -1.
          3    1    5    5  503    0 -0.10086804558E+03 -0.30435332016E+03 -0.42388369112E+02  0.32342244812E+03  0.00000000000E+00 0. -1.
         -4    1    5    5    0  503 -0.43091267915E+02 -0.31467104726E+02 -0.99033470371E+01  0.54268889181E+02  0.00000000000E+00 0.  1.
         -1    1    6    6    0  502 -0.29451654811E+03  0.15445203121E+03 -0.15625616066E+03  0.36743899466E+03  0.00000000000E+00 0.  1.
<mgrwt>
<rscale>  0 0.24924149E+04</rscale>
<asrwt>0</asrwt>
<pdfrwt beam="1">  1        2 0.35759247E+00 0.24924149E+04</pdfrwt>
<pdfrwt beam="2">  1       -2 0.10279349E+00 0.24924149E+04</pdfrwt>
<totfact> 0.30308203E+00</totfact>
</mgrwt>
</event>
<event>
12    1  0.1114484E-007  0.1052658E+04  0.7818608E-02  0.9252604E-01
         -2   -1    0    0    0  501 -0.00000000000E+00  0.00000000000E+00  0.65915933956E+03  0.65915933956E+03  0.00000000000E+00 0.  1.
          2   -1    0    0  501    0  0.00000000000E+00 -0.00000000000E+00 -0.42026596041E+03  0.42026596041E+03  0.00000000000E+00 0. -1.
         23    2    1    2    0    0  0.11907210835E+03 -0.16317425289E+02  0.17312251269E+02  0.15135250917E+03  0.90351771612E+02 0.  0.
        254    2    1    2    0    0 -0.11907210835E+03  0.16317425289E+02  0.22158112788E+03  0.92807279079E+03  0.89318334256E+03 0.  0.
        -24    2    4    4    0    0 -0.45556937067E+03  0.66210588185E+02 -0.70083260811E+02  0.47248114289E+03  0.79996709076E+02 0.  0.
         24    2    4    4    0    0  0.33649726232E+03 -0.49893162896E+02  0.29166438870E+03  0.45559164790E+03  0.82315847503E+02 0.  0.
         13    1    3    3    0    0  0.10945563941E+03  0.36948843545E+01  0.42769660783E+02  0.11757309663E+03  0.00000000000E+00 0.  1.
        -13    1    3    3    0    0  0.96164689402E+01 -0.20012309644E+02 -0.25457409513E+02  0.33779412536E+02  0.00000000000E+00 0. -1.
          2    1    6    6  502    0  0.30849222067E+03 -0.40080560860E+02  0.22908746310E+03  0.38633530427E+03  0.00000000000E+00 0. -1.
          1    1    5    5  503    0 -0.28995294713E+03  0.53372118147E+02 -0.81780716760E+02  0.30595650047E+03  0.00000000000E+00 0. -1.
         -2    1    5    5    0  503 -0.16561642354E+03  0.12838470038E+02  0.11697455949E+02  0.16652464242E+03  0.00000000000E+00 0.  1.
         -1    1    6    6    0  502  0.28005041650E+02 -0.98126020357E+01  0.62576925594E+02  0.69256343633E+02  0.00000000000E+00 0.  1.
<mgrwt>
<rscale>  0 0.10526580E+04</rscale>
<asrwt>0</asrwt>
<pdfrwt beam="1">  1        2 0.64656302E-01 0.10526580E+04</pdfrwt>
<pdfrwt beam="2">  1       -2 0.10140913E+00 0.10526580E+04</pdfrwt>
<totfact> 0.59817800E+01</totfact>
</mgrwt>
</event>
<event>
12    1  0.1114484E-007  0.1560086E+04  0.7818608E-02  0.8845451E-01
         -1   -1    0    0    0  501 -0.00000000000E+00  0.00000000000E+00  0.97399586793E+03  0.97399586793E+03  0.00000000000E+00 0.  1.
          1   -1    0    0  501    0  0.00000000000E+00 -0.00000000000E+00 -0.62471221383E+03  0.62471221383E+03  0.00000000000E+00 0. -1.
         23    2    1    2    0    0  0.25471870907E+03 -0.31120631281E+03  0.44156567574E+03  0.60399893134E+03  0.90019293354E+02 0.  0.
        254    2    1    2    0    0 -0.25471870907E+03  0.31120631281E+03 -0.92282021648E+02  0.99470915043E+03  0.90509631119E+03 0.  0.
        -24    2    4    4    0    0  0.15179917488E+03  0.50217625501E+03 -0.93983831453E+02  0.53897869135E+03  0.80256392635E+02 0.  0.
         24    2    4    4    0    0 -0.40651788395E+03 -0.19096994220E+03  0.17018098053E+01  0.45573045908E+03  0.77207812977E+02 0.  0.
         11    1    3    3    0    0  0.22694421727E+03 -0.28443024971E+03  0.35106952567E+03  0.50562244467E+03  0.00000000000E+00 0.  1.
        -11    1    3    3    0    0  0.27774491798E+02 -0.26776063103E+02  0.90496150077E+02  0.98376486666E+02  0.00000000000E+00 0. -1.
          4    1    6    6  502    0 -0.19366964220E+03 -0.12092219828E+03  0.28348728710E+02  0.23007337691E+03  0.00000000000E+00 0. -1.
          1    1    5    5  503    0  0.14638830261E+03  0.42996601942E+03 -0.57296402703E+02  0.45780256745E+03  0.00000000000E+00 0. -1.
         -4    1    5    5    0  503  0.54108722631E+01  0.72210235587E+02 -0.36687428750E+02  0.81176123894E+02  0.00000000000E+00 0.  1.
         -3    1    6    6    0  502 -0.21284824175E+03 -0.70047743920E+02 -0.26646918905E+02  0.22565708217E+03  0.00000000000E+00 0.  1.
<mgrwt>
<rscale>  0 0.15600860E+04</rscale>
<asrwt>0</asrwt>
<pdfrwt beam="1">  1        1 0.96109572E-01 0.15600860E+04</pdfrwt>
<pdfrwt beam="2">  1       -1 0.14984552E+00 0.15600860E+04</pdfrwt>
<totfact> 0.10877166E+01</totfact>
</mgrwt>
</event>
<event>
12    1  0.1114484E-007  0.1095011E+04  0.7818608E-02  0.9210068E-01
         -2   -1    0    0    0  501 -0.00000000000E+00  0.00000000000E+00  0.12871225783E+03  0.12871225783E+03  0.00000000000E+00 0.  1.
          2   -1    0    0  501    0  0.00000000000E+00 -0.00000000000E+00 -0.23289332914E+04  0.23289332914E+04  0.00000000000E+00 0. -1.
         23    2    1    2    0    0 -0.58345615188E+02  0.12526510753E+03 -0.19049957907E+03  0.25155549730E+03  0.88851114902E+02 0.  0.
        254    2    1    2    0    0  0.58345615188E+02 -0.12526510753E+03 -0.20097214545E+04  0.22060900519E+04  0.89930942092E+03 0.  0.
        -24    2    4    4    0    0 -0.26490464064E+02  0.34007173134E+03 -0.42666993634E+03  0.55190766107E+03  0.78767408417E+02 0.  0.
         24    2    4    4    0    0  0.84836079252E+02 -0.46533683887E+03 -0.15830515182E+04  0.16541823909E+04  0.80819175430E+02 0.  0.
         13    1    3    3    0    0 -0.20854692692E+02  0.26006986128E+01  0.10325107854E+01  0.21041575964E+02  0.00000000000E+00 0. -1.
        -13    1    3    3    0    0 -0.37490922496E+02  0.12266440892E+03 -0.19153208986E+03  0.23051392134E+03  0.00000000000E+00 0.  1.
          2    1    6    6  502    0  0.41391149400E+02 -0.20481577043E+03 -0.83951574391E+03  0.86512970781E+03  0.00000000000E+00 0. -1.
          3    1    5    5  503    0 -0.37771199391E+02  0.19813605747E+03 -0.19876765218E+03  0.28318393373E+03  0.00000000000E+00 0. -1.
         -4    1    5    5    0  503  0.11280735327E+02  0.14193567387E+03 -0.22790228416E+03  0.26872372733E+03  0.00000000000E+00 0.  1.
         -1    1    6    6    0  502  0.43444929852E+02 -0.26052106844E+03 -0.74353577426E+03  0.78905268305E+03  0.00000000000E+00 0.  1.
<mgrwt>
<rscale>  0 0.10950110E+04</rscale>
<asrwt>0</asrwt>
<pdfrwt beam="1">  1        2 0.35829743E+00 0.10950110E+04</pdfrwt>
<pdfrwt beam="2">  1       -2 0.19801886E-01 0.10950110E+04</pdfrwt>
<totfact> 0.94891900E+01</totfact>
</mgrwt>
</event>
<event>
12    1  0.1114484E-007  0.1446461E+04  0.7818608E-02  0.8920858E-01
         -2   -1    0    0    0  501 -0.00000000000E+00  0.00000000000E+00  0.14166052544E+04  0.14166052544E+04  0.00000000000E+00 0.  1.
          2   -1    0    0  501    0  0.00000000000E+00 -0.00000000000E+00 -0.36923660748E+03  0.36923660748E+03  0.00000000000E+00 0. -1.
         23    2    1    2    0    0 -0.81426896056E+02  0.82486594793E+02 -0.22178035891E+03  0.26712106002E+03  0.93449212891E+02 0.  0.
        254    2    1    2    0    0  0.81426896056E+02 -0.82486594793E+02  0.12691490058E+04  0.15187208018E+04  0.82603831464E+03 0.  0.
        -24    2    4    4    0    0 -0.33178279884E+02  0.18202682766E+03 -0.12476794892E+02  0.20263212461E+03  0.81667271697E+02 0.  0.
         24    2    4    4    0    0  0.11460517594E+03 -0.26451342246E+03  0.12816258007E+04  0.13160886772E+04  0.80143722755E+02 0.  0.
         11    1    3    3    0    0  0.37668858827E+00 -0.77286815768E+00  0.87147469494E+01  0.87570562333E+01  0.00000000000E+00 0.  1.
        -11    1    3    3    0    0 -0.81803584644E+02  0.83259462951E+02 -0.23049510586E+03  0.25836400379E+03  0.00000000000E+00 0. -1.
          4    1    6    6  502    0  0.17049325383E+02 -0.12502858421E+03  0.63633158818E+03  0.64872237242E+03  0.00000000000E+00 0. -1.
          1    1    5    5  503    0 -0.10342595437E+02  0.12633232356E+03  0.28365227734E+02  0.12988999731E+03  0.00000000000E+00 0. -1.
         -4    1    5    5    0  503 -0.22835684447E+02  0.55694504099E+02 -0.40842022626E+02  0.72742127294E+02  0.00000000000E+00 0.  1.
         -3    1    6    6    0  502  0.97555850557E+02 -0.13948483825E+03  0.64529421251E+03  0.66736630479E+03  0.00000000000E+00 0.  1.
<mgrwt>
<rscale>  0 0.14464612E+04</rscale>
<asrwt>0</asrwt>
<pdfrwt beam="1">  1        2 0.56805633E-01 0.14464612E+04</pdfrwt>
<pdfrwt beam="2">  1       -2 0.21793927E+00 0.14464612E+04</pdfrwt>
<totfact> 0.85934235E+00</totfact>
</mgrwt>
</event>
<event>
12    1  0.1114484E-007  0.1879600E+04  0.7818608E-02  0.8665078E-01
          1   -1    0    0  501    0  0.00000000000E+00  0.00000000000E+00  0.33187361285E+04  0.33187361285E+04  0.00000000000E+00 0. -1.
         -1   -1    0    0    0  501 -0.00000000000E+00 -0.00000000000E+00 -0.26613273055E+03  0.26613273055E+03  0.00000000000E+00 0.  1.
         23    2    1    2    0    0  0.53427775166E+02  0.64514096583E+03  0.56882339431E+03  0.86658501309E+03  0.91368145706E+02 0.  0.
        254    2    1    2    0    0 -0.53427775166E+02 -0.64514096583E+03  0.24837800036E+04  0.27182838460E+04  0.89489807674E+03 0.  0.
        -24    2    4    4    0    0 -0.13841067500E+03 -0.66604125582E+03  0.25073283741E+04  0.25992227452E+04  0.80590533362E+02 0.  0.
         24    2    4    4    0    0  0.84982899835E+02  0.20900289996E+02 -0.23548370457E+02  0.11906110078E+03  0.77214665588E+02 0.  0.
         13    1    3    3    0    0 -0.72014847869E+01  0.43203454302E+03  0.36853318108E+03  0.56791056805E+03  0.00000000000E+00 0.  1.
        -13    1    3    3    0    0  0.60629259953E+02  0.21310642280E+03  0.20029021323E+03  0.29867444503E+03  0.00000000000E+00 0. -1.
          4    1    6    6  502    0  0.56269851368E+02  0.39024948382E+02 -0.42084295491E+02  0.80376182394E+02  0.00000000000E+00 0. -1.
          1    1    5    5  503    0 -0.14265651144E+03 -0.55736817291E+03  0.20566220556E+04  0.21355805862E+04  0.00000000000E+00 0. -1.
         -2    1    5    5    0  503  0.42458364375E+01 -0.10867308291E+03  0.45070631848E+03  0.46364215899E+03  0.00000000000E+00 0.  1.
         -3    1    6    6    0  502  0.28713048467E+02 -0.18124658385E+02  0.18535925034E+02  0.38684918388E+02  0.00000000000E+00 0.  1.
<mgrwt>
<rscale>  0 0.18796003E+04</rscale>
<asrwt>0</asrwt>
<pdfrwt beam="1">  1        1 0.51057476E+00 0.18796003E+04</pdfrwt>
<pdfrwt beam="2">  1       -1 0.40943499E-01 0.18796003E+04</pdfrwt>
<totfact> 0.18981991E+00</totfact>
</mgrwt>
</event>
<event>
12    1  0.1114484E-007  0.1767228E+04  0.7818608E-02  0.8723924E-01
         -2   -1    0    0    0  501 -0.00000000000E+00  0.00000000000E+00  0.31559611445E+03  0.31559611445E+03  0.00000000000E+00 0.  1.
          2   -1    0    0  501    0  0.00000000000E+00 -0.00000000000E+00 -0.24739658686E+04  0.24739658686E+04  0.00000000000E+00 0. -1.
         23    2    1    2    0    0  0.20877160900E+03 -0.36330143522E+03 -0.15956348193E+04  0.16523199916E+04  0.92397838393E+02 0.  0.
        254    2    1    2    0    0 -0.20877160900E+03  0.36330143522E+03 -0.56273493484E+03  0.11372419914E+04  0.89502805690E+03 0.  0.
        -24    2    4    4    0    0 -0.46457146789E+03 -0.60481131773E+02 -0.18796611810E+03  0.51113220113E+03  0.80251164453E+02 0.  0.
         24    2    4    4    0    0  0.25579985890E+03  0.42378256700E+03 -0.37476881674E+03  0.62610979031E+03  0.80849066899E+02 0.  0.
         11    1    3    3    0    0  0.96330116221E+02 -0.86315714615E+02 -0.43677882893E+03  0.45552786883E+03  0.00000000000E+00 0.  1.
        -11    1    3    3    0    0  0.11244149277E+03 -0.27698572061E+03 -0.11588559904E+04  0.11967921228E+04  0.00000000000E+00 0. -1.
          4    1    6    6  502    0  0.18486398317E+03  0.31475838593E+03 -0.31827893826E+03  0.48430260822E+03  0.00000000000E+00 0. -1.
          1    1    5    5  503    0 -0.81088150504E+02  0.13727200132E+02 -0.13503512738E+02  0.83343080288E+02  0.00000000000E+00 0. -1.
         -2    1    5    5    0  503 -0.38348331739E+03 -0.74208331904E+02 -0.17446260536E+03  0.42778912084E+03  0.00000000000E+00 0.  1.
         -3    1    6    6    0  502  0.70935875730E+02  0.10902418106E+03 -0.56489878486E+02  0.14180718209E+03  0.00000000000E+00 0.  1.
<mgrwt>
<rscale>  0 0.17672284E+04</rscale>
<asrwt>0</asrwt>
<pdfrwt beam="1">  1        2 0.38061014E+00 0.17672284E+04</pdfrwt>
<pdfrwt beam="2">  1       -2 0.48553248E-01 0.17672284E+04</pdfrwt>
<totfact> 0.13722146E+01</totfact>
</mgrwt>
</event>
<event>
12    1  0.1114484E-007  0.1470402E+04  0.7818608E-02  0.8904378E-01
          1   -1    0    0  501    0  0.00000000000E+00  0.00000000000E+00  0.24445359507E+04  0.24445359507E+04  0.00000000000E+00 0. -1.
         -1   -1    0    0    0  501 -0.00000000000E+00 -0.00000000000E+00 -0.22111363758E+03  0.22111363758E+03  0.00000000000E+00 0.  1.
         23    2    1    2    0    0 -0.25409289192E+03  0.14513572128E+03  0.68861228076E+02  0.31384508951E+03  0.90162609555E+02 0.  0.
        254    2    1    2    0    0  0.25409289192E+03 -0.14513572128E+03  0.21545610850E+04  0.23518044988E+04  0.89622729034E+03 0.  0.
        -24    2    4    4    0    0 -0.28836118496E+03 -0.24205960555E+03  0.94394557179E+03  0.10196677177E+04  0.83330585577E+02 0.  0.
         24    2    4    4    0    0  0.54245407688E+03  0.96923884263E+02  0.12106155132E+04  0.13321367810E+04  0.73128773801E+02 0.  0.
         13    1    3    3    0    0 -0.25823331693E+02  0.31309087304E+02 -0.17984305129E+02  0.44390749470E+02  0.00000000000E+00 0. -1.
        -13    1    3    3    0    0 -0.22826956023E+03  0.11382663398E+03  0.86845533205E+02  0.26945434004E+03  0.00000000000E+00 0.  1.
          4    1    6    6  502    0  0.52689879444E+03  0.10042669520E+03  0.11420150345E+04  0.12617076522E+04  0.00000000000E+00 0. -1.
          3    1    5    5  503    0 -0.16601387245E+03 -0.18820808789E+03  0.58085764909E+03  0.63275469078E+03  0.00000000000E+00 0. -1.
         -2    1    5    5    0  503 -0.12234731250E+03 -0.53851517656E+02  0.36308792269E+03  0.38691302697E+03  0.00000000000E+00 0.  1.
         -3    1    6    6    0  502  0.15555282436E+02 -0.35028109345E+01  0.68600478734E+02  0.70429128765E+02  0.00000000000E+00 0.  1.
<mgrwt>
<rscale>  0 0.14704016E+04</rscale>
<asrwt>0</asrwt>
<pdfrwt beam="1">  1        1 0.37608244E+00 0.14704016E+04</pdfrwt>
<pdfrwt beam="2">  1       -1 0.34017484E-01 0.14704016E+04</pdfrwt>
<totfact> 0.11749689E+01</totfact>
</mgrwt>
</event>
<event>
12    1  0.1114484E-007  0.3657750E+04  0.7818608E-02  0.8077390E-01
          1   -1    0    0  501    0  0.00000000000E+00  0.00000000000E+00  0.10670444141E+04  0.10670444141E+04  0.00000000000E+00 0. -1.
         -1   -1    0    0    0  501 -0.00000000000E+00 -0.00000000000E+00 -0.31346251889E+04  0.31346251889E+04  0.00000000000E+00 0.  1.
         23    2    1    2    0    0 -0.68951801717E+03  0.32253606491E+03  0.79339713654E+03  0.11032187061E+04  0.90265652620E+02 0.  0.
        254    2    1    2    0    0  0.68951801717E+03 -0.32253606491E+03 -0.28609779113E+04  0.30984508969E+04  0.91418747646E+03 0.  0.
        -24    2    4    4    0    0  0.41879730099E+03 -0.46110996612E+03 -0.26419227121E+04  0.27154934800E+04  0.78330346989E+02 0.  0.
         24    2    4    4    0    0  0.27072071618E+03  0.13857390121E+03 -0.21905519924E+03  0.38295741685E+03  0.78605155939E+02 0.  0.
         13    1    3    3    0    0 -0.50949544974E+03  0.20029838178E+03  0.53588100625E+03  0.76607669845E+03  0.00000000000E+00 0.  1.
        -13    1    3    3    0    0 -0.18002256744E+03  0.12223768313E+03  0.25751613029E+03  0.33714200765E+03  0.00000000000E+00 0. -1.
          2    1    6    6  502    0  0.12112061643E+03  0.23040789698E+02 -0.66679982390E+02  0.14016883307E+03  0.00000000000E+00 0. -1.
          1    1    5    5  503    0  0.40756317787E+03 -0.43284603563E+03 -0.24455480450E+04  0.25167774385E+04  0.00000000000E+00 0. -1.
         -2    1    5    5    0  503  0.11234123126E+02 -0.28263930495E+02 -0.19637466709E+03  0.19871604153E+03  0.00000000000E+00 0.  1.
         -1    1    6    6    0  502  0.14960009975E+03  0.11553311152E+03 -0.15237521685E+03  0.24278858377E+03  0.00000000000E+00 0.  1.
<mgrwt>
<rscale>  0 0.36577503E+04</rscale>
<asrwt>0</asrwt>
<pdfrwt beam="1">  1        1 0.16416068E+00 0.36577503E+04</pdfrwt>
<pdfrwt beam="2">  1       -1 0.48225002E+00 0.36577503E+04</pdfrwt>
<totfact> 0.21083864E-02</totfact>
</mgrwt>
</event>
<event>
12    1  0.1114484E-007  0.4136667E+04  0.7818608E-02  0.7977530E-01
         -1   -1    0    0    0  501 -0.00000000000E+00  0.00000000000E+00  0.40224700398E+04  0.40224700398E+04  0.00000000000E+00 0.  1.
          1   -1    0    0  501    0  0.00000000000E+00 -0.00000000000E+00 -0.10635264272E+04  0.10635264272E+04  0.00000000000E+00 0. -1.
         23    2    1    2    0    0  0.66041308372E+03 -0.11210902706E+04 -0.40548465962E+03  0.13659851240E+04  0.92242690263E+02 0.  0.
        254    2    1    2    0    0 -0.66041308372E+03  0.11210902706E+04  0.33644282723E+04  0.37200113430E+04  0.90891031274E+03 0.  0.
        -24    2    4    4    0    0  0.10286843616E+03  0.13629475250E+01  0.87292113418E+03  0.88269957375E+03  0.81138512548E+02 0.  0.
         24    2    4    4    0    0 -0.76328151988E+03  0.11197273231E+04  0.24915071381E+04  0.28373117692E+04  0.79638558400E+02 0.  0.
         11    1    3    3    0    0  0.37667999104E+03 -0.62920213863E+03 -0.18080115618E+03  0.75529610417E+03  0.00000000000E+00 0. -1.
        -11    1    3    3    0    0  0.28373309268E+03 -0.49188813195E+03 -0.22468350344E+03  0.61068901984E+03  0.00000000000E+00 0.  1.
          2    1    6    6  502    0 -0.79501530888E+02  0.15206484228E+03  0.35287538435E+03  0.39238405492E+03  0.00000000000E+00 0. -1.
          1    1    5    5  503    0  0.44405821294E+02 -0.11589981729E+02  0.13986852034E+03  0.14720532471E+03  0.00000000000E+00 0. -1.
         -2    1    5    5    0  503  0.58462614867E+02  0.12952929254E+02  0.73305261384E+03  0.73549424904E+03  0.00000000000E+00 0.  1.
         -1    1    6    6    0  502 -0.68377998900E+03  0.96766248078E+03  0.21386317537E+04  0.24449277143E+04  0.00000000000E+00 0.  1.
<mgrwt>
<rscale>  0 0.41366669E+04</rscale>
<asrwt>0</asrwt>
<pdfrwt beam="1">  1        1 0.16361945E+00 0.41366669E+04</pdfrwt>
<pdfrwt beam="2">  1       -1 0.61884153E+00 0.41366669E+04</pdfrwt>
<totfact> 0.39180414E-03</totfact>
</mgrwt>
</event>
<event>
12    1  0.1114484E-007  0.1418272E+04  0.7818608E-02  0.8940697E-01
         -1   -1    0    0    0  501 -0.00000000000E+00  0.00000000000E+00  0.56816061167E+03  0.56816061167E+03  0.00000000000E+00 0.  1.
          1   -1    0    0  501    0  0.00000000000E+00 -0.00000000000E+00 -0.88509114341E+03  0.88509114341E+03  0.00000000000E+00 0. -1.
         23    2    1    2    0    0  0.23497279983E+03 -0.18068393489E+03 -0.38188305167E+03  0.49195127046E+03  0.91227662310E+02 0.  0.
        254    2    1    2    0    0 -0.23497279983E+03  0.18068393489E+03  0.64952519927E+02  0.96130048461E+03  0.91215179158E+03 0.  0.
        -24    2    4    4    0    0 -0.18866882085E+03 -0.12589862982E+03  0.41950490824E+03  0.48362602030E+03  0.80395090205E+02 0.  0.
         24    2    4    4    0    0 -0.46303978982E+02  0.30658256471E+03 -0.35455238831E+03  0.47767446431E+03  0.79552312015E+02 0.  0.
         11    1    3    3    0    0  0.19231800840E+03 -0.13321026476E+03 -0.34899799391E+03  0.42015567442E+03  0.00000000000E+00 0. -1.
        -11    1    3    3    0    0  0.42654791425E+02 -0.47473670129E+02 -0.32885057755E+02  0.71795596039E+02  0.00000000000E+00 0.  1.
          2    1    6    6  502    0 -0.17618578269E+02  0.28132262728E+03 -0.31121640817E+03  0.41989104258E+03  0.00000000000E+00 0. -1.
          3    1    5    5  503    0 -0.15434816794E+03 -0.89724550045E+02  0.38055531516E+03  0.42035247082E+03  0.00000000000E+00 0. -1.
         -4    1    5    5    0  503 -0.34320652907E+02 -0.36174079773E+02  0.38949593077E+02  0.63273549484E+02  0.00000000000E+00 0.  1.
         -1    1    6    6    0  502 -0.28685400713E+02  0.25259937424E+02 -0.43335980136E+02  0.57783421732E+02  0.00000000000E+00 0.  1.
<mgrwt>
<rscale>  0 0.14182721E+04</rscale>
<asrwt>0</asrwt>
<pdfrwt beam="1">  1        1 0.13616787E+00 0.14182721E+04</pdfrwt>
<pdfrwt beam="2">  1       -1 0.87409325E-01 0.14182721E+04</pdfrwt>
<totfact> 0.23485715E+01</totfact>
</mgrwt>
</event>
<event>
12    1  0.1114484E-007  0.1593043E+04  0.7818608E-02  0.8824833E-01
         -2   -1    0    0    0  501 -0.00000000000E+00  0.00000000000E+00  0.49620795324E+03  0.49620795324E+03  0.00000000000E+00 0. -1.
          2   -1    0    0  501    0  0.00000000000E+00 -0.00000000000E+00 -0.12785901082E+04  0.12785901082E+04  0.00000000000E+00 0.  1.
         23    2    1    2    0    0 -0.45905533789E+03  0.21184954639E+03 -0.12943619672E+03  0.52972212578E+03  0.90773167668E+02 0.  0.
        254    2    1    2    0    0  0.45905533789E+03 -0.21184954639E+03 -0.65294595827E+03  0.12450759357E+04  0.93180664715E+03 0.  0.
        -24    2    4    4    0    0  0.44575396241E+03  0.29047821618E+03 -0.23821407923E+03  0.58835981934E+03  0.79668942438E+02 0.  0.
         24    2    4    4    0    0  0.13301375479E+02 -0.50232776257E+03 -0.41473187904E+03  0.65671611635E+03  0.82240004556E+02 0.  0.
         11    1    3    3    0    0 -0.10993393445E+03  0.78461850388E+02 -0.27199672773E+01  0.13508934129E+03  0.00000000000E+00 0.  1.
        -11    1    3    3    0    0 -0.34912140344E+03  0.13338769600E+03 -0.12671622944E+03  0.39463278449E+03  0.00000000000E+00 0. -1.
          4    1    6    6  502    0 -0.34555564111E+02 -0.19505139460E+03 -0.16834087474E+03  0.25995727275E+03  0.00000000000E+00 0. -1.
          3    1    5    5  503    0  0.26141642579E+03  0.12313733613E+03 -0.13190066580E+03  0.31764624484E+03  0.00000000000E+00 0. -1.
         -4    1    5    5    0  503  0.18433753662E+03  0.16734088005E+03 -0.10631341343E+03  0.27071357450E+03  0.00000000000E+00 0.  1.
         -3    1    6    6    0  502  0.47856939590E+02 -0.30727636797E+03 -0.24639100430E+03  0.39675884360E+03  0.00000000000E+00 0.  1.
<mgrwt>
<rscale>  0 0.15930431E+04</rscale>
<asrwt>0</asrwt>
<pdfrwt beam="1">  1        2 0.19670617E+00 0.15930431E+04</pdfrwt>
<pdfrwt beam="2">  1       -2 0.76339686E-01 0.15930431E+04</pdfrwt>
<totfact> 0.25063668E+01</totfact>
</mgrwt>
</event>
<event>
12    1  0.1114484E-007  0.3350187E+04  0.7818608E-02  0.8150241E-01
         -2   -1    0    0    0  501 -0.00000000000E+00  0.00000000000E+00  0.22559973855E+04  0.22559973855E+04  0.00000000000E+00 0. -1.
          2   -1    0    0  501    0  0.00000000000E+00 -0.00000000000E+00 -0.12437684728E+04  0.12437684728E+04  0.00000000000E+00 0.  1.
         23    2    1    2    0    0 -0.19829052086E+03  0.14187268929E+04  0.10744522252E+04  0.17929926838E+04  0.90939830513E+02 0.  0.
        254    2    1    2    0    0  0.19829052086E+03 -0.14187268929E+04 -0.62223312484E+02  0.17067731745E+04  0.92579576643E+03 0.  0.
        -24    2    4    4    0    0  0.12762048630E+03 -0.12534641463E+04  0.29710679871E+03  0.12969733395E+04  0.80050227599E+02 0.  0.
         24    2    4    4    0    0  0.70670034559E+02 -0.16526274661E+03 -0.35933011119E+03  0.40979983497E+03  0.80695394728E+02 0.  0.
         13    1    3    3    0    0 -0.16634216999E+03  0.13349191553E+04  0.99590667745E+03  0.16737708860E+04  0.00000000000E+00 0. -1.
        -13    1    3    3    0    0 -0.31948350868E+02  0.83807737606E+02  0.78545547712E+02  0.11922179780E+03  0.00000000000E+00 0.  1.
          2    1    6    6  502    0  0.36173150960E+02 -0.15755061911E+03 -0.29727631767E+03  0.33838425418E+03  0.00000000000E+00 0. -1.
          1    1    5    5  503    0  0.63993507929E+02 -0.82474375380E+03  0.22812817386E+03  0.85810249516E+03  0.00000000000E+00 0. -1.
         -2    1    5    5    0  503  0.63626978375E+02 -0.42872039252E+03  0.68978624850E+02  0.43887084436E+03  0.00000000000E+00 0.  1.
         -1    1    6    6    0  502  0.34496883599E+02 -0.77121275025E+01 -0.62053793527E+02  0.71415580791E+02  0.00000000000E+00 0.  1.
<mgrwt>
<rscale>  0 0.33501871E+04</rscale>
<asrwt>0</asrwt>
<pdfrwt beam="1">  1        2 0.19134900E+00 0.33501871E+04</pdfrwt>
<pdfrwt beam="2">  1       -2 0.34707652E+00 0.33501871E+04</pdfrwt>
<totfact> 0.24075695E-01</totfact>
</mgrwt>
</event>
<event>
12    1  0.1114484E-007  0.5917220E+04  0.7818608E-02  0.7700751E-01
         -1   -1    0    0    0  501 -0.00000000000E+00  0.00000000000E+00  0.27844610539E+04  0.27844610539E+04  0.00000000000E+00 0.  1.
          1   -1    0    0  501    0  0.00000000000E+00 -0.00000000000E+00 -0.31436504617E+04  0.31436504617E+04  0.00000000000E+00 0. -1.
         23    2    1    2    0    0 -0.11061934231E+04 -0.24901817002E+04  0.79069655353E+03  0.28386852672E+04  0.90907740285E+02 0.  0.
        254    2    1    2    0    0  0.11061934231E+04  0.24901817002E+04 -0.11498859613E+04  0.30894262484E+04  0.89311143247E+03 0.  0.
        -24    2    4    4    0    0  0.33096909085E+03  0.13410256044E+04 -0.17887753112E+03  0.13950947166E+04  0.80011790518E+02 0.  0.
         24    2    4    4    0    0  0.77522433226E+03  0.11491560958E+04 -0.97100843023E+03  0.16943315317E+04  0.79808959122E+02 0.  0.
         11    1    3    3    0    0 -0.14601908677E+03 -0.26616257356E+03  0.74459912831E+02  0.31258337749E+03  0.00000000000E+00 0.  1.
        -11    1    3    3    0    0 -0.96017433634E+03 -0.22240191266E+04  0.71623664070E+03  0.25261018897E+04  0.00000000000E+00 0. -1.
          2    1    6    6  502    0  0.88709694089E+02  0.96607902940E+02 -0.10773165053E+03  0.16973097909E+03  0.00000000000E+00 0. -1.
          3    1    5    5  503    0  0.12143565833E+02  0.13070305256E+02 -0.36021269485E+01  0.18200944733E+02  0.00000000000E+00 0. -1.
         -4    1    5    5    0  503  0.31882552501E+03  0.13279552991E+04 -0.17527540417E+03  0.13768937719E+04  0.00000000000E+00 0.  1.
         -1    1    6    6    0  502  0.68651463817E+03  0.10525481929E+04 -0.86327677970E+03  0.15246005526E+04  0.00000000000E+00 0.  1.
<mgrwt>
<rscale>  0 0.59172197E+04</rscale>
<asrwt>0</asrwt>
<pdfrwt beam="1">  1        1 0.48363853E+00 0.59172197E+04</pdfrwt>
<pdfrwt beam="2">  1       -1 0.42837863E+00 0.59172197E+04</pdfrwt>
<totfact> 0.14398387E-03</totfact>
</mgrwt>
</event>
<event>
12    1  0.1114484E-007  0.1758472E+04  0.7818608E-02  0.8728701E-01
          2   -1    0    0  501    0  0.00000000000E+00  0.00000000000E+00  0.97641307317E+03  0.97641307317E+03  0.00000000000E+00 0.  1.
         -2   -1    0    0    0  501 -0.00000000000E+00 -0.00000000000E+00 -0.79173006795E+03  0.79173006795E+03  0.00000000000E+00 0. -1.
         23    2    1    2    0    0 -0.33883681204E+03  0.36408311329E+02  0.52733183788E+03  0.63469552774E+03  0.92863315459E+02 0.  0.
        254    2    1    2    0    0  0.33883681204E+03 -0.36408311329E+02 -0.34264883267E+03  0.11334476134E+04  0.10252606105E+04 0.  0.
        -24    2    4    4    0    0  0.52873134360E+03  0.10618587573E+02  0.18508483432E+03  0.56625418799E+03  0.81962317038E+02 0.  0.
         24    2    4    4    0    0 -0.18989453156E+03 -0.47026898902E+02 -0.52773366698E+03  0.56719342539E+03  0.70243122137E+02 0.  0.
         11    1    3    3    0    0 -0.69026585017E+02 -0.27285614191E+02  0.13879998724E+03  0.15739952553E+03  0.00000000000E+00 0. -1.
        -11    1    3    3    0    0 -0.26981022703E+03  0.63693925520E+02  0.38853185064E+03  0.47729600220E+03  0.00000000000E+00 0.  1.
          4    1    6    6  502    0 -0.84735528730E+02 -0.56871860611E+02 -0.27143432655E+03  0.28998467544E+03  0.00000000000E+00 0. -1.
          1    1    5    5  503    0  0.25588387711E+03 -0.13245193996E+01  0.13239629449E+03  0.28810951339E+03  0.00000000000E+00 0. -1.
         -2    1    5    5    0  503  0.27284746650E+03  0.11943106973E+02  0.52688539831E+02  0.27814467460E+03  0.00000000000E+00 0.  1.
         -3    1    6    6    0  502 -0.10515900283E+03  0.98449617087E+01 -0.25629934043E+03  0.27720874996E+03  0.00000000000E+00 0.  1.
<mgrwt>
<rscale>  0 0.17584716E+04</rscale>
<asrwt>0</asrwt>
<pdfrwt beam="1">  1        2 0.15021740E+00 0.17584716E+04</pdfrwt>
<pdfrwt beam="2">  1       -2 0.12180463E+00 0.17584716E+04</pdfrwt>
<totfact> 0.12643188E+01</totfact>
</mgrwt>
</event>
<event>
12    1  0.1114484E-007  0.1496802E+04  0.7818608E-02  0.8886582E-01
          1   -1    0    0  501    0  0.00000000000E+00  0.00000000000E+00  0.30176670483E+03  0.30176670483E+03  0.00000000000E+00 0. -1.
         -1   -1    0    0    0  501 -0.00000000000E+00 -0.00000000000E+00 -0.18560842256E+04  0.18560842256E+04  0.00000000000E+00 0.  1.
         23    2    1    2    0    0  0.39947389585E+03 -0.13623426981E+03 -0.19350912452E+03  0.47321837091E+03  0.91382030842E+02 0.  0.
        254    2    1    2    0    0 -0.39947389585E+03  0.13623426981E+03 -0.13608083963E+04  0.16846325595E+04  0.89891501241E+03 0.  0.
        -24    2    4    4    0    0  0.22269141916E+03 -0.31264947609E+00 -0.79336737936E+03  0.82793786163E+03  0.80360053271E+02 0.  0.
         24    2    4    4    0    0 -0.62216531501E+03  0.13654691928E+03 -0.56744101690E+03  0.85669469790E+03  0.78751237291E+02 0.  0.
         11    1    3    3    0    0 -0.35691139427E+01 -0.72071667749E+01 -0.41017626345E+00  0.80529542296E+01  0.00000000000E+00 0.  1.
        -11    1    3    3    0    0  0.40304300979E+03 -0.12902710303E+03 -0.19309894825E+03  0.46516541668E+03  0.00000000000E+00 0. -1.
          4    1    6    6  502    0 -0.33038484500E+03  0.79823033252E+02 -0.35400311332E+03  0.49075866439E+03  0.00000000000E+00 0. -1.
          3    1    5    5  503    0  0.22183198937E+03 -0.12276636663E+02 -0.71694720142E+03  0.75058206542E+03  0.00000000000E+00 0. -1.
         -4    1    5    5    0  503  0.85942978782E+00  0.11963987186E+02 -0.76420177946E+02  0.77355796204E+02  0.00000000000E+00 0.  1.
         -3    1    6    6    0  502 -0.29178047002E+03  0.56723886032E+02 -0.21343790358E+03  0.36593603350E+03  0.00000000000E+00 0.  1.
<mgrwt>
<rscale>  0 0.14968025E+04</rscale>
<asrwt>0</asrwt>
<pdfrwt beam="1">  1        1 0.46425647E-01 0.14968025E+04</pdfrwt>
<pdfrwt beam="2">  1       -1 0.28555142E+00 0.14968025E+04</pdfrwt>
<totfact> 0.34559281E+00</totfact>
</mgrwt>
</event>
<event>
12    1  0.1114484E-007  0.2072445E+04  0.7818608E-02  0.8573479E-01
          1   -1    0    0  501    0  0.00000000000E+00  0.00000000000E+00  0.13186652275E+04  0.13186652275E+04  0.00000000000E+00 0. -1.
         -1   -1    0    0    0  501 -0.00000000000E+00 -0.00000000000E+00 -0.81427596194E+03  0.81427596194E+03  0.00000000000E+00 0.  1.
         23    2    1    2    0    0  0.73713821258E+03 -0.38840491703E+03  0.17378721943E+03  0.85613074845E+03  0.92340331337E+02 0.  0.
        254    2    1    2    0    0 -0.73713821258E+03  0.38840491703E+03  0.33060204612E+03  0.12768104410E+04  0.90923927833E+03 0.  0.
        -24    2    4    4    0    0 -0.86394058717E+03  0.24893618608E+03  0.17613135558E+02  0.90280930631E+03  0.79949097007E+02 0.  0.
         24    2    4    4    0    0  0.12680237460E+03  0.13946873095E+03  0.31298891056E+03  0.37400113466E+03  0.79902574921E+02 0.  0.
         11    1    3    3    0    0  0.70968716570E+03 -0.38467867642E+03  0.18146583622E+03  0.82738347032E+03  0.00000000000E+00 0. -1.
        -11    1    3    3    0    0  0.27451046880E+02 -0.37262406085E+01 -0.76786167929E+01  0.28747278127E+02  0.00000000000E+00 0.  1.
          4    1    6    6  502    0  0.59086697165E+02  0.11509947971E+03  0.23215581771E+03  0.26577330887E+03  0.00000000000E+00 0. -1.
          1    1    5    5  503    0 -0.42504969619E+03  0.10868122384E+03 -0.29115680556E+02  0.43968918056E+03  0.00000000000E+00 0. -1.
         -2    1    5    5    0  503 -0.43889089098E+03  0.14025496224E+03  0.46728816114E+02  0.46312012575E+03  0.00000000000E+00 0.  1.
         -3    1    6    6    0  502  0.67715677431E+02  0.24369251244E+02  0.80833092846E+02  0.10822782579E+03  0.00000000000E+00 0.  1.
<mgrwt>
<rscale>  0 0.20724453E+04</rscale>
<asrwt>0</asrwt>
<pdfrwt beam="1">  1        1 0.20287157E+00 0.20724453E+04</pdfrwt>
<pdfrwt beam="2">  1       -1 0.12527323E+00 0.20724453E+04</pdfrwt>
<totfact> 0.45012957E+00</totfact>
</mgrwt>
</event>
<event>
12    1  0.1114484E-007  0.1545433E+04  0.7818608E-02  0.8854790E-01
          2   -1    0    0  501    0  0.00000000000E+00  0.00000000000E+00  0.47730267388E+03  0.47730267388E+03  0.00000000000E+00 0. -1.
         -2   -1    0    0    0  501 -0.00000000000E+00 -0.00000000000E+00 -0.12509682576E+04  0.12509682576E+04  0.00000000000E+00 0.  1.
         23    2    1    2    0    0 -0.32894584441E+03  0.27345608703E+03  0.32357787016E+02  0.44740402949E+03  0.12704227305E+03 0.  0.
        254    2    1    2    0    0  0.32894584441E+03 -0.27345608703E+03 -0.80602337076E+03  0.12808669020E+04  0.89886747988E+03 0.  0.
        -24    2    4    4    0    0  0.17233546314E+03 -0.55735423728E+03 -0.73171132508E+03  0.93890863610E+03  0.76188621386E+02 0.  0.
         24    2    4    4    0    0  0.15661038127E+03  0.28389815025E+03 -0.74312045677E+02  0.34195826591E+03  0.79298198317E+02 0.  0.
         13    1    3    3    0    0 -0.76292652275E+02  0.45700487652E+02 -0.43332641516E+02  0.98928363898E+02  0.00000000000E+00 0.  1.
        -13    1    3    3    0    0 -0.25265319213E+03  0.22775559937E+03  0.75690428532E+02  0.34847566560E+03  0.00000000000E+00 0. -1.
          4    1    6    6  502    0  0.86393198576E+01  0.68236062816E+02 -0.35968829264E+02  0.77618005610E+02  0.00000000000E+00 0. -1.
          3    1    5    5  503    0  0.74383114287E+02 -0.13515595630E+03 -0.21202199124E+03  0.26220851432E+03  0.00000000000E+00 0. -1.
         -4    1    5    5    0  503  0.97952348848E+02 -0.42219828098E+03 -0.51968933384E+03  0.67670012178E+03  0.00000000000E+00 0.  1.
         -3    1    6    6    0  502  0.14797106141E+03  0.21566208744E+03 -0.38343216413E+02  0.26434026030E+03  0.00000000000E+00 0.  1.
<mgrwt>
<rscale>  0 0.15454326E+04</rscale>
<asrwt>0</asrwt>
<pdfrwt beam="1">  1        2 0.73431181E-01 0.15454326E+04</pdfrwt>
<pdfrwt beam="2">  1       -2 0.19245666E+00 0.15454326E+04</pdfrwt>
<totfact> 0.93292085E+00</totfact>
</mgrwt>
</event>
<event>
12    1  0.1114484E-007  0.1306353E+04  0.7818608E-02  0.9024543E-01
         -3   -1    0    0    0  501 -0.00000000000E+00  0.00000000000E+00  0.52031714234E+03  0.52031714234E+03  0.00000000000E+00 0.  1.
          3   -1    0    0  501    0  0.00000000000E+00 -0.00000000000E+00 -0.81995997176E+03  0.81995997176E+03  0.00000000000E+00 0. -1.
         23    2    1    2    0    0 -0.10972493421E+03  0.57950638210E+02 -0.39650276466E+03  0.42539081285E+03  0.91351319724E+02 0.  0.
        254    2    1    2    0    0  0.10972493421E+03 -0.57950638210E+02  0.96859935243E+02  0.91488630126E+03  0.90124206488E+03 0.  0.
        -24    2    4    4    0    0 -0.27765373033E+03  0.12249649044E+03  0.30035317787E+03  0.43475969473E+03  0.81896132805E+02 0.  0.
         24    2    4    4    0    0  0.38737866454E+03 -0.18044712865E+03 -0.20349324263E+03  0.48012660653E+03  0.80552234716E+02 0.  0.
         11    1    3    3    0    0 -0.10021728927E+03  0.54723686604E+02 -0.21353214878E+03  0.24214492666E+03  0.00000000000E+00 0.  1.
        -11    1    3    3    0    0 -0.95076449406E+01  0.32269516058E+01 -0.18297061589E+03  0.18324588619E+03  0.00000000000E+00 0. -1.
          2    1    6    6  502    0  0.37347859447E+02  0.49042608362E+01 -0.83334716386E+01  0.38579283679E+02  0.00000000000E+00 0. -1.
          1    1    5    5  503    0 -0.27423129833E+02 -0.11755456736E+02  0.21575772736E+02  0.36820276779E+02  0.00000000000E+00 0. -1.
         -2    1    5    5    0  503 -0.25023060050E+03  0.13425194718E+03  0.27877740514E+03  0.39793941795E+03  0.00000000000E+00 0.  1.
         -1    1    6    6    0  502  0.35003080509E+03 -0.18535138949E+03 -0.19515977099E+03  0.44154732285E+03  0.00000000000E+00 0.  1.
<mgrwt>
<rscale>  0 0.13063525E+04</rscale>
<asrwt>0</asrwt>
<pdfrwt beam="1">  1        3 0.12614769E+00 0.13063525E+04</pdfrwt>
<pdfrwt beam="2">  1       -3 0.80048791E-01 0.13063525E+04</pdfrwt>
<totfact> 0.18686071E+00</totfact>
</mgrwt>
</event>
<event>
12    1  0.1114484E-007  0.2210151E+04  0.7818608E-02  0.8514215E-01
          1   -1    0    0  501    0  0.00000000000E+00  0.00000000000E+00  0.49201277048E+03  0.49201277048E+03  0.00000000000E+00 0. -1.
         -1   -1    0    0    0  501 -0.00000000000E+00 -0.00000000000E+00 -0.24820319036E+04  0.24820319036E+04  0.00000000000E+00 0.  1.
         23    2    1    2    0    0  0.71233422921E+03 -0.44412243152E+03 -0.13424615770E+04  0.15859459497E+04  0.91414885196E+02 0.  0.
        254    2    1    2    0    0 -0.71233422921E+03  0.44412243152E+03 -0.64755755610E+03  0.13880987244E+04  0.89600362271E+03 0.  0.
        -24    2    4    4    0    0 -0.90111993666E+03  0.44166300716E+03 -0.61682016759E+03  0.11807027611E+04  0.80675515364E+02 0.  0.
         24    2    4    4    0    0  0.18878570745E+03  0.24594243578E+01 -0.30737388510E+02  0.20739596330E+03  0.80138670037E+02 0.  0.
         13    1    3    3    0    0  0.64577277335E+03 -0.37608760661E+03 -0.11544691030E+04  0.13752320795E+04  0.00000000000E+00 0.  1.
        -13    1    3    3    0    0  0.66561455865E+02 -0.68034824908E+02 -0.18799247397E+03  0.21071387016E+03  0.00000000000E+00 0. -1.
          2    1    6    6  502    0  0.16016959369E+03 -0.22466565428E+01  0.63560959082E+01  0.16031140372E+03  0.00000000000E+00 0. -1.
          1    1    5    5  503    0 -0.89584577546E+03  0.43154516756E+03 -0.61489708623E+03  0.11691318624E+04  0.00000000000E+00 0. -1.
         -2    1    5    5    0  503 -0.52741612025E+01  0.10117839600E+02 -0.19230813642E+01  0.11570898690E+02  0.00000000000E+00 0.  1.
         -1    1    6    6    0  502  0.28616113755E+02  0.47060809006E+01 -0.37093484418E+02  0.47084559572E+02  0.00000000000E+00 0.  1.
<mgrwt>
<rscale>  0 0.22101506E+04</rscale>
<asrwt>0</asrwt>
<pdfrwt beam="1">  1        1 0.75694273E-01 0.22101506E+04</pdfrwt>
<pdfrwt beam="2">  1       -1 0.38185106E+00 0.22101506E+04</pdfrwt>
<totfact> 0.39280840E-01</totfact>
</mgrwt>
</event>
<event>
12    1  0.1114484E-007  0.1625820E+04  0.7818608E-02  0.8804841E-01
         -1   -1    0    0    0  501 -0.00000000000E+00  0.00000000000E+00  0.12289604915E+04  0.12289604915E+04  0.00000000000E+00 0.  1.
          1   -1    0    0  501    0  0.00000000000E+00 -0.00000000000E+00 -0.53770887563E+03  0.53770887563E+03  0.00000000000E+00 0. -1.
         23    2    1    2    0    0  0.32737902939E+03 -0.25420541273E+03 -0.16603036583E+03  0.45567749454E+03  0.90986130312E+02 0.  0.
        254    2    1    2    0    0 -0.32737902939E+03  0.25420541273E+03  0.85728198169E+03  0.13109918726E+04  0.90109370937E+03 0.  0.
        -24    2    4    4    0    0  0.13863109803E+03 -0.22555644864E+03  0.92341293181E+02  0.29151790502E+03  0.79758897033E+02 0.  0.
         24    2    4    4    0    0 -0.46601012742E+03  0.47976186137E+03  0.76494068851E+03  0.10194739675E+04  0.82801153898E+02 0.  0.
         11    1    3    3    0    0  0.12113510949E+03 -0.46294240017E+02 -0.31775732750E+02  0.13351617356E+03  0.00000000000E+00 0.  1.
        -11    1    3    3    0    0  0.20624391990E+03 -0.20791117271E+03 -0.13425463308E+03  0.32216132098E+03  0.00000000000E+00 0. -1.
          2    1    6    6  502    0 -0.50265030276E+02  0.51231545819E+02  0.12584997642E+03  0.14487740031E+03  0.00000000000E+00 0. -1.
          1    1    5    5  503    0  0.11266786779E+02 -0.36218527420E+02  0.44310927253E+02  0.58328213472E+02  0.00000000000E+00 0. -1.
         -2    1    5    5    0  503  0.12736431125E+03 -0.18933792123E+03  0.48030365927E+02  0.23318969155E+03  0.00000000000E+00 0.  1.
         -1    1    6    6    0  502 -0.41574509714E+03  0.42853031555E+03  0.63909071209E+03  0.87459656724E+03  0.00000000000E+00 0.  1.
<mgrwt>
<rscale>  0 0.16258204E+04</rscale>
<asrwt>0</asrwt>
<pdfrwt beam="1">  1        1 0.82724443E-01 0.16258204E+04</pdfrwt>
<pdfrwt beam="2">  1       -1 0.18907084E+00 0.16258204E+04</pdfrwt>
<totfact> 0.68772112E+00</totfact>
</mgrwt>
</event>
<event>
12    1  0.1114484E-007  0.1579188E+04  0.7818608E-02  0.8833437E-01
          1   -1    0    0  501    0  0.00000000000E+00  0.00000000000E+00  0.16601373303E+04  0.16601373303E+04  0.00000000000E+00 0. -1.
         -1   -1    0    0    0  501 -0.00000000000E+00 -0.00000000000E+00 -0.37554637830E+03  0.37554637830E+03  0.00000000000E+00 0.  1.
         23    2    1    2    0    0 -0.19303657712E+03 -0.25026973874E+03  0.97931590315E+03  0.10339831238E+04  0.10081368884E+03 0.  0.
        254    2    1    2    0    0  0.19303657712E+03  0.25026973874E+03  0.30527504883E+03  0.10017005848E+04  0.90017395203E+03 0.  0.
        -24    2    4    4    0    0  0.50386409326E+03 -0.50280322375E+02  0.13468967158E+03  0.53021292166E+03  0.81100550948E+02 0.  0.
         24    2    4    4    0    0 -0.31082751615E+03  0.30055006112E+03  0.17058537725E+03  0.47148766314E+03  0.79102222040E+02 0.  0.
         11    1    3    3    0    0 -0.48328034338E+02 -0.11743364499E+02  0.10397969142E+03  0.11526179654E+03  0.00000000000E+00 0.  1.
        -11    1    3    3    0    0 -0.14470854278E+03 -0.23852637424E+03  0.87533621173E+03  0.91872132724E+03  0.00000000000E+00 0. -1.
          2    1    6    6  502    0 -0.15303609182E+03  0.16954241240E+03  0.12871764972E+03  0.26216961752E+03  0.00000000000E+00 0. -1.
          3    1    5    5  503    0  0.48257450537E+03 -0.64624297732E+02  0.12414266159E+03  0.50245980289E+03  0.00000000000E+00 0. -1.
         -4    1    5    5    0  503  0.21289587888E+02  0.14343975357E+02  0.10547009991E+02  0.27753118766E+02  0.00000000000E+00 0.  1.
         -1    1    6    6    0  502 -0.15779142433E+03  0.13100764872E+03  0.41867727529E+02  0.20931804562E+03  0.00000000000E+00 0.  1.
<mgrwt>
<rscale>  0 0.15791878E+04</rscale>
<asrwt>0</asrwt>
<pdfrwt beam="1">  1        1 0.25540574E+00 0.15791878E+04</pdfrwt>
<pdfrwt beam="2">  1       -1 0.57776367E-01 0.15791878E+04</pdfrwt>
<totfact> 0.14801089E+01</totfact>
</mgrwt>
</event>
<event>
12    1  0.1114484E-007  0.1894757E+04  0.7818608E-02  0.8657471E-01
         -2   -1    0    0    0  501 -0.00000000000E+00  0.00000000000E+00  0.67011571603E+03  0.67011571603E+03  0.00000000000E+00 0.  1.
          2   -1    0    0  501    0  0.00000000000E+00 -0.00000000000E+00 -0.13393595985E+04  0.13393595985E+04  0.00000000000E+00 0. -1.
         23    2    1    2    0    0  0.16660200162E+03 -0.17224998317E+02 -0.10141919786E+04  0.10319546240E+04  0.91060689049E+02 0.  0.
        254    2    1    2    0    0 -0.16660200162E+03  0.17224998317E+02  0.34494809609E+03  0.97752069055E+03  0.89916882950E+03 0.  0.
        -24    2    4    4    0    0  0.13410047771E+03 -0.73300147946E+02  0.56167332679E+03  0.58773222596E+03  0.81218185113E+02 0.  0.
         24    2    4    4    0    0 -0.30070247933E+03  0.90525146263E+02 -0.21672523070E+03  0.38978846458E+03  0.79677087814E+02 0.  0.
         11    1    3    3    0    0  0.10009915582E+03 -0.19005463360E+02 -0.82778905290E+03  0.83403582941E+03  0.00000000000E+00 0. -1.
        -11    1    3    3    0    0  0.66502845796E+02  0.17804650434E+01 -0.18640292566E+03  0.19791879458E+03  0.00000000000E+00 0.  1.
          2    1    6    6  502    0 -0.17367678758E+03  0.28892643014E+02 -0.80492335122E+02  0.19359087627E+03  0.00000000000E+00 0. -1.
          3    1    5    5  503    0  0.13831514942E+02 -0.31943921904E+02  0.53063017847E+02  0.63461868987E+02  0.00000000000E+00 0. -1.
         -4    1    5    5    0  503  0.12026896276E+03 -0.41356226042E+02  0.50861030895E+03  0.52427035697E+03  0.00000000000E+00 0.  1.
         -1    1    6    6    0  502 -0.12702569175E+03  0.61632503249E+02 -0.13623289558E+03  0.19619758831E+03  0.00000000000E+00 0.  1.
<mgrwt>
<rscale>  0 0.18947569E+04</rscale>
<asrwt>0</asrwt>
<pdfrwt beam="1">  1        2 0.20605532E+00 0.18947569E+04</pdfrwt>
<pdfrwt beam="2">  1       -2 0.10309473E+00 0.18947569E+04</pdfrwt>
<totfact> 0.11288044E+01</totfact>
</mgrwt>
</event>
<event>
12    1  0.1114484E-007  0.1723732E+04  0.7818608E-02  0.8747944E-01
          2   -1    0    0  501    0  0.00000000000E+00  0.00000000000E+00  0.17109992870E+04  0.17109992870E+04  0.00000000000E+00 0. -1.
         -2   -1    0    0    0  501 -0.00000000000E+00 -0.00000000000E+00 -0.43413966249E+03  0.43413966249E+03  0.00000000000E+00 0.  1.
         23    2    1    2    0    0 -0.14663789518E+03 -0.59600098748E+03  0.58981192899E+03  0.85612407915E+03  0.91380949474E+02 0.  0.
        254    2    1    2    0    0  0.14663789518E+03  0.59600098748E+03  0.68704769553E+03  0.12890148704E+04  0.90155695920E+03 0.  0.
        -24    2    4    4    0    0 -0.25583827471E+03  0.38518542450E+03  0.68094330054E+03  0.82702944216E+03  0.80454245330E+02 0.  0.
         24    2    4    4    0    0  0.40247616989E+03  0.21081556298E+03  0.61043949868E+01  0.46198542820E+03  0.83444612190E+02 0.  0.
         11    1    3    3    0    0 -0.52974276743E+02 -0.10648223459E+03  0.81095865445E+02  0.14394887868E+03  0.00000000000E+00 0. -1.
        -11    1    3    3    0    0 -0.93663618441E+02 -0.48951875289E+03  0.50871606355E+03  0.71217520047E+03  0.00000000000E+00 0.  1.
          4    1    6    6  502    0  0.27892645689E+03  0.18721520322E+03  0.10940663423E+02  0.33610890911E+03  0.00000000000E+00 0. -1.
          1    1    5    5  503    0 -0.22034748108E+03  0.37012052901E+03  0.62152534004E+03  0.75619836467E+03  0.00000000000E+00 0. -1.
         -2    1    5    5    0  503 -0.35490793628E+02  0.15064895491E+02  0.59417960502E+02  0.70831077492E+02  0.00000000000E+00 0.  1.
         -3    1    6    6    0  502  0.12354971300E+03  0.23600359755E+02 -0.48362684363E+01  0.12587651908E+03  0.00000000000E+00 0.  1.
<mgrwt>
<rscale>  0 0.17237316E+04</rscale>
<asrwt>0</asrwt>
<pdfrwt beam="1">  1        2 0.26323066E+00 0.17237316E+04</pdfrwt>
<pdfrwt beam="2">  1       -2 0.66790718E-01 0.17237316E+04</pdfrwt>
<totfact> 0.18905685E+01</totfact>
</mgrwt>
</event>
<event>
12    1  0.1114484E-007  0.1680830E+04  0.7818608E-02  0.8772374E-01
          2   -1    0    0  501    0  0.00000000000E+00  0.00000000000E+00  0.48463145561E+03  0.48463145561E+03  0.00000000000E+00 0.  1.
         -2   -1    0    0    0  501 -0.00000000000E+00 -0.00000000000E+00 -0.14573910548E+04  0.14573910548E+04  0.00000000000E+00 0. -1.
         23    2    1    2    0    0  0.23286057176E+03 -0.47660659296E+03 -0.68778394417E+03  0.87311126160E+03  0.88874242323E+02 0.  0.
        254    2    1    2    0    0 -0.23286057176E+03  0.47660659296E+03 -0.28497565498E+03  0.10689112488E+04  0.88316603392E+03 0.  0.
        -24    2    4    4    0    0 -0.43978458858E+03 -0.25138960198E+01  0.40134035286E+02  0.44888126382E+03  0.80416691045E+02 0.  0.
         24    2    4    4    0    0  0.20692401682E+03  0.47912048898E+03 -0.32510969026E+03  0.62002998494E+03  0.79792730423E+02 0.  0.
         13    1    3    3    0    0  0.20949093183E+03 -0.40341287498E+03 -0.63048543649E+03  0.77726461635E+03  0.00000000000E+00 0.  1.
        -13    1    3    3    0    0  0.23369639932E+02 -0.73193717985E+02 -0.57298507683E+02  0.95846645250E+02  0.00000000000E+00 0. -1.
          2    1    6    6  502    0  0.16754584740E+03  0.42781708833E+03 -0.30797378259E+03  0.55312469011E+03  0.00000000000E+00 0. -1.
          3    1    5    5  503    0 -0.30899061900E+03  0.30629237020E+02  0.45638927939E+02  0.31384114538E+03  0.00000000000E+00 0. -1.
         -4    1    5    5    0  503 -0.13079396957E+03 -0.33143133039E+02 -0.55048926533E+01  0.13504011844E+03  0.00000000000E+00 0.  1.
         -1    1    6    6    0  502  0.39378169413E+02  0.51303400648E+02 -0.17135907677E+02  0.66905294830E+02  0.00000000000E+00 0.  1.
<mgrwt>
<rscale>  0 0.16808302E+04</rscale>
<asrwt>0</asrwt>
<pdfrwt beam="1">  1        2 0.74558686E-01 0.16808302E+04</pdfrwt>
<pdfrwt beam="2">  1       -2 0.22421401E+00 0.16808302E+04</pdfrwt>
<totfact> 0.56530796E+00</totfact>
</mgrwt>
</event>
<event>
12    1  0.1114484E-007  0.1808612E+04  0.7818608E-02  0.8701733E-01
         -1   -1    0    0    0  501 -0.00000000000E+00  0.00000000000E+00  0.78991972745E+03  0.78991972745E+03  0.00000000000E+00 0.  1.
          1   -1    0    0  501    0  0.00000000000E+00 -0.00000000000E+00 -0.10352560105E+04  0.10352560105E+04  0.00000000000E+00 0. -1.
         23    2    1    2    0    0  0.45492386579E+03 -0.11807082145E+03  0.39634820252E+03  0.62134554843E+03  0.89899668368E+02 0.  0.
        254    2    1    2    0    0 -0.45492386579E+03  0.11807082145E+03 -0.64168448557E+03  0.12038301895E+04  0.90363250475E+03 0.  0.
        -24    2    4    4    0    0 -0.16237903038E+03  0.42371250684E+03 -0.39209878110E+02  0.46330848196E+03  0.84959384129E+02 0.  0.
         24    2    4    4    0    0 -0.29254483541E+03 -0.30564168539E+03 -0.60247460746E+03  0.74052170756E+03  0.79983911922E+02 0.  0.
         13    1    3    3    0    0  0.13033132117E+03 -0.29800873407E+02  0.63086616296E+02  0.14783188590E+03  0.00000000000E+00 0.  1.
        -13    1    3    3    0    0  0.32459254462E+03 -0.88269948044E+02  0.33326158623E+03  0.47351366253E+03  0.00000000000E+00 0. -1.
          4    1    6    6  502    0 -0.38460609953E+00 -0.14408116597E+01  0.25723416799E+01  0.29733485851E+01  0.00000000000E+00 0. -1.
          3    1    5    5  503    0 -0.11089237101E+03  0.20312883222E+03 -0.49106735158E+02  0.23657960999E+03  0.00000000000E+00 0. -1.
         -4    1    5    5    0  503 -0.51486659375E+02  0.22058367463E+03  0.98968570487E+01  0.22672887197E+03  0.00000000000E+00 0.  1.
         -3    1    6    6    0  502 -0.29216022931E+03 -0.30420087373E+03 -0.60504694914E+03  0.73754835898E+03  0.00000000000E+00 0.  1.
<mgrwt>
<rscale>  0 0.18086118E+04</rscale>
<asrwt>0</asrwt>
<pdfrwt beam="1">  1        1 0.15927016E+00 0.18086118E+04</pdfrwt>
<pdfrwt beam="2">  1       -1 0.12152611E+00 0.18086118E+04</pdfrwt>
<totfact> 0.80398954E+00</totfact>
</mgrwt>
</event>
<event>
12    1  0.1114484E-007  0.3296396E+04  0.7818608E-02  0.8163813E-01
         -2   -1    0    0    0  501 -0.00000000000E+00  0.00000000000E+00  0.87101075583E+03  0.87101075583E+03  0.00000000000E+00 0.  1.
          2   -1    0    0  501    0  0.00000000000E+00 -0.00000000000E+00 -0.31188549609E+04  0.31188549609E+04  0.00000000000E+00 0. -1.
         23    2    1    2    0    0 -0.13981281649E+04 -0.60301299841E+03 -0.97062230008E+03  0.18080565235E+04  0.92594282462E+02 0.  0.
        254    2    1    2    0    0  0.13981281649E+04  0.60301299841E+03 -0.12772219050E+04  0.21818091933E+04  0.90033800289E+03 0.  0.
        -24    2    4    4    0    0  0.98853821034E+03  0.50422410976E+03 -0.35960374801E+03  0.11692666101E+04  0.80123677912E+02 0.  0.
         24    2    4    4    0    0  0.40958995453E+03  0.98788888652E+02 -0.91761815703E+03  0.10125425832E+04  0.75473341168E+02 0.  0.
         11    1    3    3    0    0 -0.94715508152E+03 -0.40229287589E+03 -0.60440952830E+03  0.11934207910E+04  0.00000000000E+00 0. -1.
        -11    1    3    3    0    0 -0.45097308335E+03 -0.20072012252E+03 -0.36621277178E+03  0.61463573253E+03  0.00000000000E+00 0.  1.
          2    1    6    6  502    0  0.28829148094E+03  0.87344926029E+02 -0.71872051703E+03  0.77929474250E+03  0.00000000000E+00 0. -1.
          1    1    5    5  503    0  0.93117553533E+03  0.46742502199E+03 -0.31772647270E+03  0.10892768887E+04  0.00000000000E+00 0. -1.
         -2    1    5    5    0  503  0.57362675007E+02  0.36799087772E+02 -0.41877275306E+02  0.79989721414E+02  0.00000000000E+00 0.  1.
         -1    1    6    6    0  502  0.12129847359E+03  0.11443962623E+02 -0.19889764000E+03  0.23324784066E+03  0.00000000000E+00 0.  1.
<mgrwt>
<rscale>  0 0.32963957E+04</rscale>
<asrwt>0</asrwt>
<pdfrwt beam="1">  1        2 0.47982385E+00 0.32963957E+04</pdfrwt>
<pdfrwt beam="2">  1       -2 0.13400165E+00 0.32963957E+04</pdfrwt>
<totfact> 0.49118594E-01</totfact>
</mgrwt>
</event>
<event>
12    1  0.1114484E-007  0.1650312E+04  0.7818608E-02  0.8790222E-01
          2   -1    0    0  501    0  0.00000000000E+00  0.00000000000E+00  0.69498632174E+03  0.69498632174E+03  0.00000000000E+00 0. -1.
         -2   -1    0    0    0  501 -0.00000000000E+00 -0.00000000000E+00 -0.97970592880E+03  0.97970592880E+03  0.00000000000E+00 0.  1.
         23    2    1    2    0    0  0.31821209618E+03  0.24418448675E+03 -0.51527288193E+03  0.65933273447E+03  0.91260671484E+02 0.  0.
        254    2    1    2    0    0 -0.31821209618E+03 -0.24418448675E+03  0.23055327487E+03  0.10153595161E+04  0.90383357572E+03 0.  0.
        -24    2    4    4    0    0 -0.44518216253E+03  0.11177872469E+03  0.37938729174E+03  0.60071067826E+03  0.78974430823E+02 0.  0.
         24    2    4    4    0    0  0.12697006634E+03 -0.35596321144E+03 -0.14883401687E+03  0.41464883781E+03  0.83371988552E+02 0.  0.
         13    1    3    3    0    0  0.25479520582E+03  0.20476082778E+03 -0.46836022072E+03  0.57114699496E+03  0.00000000000E+00 0.  1.
        -13    1    3    3    0    0  0.63416890367E+02  0.39423658972E+02 -0.46912661213E+02  0.88185739508E+02  0.00000000000E+00 0. -1.
          4    1    6    6  502    0 -0.12194353603E+02 -0.36495423008E+02 -0.17270607272E+02  0.42176913541E+02  0.00000000000E+00 0. -1.
          3    1    5    5  503    0 -0.33930482541E+03  0.58726374432E+02  0.25150697160E+03  0.42641799723E+03  0.00000000000E+00 0. -1.
         -4    1    5    5    0  503 -0.10587733712E+03  0.53052350257E+02  0.12788032014E+03  0.17429268103E+03  0.00000000000E+00 0.  1.
         -3    1    6    6    0  502  0.13916441995E+03 -0.31946778843E+03 -0.13156340960E+03  0.37247192427E+03  0.00000000000E+00 0.  1.
<mgrwt>
<rscale>  0 0.16503118E+04</rscale>
<asrwt>0</asrwt>
<pdfrwt beam="1">  1        2 0.10692097E+00 0.16503118E+04</pdfrwt>
<pdfrwt beam="2">  1       -2 0.15072399E+00 0.16503118E+04</pdfrwt>
<totfact> 0.11676900E+01</totfact>
</mgrwt>
</event>
<event>
12    1  0.1114484E-007  0.1830106E+04  0.7818608E-02  0.8690451E-01
         -1   -1    0    0    0  501 -0.00000000000E+00  0.00000000000E+00  0.58542746440E+03  0.58542746440E+03  0.00000000000E+00 0.  1.
          1   -1    0    0  501    0  0.00000000000E+00 -0.00000000000E+00 -0.14302746407E+04  0.14302746407E+04  0.00000000000E+00 0. -1.
         23    2    1    2    0    0  0.17367482589E+03 -0.36130618551E+03 -0.95309915155E+03  0.10381210943E+04  0.92694707536E+02 0.  0.
        254    2    1    2    0    0 -0.17367482589E+03  0.36130618551E+03  0.10825197527E+03  0.97758101083E+03  0.88500906083E+03 0.  0.
        -24    2    4    4    0    0 -0.31827283974E+03 -0.48624677588E+01 -0.27070523075E+03  0.42536200323E+03  0.79562979612E+02 0.  0.
         24    2    4    4    0    0  0.14459801385E+03  0.36616865327E+03  0.37895720602E+03  0.55221900760E+03  0.79681868188E+02 0.  0.
         13    1    3    3    0    0  0.16244737187E+03 -0.28054025238E+03 -0.82340710829E+03  0.88492443057E+03  0.00000000000E+00 0. -1.
        -13    1    3    3    0    0  0.11227454021E+02 -0.80765933135E+02 -0.12969204326E+03  0.15319666368E+03  0.00000000000E+00 0.  1.
          2    1    6    6  502    0  0.53954907897E+02  0.81305477094E+02  0.13385315663E+03  0.16564534474E+03  0.00000000000E+00 0. -1.
          3    1    5    5  503    0 -0.19667752467E+02 -0.16053009947E+02 -0.58231577544E+01  0.26046665462E+02  0.00000000000E+00 0. -1.
         -4    1    5    5    0  503 -0.29860508727E+03  0.11190542188E+02 -0.26488207300E+03  0.39931533776E+03  0.00000000000E+00 0.  1.
         -1    1    6    6    0  502  0.90643105949E+02  0.28486317618E+03  0.24510404938E+03  0.38657366287E+03  0.00000000000E+00 0.  1.
<mgrwt>
<rscale>  0 0.18301061E+04</rscale>
<asrwt>0</asrwt>
<pdfrwt beam="1">  1        1 0.22004225E+00 0.18301061E+04</pdfrwt>
<pdfrwt beam="2">  1       -1 0.90065764E-01 0.18301061E+04</pdfrwt>
<totfact> 0.83041558E+00</totfact>
</mgrwt>
</event>
<event>
12    1  0.1114484E-007  0.1338095E+04  0.7818608E-02  0.8999890E-01
         -2   -1    0    0    0  501 -0.00000000000E+00  0.00000000000E+00  0.18492569152E+03  0.18492569152E+03  0.00000000000E+00 0. -1.
          2   -1    0    0  501    0  0.00000000000E+00 -0.00000000000E+00 -0.24205631344E+04  0.24205631344E+04  0.00000000000E+00 0.  1.
         23    2    1    2    0    0 -0.16702559891E+03  0.25396661613E+03 -0.10534929001E+04  0.11002392875E+04  0.91008826078E+02 0.  0.
        254    2    1    2    0    0  0.16702559891E+03 -0.25396661613E+03 -0.11821445427E+04  0.15052495384E+04  0.88085972780E+03 0.  0.
        -24    2    4    4    0    0 -0.51774509331E+02  0.30891462055E+03 -0.36663822498E+03  0.48798130928E+03  0.74788552512E+02 0.  0.
         24    2    4    4    0    0  0.21880010824E+03 -0.56288123667E+03 -0.81550631776E+03  0.10172682291E+04  0.71241291825E+02 0.  0.
         13    1    3    3    0    0 -0.66089665494E+01  0.18287430688E+01 -0.11743185265E+03  0.11763189515E+03  0.00000000000E+00 0. -1.
        -13    1    3    3    0    0 -0.16041663236E+03  0.25213787306E+03 -0.93606104749E+03  0.98260739240E+03  0.00000000000E+00 0.  1.
          4    1    6    6  502    0  0.20752844984E+03 -0.46061908330E+03 -0.67928169766E+03  0.84655869388E+03  0.00000000000E+00 0. -1.
          3    1    5    5  503    0 -0.14478090503E+02  0.25806331722E+03 -0.28361939245E+03  0.38372679157E+03  0.00000000000E+00 0. -1.
         -4    1    5    5    0  503 -0.37296418828E+02  0.50851303330E+02 -0.83018832527E+02  0.10425451770E+03  0.00000000000E+00 0.  1.
         -3    1    6    6    0  502  0.11271658394E+02 -0.10226215337E+03 -0.13622462010E+03  0.17070953522E+03  0.00000000000E+00 0.  1.
<mgrwt>
<rscale>  0 0.13380946E+04</rscale>
<asrwt>0</asrwt>
<pdfrwt beam="1">  1        2 0.37239430E+00 0.13380946E+04</pdfrwt>
<pdfrwt beam="2">  1       -2 0.28450109E-01 0.13380946E+04</pdfrwt>
<totfact> 0.42960872E+01</totfact>
</mgrwt>
</event>
<event>
12    1  0.1114484E-007  0.1402803E+04  0.7818608E-02  0.8951792E-01
          1   -1    0    0  501    0  0.00000000000E+00  0.00000000000E+00  0.50321679453E+03  0.50321679453E+03  0.00000000000E+00 0. -1.
         -1   -1    0    0    0  501 -0.00000000000E+00 -0.00000000000E+00 -0.97763799669E+03  0.97763799669E+03  0.00000000000E+00 0.  1.
         23    2    1    2    0    0 -0.21873850785E+03  0.19783471815E+03  0.15330598635E+03  0.34469797640E+03  0.91262582484E+02 0.  0.
        254    2    1    2    0    0  0.21873850785E+03 -0.19783471815E+03 -0.62772718851E+03  0.11361568148E+04  0.89990320264E+03 0.  0.
        -24    2    4    4    0    0  0.38044611014E+01  0.12250580357E+03 -0.71785475235E+03  0.73256611160E+03  0.79470224411E+02 0.  0.
         24    2    4    4    0    0  0.21493404675E+03 -0.32034052172E+03  0.90127563835E+02  0.40359070321E+03  0.77121875265E+02 0.  0.
         13    1    3    3    0    0 -0.16318199378E+03  0.11905085336E+03  0.60441510385E+02  0.21084270193E+03  0.00000000000E+00 0. -1.
        -13    1    3    3    0    0 -0.55556514069E+02  0.78783864792E+02  0.92864475965E+02  0.13385527447E+03  0.00000000000E+00 0.  1.
          2    1    6    6  502    0  0.75571812606E+02 -0.85305023195E+02  0.59701178943E+02  0.12865565129E+03  0.00000000000E+00 0. -1.
          1    1    5    5  503    0  0.21692492845E+02  0.67359217289E+02 -0.55902355148E+03  0.56348483521E+03  0.00000000000E+00 0. -1.
         -2    1    5    5    0  503 -0.17888031743E+02  0.55146586286E+02 -0.15883120087E+03  0.16908127640E+03  0.00000000000E+00 0.  1.
         -1    1    6    6    0  502  0.13936223415E+03 -0.23503549853E+03  0.30426384891E+02  0.27493505192E+03  0.00000000000E+00 0.  1.
<mgrwt>
<rscale>  0 0.14028027E+04</rscale>
<asrwt>0</asrwt>
<pdfrwt beam="1">  1        1 0.77417969E-01 0.14028027E+04</pdfrwt>
<pdfrwt beam="2">  1       -1 0.15040584E+00 0.14028027E+04</pdfrwt>
<totfact> 0.14834206E+01</totfact>
</mgrwt>
</event>
<event>
12    1  0.1114484E-007  0.2984301E+04  0.7818608E-02  0.8248228E-01
         -2   -1    0    0    0  501 -0.00000000000E+00  0.00000000000E+00  0.16138254486E+04  0.16138254486E+04  0.00000000000E+00 0.  1.
          2   -1    0    0  501    0  0.00000000000E+00 -0.00000000000E+00 -0.13796490218E+04  0.13796490218E+04  0.00000000000E+00 0. -1.
         23    2    1    2    0    0 -0.47135613038E+03 -0.76172347206E+03 -0.90957015513E+03  0.12799332287E+04  0.92260247907E+02 0.  0.
        254    2    1    2    0    0  0.47135613038E+03  0.76172347206E+03  0.11437465819E+04  0.17135412416E+04  0.90866280517E+03 0.  0.
        -24    2    4    4    0    0 -0.10898182454E+03  0.26001186097E+03 -0.42575661010E+02  0.29813106550E+03  0.87099020554E+02 0.  0.
         24    2    4    4    0    0  0.58033795492E+03  0.50171161109E+03  0.11863222430E+04  0.14154101761E+04  0.86711129178E+02 0.  0.
         11    1    3    3    0    0 -0.11926550050E+03 -0.16393543847E+03 -0.15735253244E+03  0.25662990290E+03  0.00000000000E+00 0.  1.
        -11    1    3    3    0    0 -0.35209062988E+03 -0.59778803359E+03 -0.75221762269E+03  0.10233033258E+04  0.00000000000E+00 0. -1.
          2    1    6    6  502    0  0.15734498539E+02  0.38573733208E+02  0.58738796259E+02  0.72012176219E+02  0.00000000000E+00 0. -1.
          3    1    5    5  503    0 -0.44607190559E+02  0.30776980583E+02  0.78151126458E+01  0.54754908173E+02  0.00000000000E+00 0. -1.
         -4    1    5    5    0  503 -0.64374633980E+02  0.22923488039E+03 -0.50390773656E+02  0.24337615733E+03  0.00000000000E+00 0.  1.
         -1    1    6    6    0  502  0.56460345638E+03  0.46313787788E+03  0.11275834467E+04  0.13433979999E+04  0.00000000000E+00 0.  1.
<mgrwt>
<rscale>  0 0.29843007E+04</rscale>
<asrwt>0</asrwt>
<pdfrwt beam="1">  1        2 0.21225369E+00 0.29843007E+04</pdfrwt>
<pdfrwt beam="2">  1       -2 0.24828084E+00 0.29843007E+04</pdfrwt>
<totfact> 0.83899509E-01</totfact>
</mgrwt>
</event>
<event>
12    1  0.1114484E-007  0.1279310E+04  0.7818608E-02  0.9046135E-01
         -2   -1    0    0    0  501 -0.00000000000E+00  0.00000000000E+00  0.19609923817E+03  0.19609923817E+03  0.00000000000E+00 0.  1.
          2   -1    0    0  501    0  0.00000000000E+00 -0.00000000000E+00 -0.20864867647E+04  0.20864867647E+04  0.00000000000E+00 0. -1.
         23    2    1    2    0    0 -0.29906454361E+03 -0.94285734893E+02 -0.39307901257E+03  0.51060848686E+03  0.88772268683E+02 0.  0.
        254    2    1    2    0    0  0.29906454361E+03  0.94285734893E+02 -0.14973085140E+04  0.17719775160E+04  0.89422711334E+03 0.  0.
        -24    2    4    4    0    0  0.13840366159E+03 -0.22466477807E+03 -0.13489006421E+04  0.13767625460E+04  0.79450171421E+02 0.  0.
         24    2    4    4    0    0  0.16066088201E+03  0.31895051297E+03 -0.14840787191E+03  0.39521497006E+03  0.81416382800E+02 0.  0.
         11    1    3    3    0    0 -0.22763782353E+03 -0.10624213623E+03 -0.27847092661E+03  0.37503656779E+03  0.00000000000E+00 0. -1.
        -11    1    3    3    0    0 -0.71426720078E+02  0.11956401341E+02 -0.11460808595E+03  0.13557191907E+03  0.00000000000E+00 0.  1.
          2    1    6    6  502    0  0.81082979372E+02  0.22329676738E+03 -0.12557399441E+03  0.26870936705E+03  0.00000000000E+00 0. -1.
          3    1    5    5  503    0  0.81634364786E+01 -0.81561977606E+01 -0.20343877997E+03  0.20376580295E+03  0.00000000000E+00 0. -1.
         -4    1    5    5    0  503  0.13024022511E+03 -0.21650858031E+03 -0.11454618621E+04  0.11729967430E+04  0.00000000000E+00 0.  1.
         -1    1    6    6    0  502  0.79577902640E+02  0.95653745585E+02 -0.22833877497E+02  0.12650560302E+03  0.00000000000E+00 0.  1.
<mgrwt>
<rscale>  0 0.12793099E+04</rscale>
<asrwt>0</asrwt>
<pdfrwt beam="1">  1        2 0.32099797E+00 0.12793099E+04</pdfrwt>
<pdfrwt beam="2">  1       -2 0.30169113E-01 0.12793099E+04</pdfrwt>
<totfact> 0.59638785E+01</totfact>
</mgrwt>
</event>
<event>
12    1  0.1114484E-007  0.2384776E+04  0.7818608E-02  0.8445225E-01
          1   -1    0    0  501    0  0.00000000000E+00  0.00000000000E+00  0.12970630467E+04  0.12970630467E+04  0.00000000000E+00 0. -1.
         -1   -1    0    0    0  501 -0.00000000000E+00 -0.00000000000E+00 -0.10961602312E+04  0.10961602312E+04  0.00000000000E+00 0.  1.
         23    2    1    2    0    0  0.75661657223E+02 -0.99284513958E+03 -0.13074956763E+03  0.10095052144E+04  0.10266046379E+03 0.  0.
        254    2    1    2    0    0 -0.75661657223E+02  0.99284513958E+03  0.33165238314E+03  0.13837180635E+04  0.90178501788E+03 0.  0.
        -24    2    4    4    0    0  0.30212953579E+03  0.47448502177E+02  0.20404281967E+02  0.31617628864E+03  0.77572508163E+02 0.  0.
         24    2    4    4    0    0 -0.37779119301E+03  0.94539663741E+03  0.31124810117E+03  0.10675417749E+04  0.79177478243E+02 0.  0.
         11    1    3    3    0    0 -0.31048606175E+01 -0.18542649301E+02  0.11026555854E+02  0.21795755013E+02  0.00000000000E+00 0. -1.
        -11    1    3    3    0    0  0.78766517840E+02 -0.97430249028E+03 -0.14177612348E+03  0.98770945935E+03  0.00000000000E+00 0.  1.
          4    1    6    6  502    0 -0.17245278140E+03  0.49894656847E+03  0.19322545586E+03  0.56215986765E+03  0.00000000000E+00 0. -1.
          3    1    5    5  503    0  0.27638120579E+02 -0.16184463582E+02 -0.78986739592E+01  0.32987749558E+02  0.00000000000E+00 0. -1.
         -4    1    5    5    0  503  0.27449141521E+03  0.63632965759E+02  0.28302955926E+02  0.28318853909E+03  0.00000000000E+00 0.  1.
         -3    1    6    6    0  502 -0.20533841161E+03  0.44645006894E+03  0.11802264531E+03  0.50538190722E+03  0.00000000000E+00 0.  1.
<mgrwt>
<rscale>  0 0.23847758E+04</rscale>
<asrwt>0</asrwt>
<pdfrwt beam="1">  1        1 0.19954816E+00 0.23847758E+04</pdfrwt>
<pdfrwt beam="2">  1       -1 0.16864003E+00 0.23847758E+04</pdfrwt>
<totfact> 0.20539181E+00</totfact>
</mgrwt>
</event>
<event>
12    1  0.1114484E-007  0.2763793E+04  0.7818608E-02  0.8314598E-01
         -1   -1    0    0    0  501 -0.00000000000E+00  0.00000000000E+00  0.76561869867E+03  0.76561869867E+03  0.00000000000E+00 0.  1.
          1   -1    0    0  501    0  0.00000000000E+00 -0.00000000000E+00 -0.24942407064E+04  0.24942407064E+04  0.00000000000E+00 0. -1.
         23    2    1    2    0    0 -0.52819770444E+03  0.10688972505E+04 -0.38379957103E+03  0.12559765360E+04  0.92955910163E+02 0.  0.
        254    2    1    2    0    0  0.52819770444E+03 -0.10688972505E+04 -0.13448224367E+04  0.20038828690E+04  0.88626464411E+03 0.  0.
        -24    2    4    4    0    0  0.63659749380E+03 -0.11570007271E+04 -0.11678359464E+04  0.17647950147E+04  0.82180255346E+02 0.  0.
         24    2    4    4    0    0 -0.10839978936E+03  0.88103476619E+02 -0.17698649024E+03  0.23908785433E+03  0.79536453485E+02 0.  0.
         11    1    3    3    0    0 -0.39690578938E+03  0.86471860453E+03 -0.33237083767E+03  0.10078406840E+04  0.00000000000E+00 0.  1.
        -11    1    3    3    0    0 -0.13129191506E+03  0.20417864598E+03 -0.51428733359E+02  0.24813585201E+03  0.00000000000E+00 0. -1.
          2    1    6    6  502    0  0.12010006852E+02  0.13291636421E+02 -0.29558560938E+02  0.34563223056E+02  0.00000000000E+00 0. -1.
          1    1    5    5  503    0  0.38524990716E+03 -0.63105974601E+03 -0.68432160057E+03  0.10074472428E+04  0.00000000000E+00 0. -1.
         -2    1    5    5    0  503  0.25134758664E+03 -0.52594098112E+03 -0.48351434588E+03  0.75734777190E+03  0.00000000000E+00 0.  1.
         -3    1    6    6    0  502 -0.12040979621E+03  0.74811840198E+02 -0.14742792931E+03  0.20452463127E+03  0.00000000000E+00 0.  1.
<mgrwt>
<rscale>  0 0.27637926E+04</rscale>
<asrwt>0</asrwt>
<pdfrwt beam="1">  1        1 0.38372933E+00 0.27637926E+04</pdfrwt>
<pdfrwt beam="2">  1       -1 0.11778749E+00 0.27637926E+04</pdfrwt>
<totfact> 0.76891006E-01</totfact>
</mgrwt>
</event>
<event>
12    1  0.1114484E-007  0.1553776E+04  0.7818608E-02  0.8849460E-01
         -2   -1    0    0    0  501 -0.00000000000E+00  0.00000000000E+00  0.25173382705E+03  0.25173382705E+03  0.00000000000E+00 0.  1.
          2   -1    0    0  501    0  0.00000000000E+00 -0.00000000000E+00 -0.23975915011E+04  0.23975915011E+04  0.00000000000E+00 0. -1.
         23    2    1    2    0    0  0.48339121224E+03 -0.14101705810E+03 -0.54995803026E+03  0.75059546276E+03  0.85946721432E+02 0.  0.
        254    2    1    2    0    0 -0.48339121224E+03  0.14101705810E+03 -0.15958996438E+04  0.18987298654E+04  0.89706552375E+03 0.  0.
        -24    2    4    4    0    0 -0.73413775166E+03  0.19399205922E+02 -0.11724540739E+04  0.13855717627E+04  0.76328150952E+02 0.  0.
         24    2    4    4    0    0  0.25074653942E+03  0.12161785218E+03 -0.42344556993E+03  0.51315810270E+03  0.79751856854E+02 0.  0.
         13    1    3    3    0    0  0.81846661683E+02 -0.24079166937E+02 -0.14621799453E+03  0.16928787386E+03  0.00000000000E+00 0. -1.
        -13    1    3    3    0    0  0.40154455056E+03 -0.11693789116E+03 -0.40374003573E+03  0.58130758891E+03  0.00000000000E+00 0.  1.
          4    1    6    6  502    0  0.12598128066E+02 -0.89736832334E+01 -0.43100778413E+02  0.45792105448E+02  0.00000000000E+00 0. -1.
          3    1    5    5  503    0 -0.42919381926E+03  0.36404711408E+02 -0.73806019564E+03  0.85455572662E+03  0.00000000000E+00 0. -1.
         -4    1    5    5    0  503 -0.30494393240E+03 -0.17005505486E+02 -0.43439387823E+03  0.53101603608E+03  0.00000000000E+00 0.  1.
         -3    1    6    6    0  502  0.23814841136E+03  0.13059153541E+03 -0.38034479152E+03  0.46736599725E+03  0.00000000000E+00 0.  1.
<mgrwt>
<rscale>  0 0.15537759E+04</rscale>
<asrwt>0</asrwt>
<pdfrwt beam="1">  1        2 0.36886022E+00 0.15537759E+04</pdfrwt>
<pdfrwt beam="2">  1       -2 0.38728282E-01 0.15537759E+04</pdfrwt>
<totfact> 0.24221694E+01</totfact>
</mgrwt>
</event>
<event>
12    1  0.1114484E-007  0.2764010E+04  0.7818608E-02  0.8314530E-01
         -1   -1    0    0    0  501 -0.00000000000E+00  0.00000000000E+00  0.87260775227E+03  0.87260775227E+03  0.00000000000E+00 0.  1.
          1   -1    0    0  501    0  0.00000000000E+00 -0.00000000000E+00 -0.21887698628E+04  0.21887698628E+04  0.00000000000E+00 0. -1.
         23    2    1    2    0    0 -0.10951713072E+04  0.31609685788E+03 -0.11066748483E+04  0.15915634131E+04  0.95012959334E+02 0.  0.
        254    2    1    2    0    0  0.10951713072E+04 -0.31609685788E+03 -0.20948726223E+03  0.14698142020E+04  0.90396430214E+03 0.  0.
        -24    2    4    4    0    0  0.47095459026E+03 -0.51987348151E+03 -0.35819334177E+03  0.79171817575E+03  0.80302782362E+02 0.  0.
         24    2    4    4    0    0  0.62421671694E+03  0.20377662364E+03  0.14870607954E+03  0.67809602621E+03  0.80804087834E+02 0.  0.
         11    1    3    3    0    0 -0.46679587257E+02  0.32760096501E+02 -0.43664637259E+02  0.71824844839E+02  0.00000000000E+00 0.  1.
        -11    1    3    3    0    0 -0.10484917199E+04  0.28333676138E+03 -0.10630102110E+04  0.15197385683E+04  0.00000000000E+00 0. -1.
          4    1    6    6  502    0  0.10456072230E+03  0.46021078002E+01  0.14894621707E+02  0.10571647838E+03  0.00000000000E+00 0. -1.
          1    1    5    5  503    0  0.99595483279E+02 -0.87446077601E+02 -0.99663165448E+02  0.16582769167E+03  0.00000000000E+00 0. -1.
         -2    1    5    5    0  503  0.37135910698E+03 -0.43242740391E+03 -0.25853017632E+03  0.62589048408E+03  0.00000000000E+00 0.  1.
         -3    1    6    6    0  502  0.51965599464E+03  0.19917451584E+03  0.13381145783E+03  0.57237954783E+03  0.00000000000E+00 0.  1.
<mgrwt>
<rscale>  0 0.27640098E+04</rscale>
<asrwt>0</asrwt>
<pdfrwt beam="1">  1        1 0.33673382E+00 0.27640098E+04</pdfrwt>
<pdfrwt beam="2">  1       -1 0.13424735E+00 0.27640098E+04</pdfrwt>
<totfact> 0.89956075E-01</totfact>
</mgrwt>
</event>
<event>
12    1  0.1114484E-007  0.3203855E+04  0.7818608E-02  0.8187800E-01
         -2   -1    0    0    0  501 -0.00000000000E+00  0.00000000000E+00  0.93677368900E+03  0.93677368900E+03  0.00000000000E+00 0.  1.
          2   -1    0    0  501    0  0.00000000000E+00 -0.00000000000E+00 -0.27393714807E+04  0.27393714807E+04  0.00000000000E+00 0. -1.
         23    2    1    2    0    0 -0.11474117130E+04  0.91552445692E+02  0.22567163610E+03  0.11764613847E+04  0.90543983171E+02 0.  0.
        254    2    1    2    0    0  0.11474117130E+04 -0.91552445692E+02 -0.20282694278E+04  0.24996837850E+04  0.89978145350E+03 0.  0.
        -24    2    4    4    0    0  0.12763960269E+04 -0.23291585575E+02 -0.18982051667E+04  0.22889333029E+04  0.79394552080E+02 0.  0.
         24    2    4    4    0    0 -0.12898431389E+03 -0.68260860117E+02 -0.13006426110E+03  0.21075048214E+03  0.78756304198E+02 0.  0.
         11    1    3    3    0    0 -0.58811391412E+02 -0.91899408261E+01  0.26750407161E+02  0.65259628067E+02  0.00000000000E+00 0. -1.
        -11    1    3    3    0    0 -0.10886003215E+04  0.10074238652E+03  0.19892122894E+03  0.11112017566E+04  0.00000000000E+00 0.  1.
          2    1    6    6  502    0 -0.10708309124E+02 -0.41842089345E+02 -0.22451755727E+02  0.48677609435E+02  0.00000000000E+00 0. -1.
          3    1    5    5  503    0  0.31876634888E+03 -0.40056218026E+02 -0.48306149090E+03  0.58014212894E+03  0.00000000000E+00 0. -1.
         -4    1    5    5    0  503  0.95762967797E+03  0.16764632450E+02 -0.14151436758E+04  0.17087911739E+04  0.00000000000E+00 0.  1.
         -1    1    6    6    0  502 -0.11827600477E+03 -0.26418770772E+02 -0.10761250537E+03  0.16207287270E+03  0.00000000000E+00 0.  1.
<mgrwt>
<rscale>  0 0.32038546E+04</rscale>
<asrwt>0</asrwt>
<pdfrwt beam="1">  1        2 0.42144176E+00 0.32038546E+04</pdfrwt>
<pdfrwt beam="2">  1       -2 0.14411903E+00 0.32038546E+04</pdfrwt>
<totfact> 0.70472980E-01</totfact>
</mgrwt>
</event>
<event>
12    1  0.1114484E-007  0.1937713E+04  0.7818608E-02  0.8636309E-01
          1   -1    0    0  501    0  0.00000000000E+00  0.00000000000E+00  0.75282086329E+03  0.75282086329E+03  0.00000000000E+00 0. -1.
         -1   -1    0    0    0  501 -0.00000000000E+00 -0.00000000000E+00 -0.12468868735E+04  0.12468868735E+04  0.00000000000E+00 0.  1.
         23    2    1    2    0    0  0.58154289702E+03 -0.48537035923E+03 -0.18216899658E+03  0.78421436458E+03  0.89610822956E+02 0.  0.
        254    2    1    2    0    0 -0.58154289702E+03  0.48537035923E+03 -0.31189701362E+03  0.12154933722E+04  0.89797987956E+03 0.  0.
        -24    2    4    4    0    0 -0.70004007643E+03  0.55136369760E+03 -0.32864119984E+02  0.89535480812E+03  0.80759806874E+02 0.  0.
         24    2    4    4    0    0  0.11849717941E+03 -0.65993338363E+02 -0.27903289364E+03  0.32013856409E+03  0.78947085129E+02 0.  0.
         11    1    3    3    0    0  0.54105475906E+03 -0.42182236904E+03 -0.14988375448E+03  0.70223892173E+03  0.00000000000E+00 0.  1.
        -11    1    3    3    0    0  0.40488137957E+02 -0.63547990192E+02 -0.32285242100E+02  0.81975442848E+02  0.00000000000E+00 0. -1.
          4    1    6    6  502    0  0.68782181545E+01 -0.41075813813E+01 -0.99733162424E+02  0.10005441418E+03  0.00000000000E+00 0. -1.
          3    1    5    5  503    0 -0.31189562225E+03  0.21601039082E+03  0.18466991142E+02  0.37984259619E+03  0.00000000000E+00 0. -1.
         -4    1    5    5    0  503 -0.38814445418E+03  0.33535330678E+03 -0.51331111126E+02  0.51551221193E+03  0.00000000000E+00 0.  1.
         -3    1    6    6    0  502  0.11161896126E+03 -0.61885756982E+02 -0.17929973121E+03  0.22008414991E+03  0.00000000000E+00 0.  1.
<mgrwt>
<rscale>  0 0.19377125E+04</rscale>
<asrwt>0</asrwt>
<pdfrwt beam="1">  1        1 0.11581860E+00 0.19377125E+04</pdfrwt>
<pdfrwt beam="2">  1       -1 0.19182875E+00 0.19377125E+04</pdfrwt>
<totfact> 0.38953344E+00</totfact>
</mgrwt>
</event>
<event>
12    1  0.1114484E-007  0.3327364E+04  0.7818608E-02  0.8155967E-01
         -2   -1    0    0    0  501 -0.00000000000E+00  0.00000000000E+00  0.69899801097E+03  0.69899801097E+03  0.00000000000E+00 0.  1.
          2   -1    0    0  501    0  0.00000000000E+00 -0.00000000000E+00 -0.39597216571E+04  0.39597216571E+04  0.00000000000E+00 0. -1.
         23    2    1    2    0    0 -0.16844398095E+03  0.18577769290E+03 -0.36401692416E+04  0.36499741252E+04  0.92694559412E+02 0.  0.
        254    2    1    2    0    0  0.16844398095E+03 -0.18577769290E+03  0.37944559544E+03  0.10087455429E+04  0.90038985138E+03 0.  0.
        -24    2    4    4    0    0 -0.20656296750E+03 -0.14077670142E+03  0.53213593063E+03  0.59319997926E+03  0.78938124637E+02 0.  0.
         24    2    4    4    0    0  0.37500694845E+03 -0.45000991480E+02 -0.15269033519E+03  0.41554556362E+03  0.81905288975E+02 0.  0.
         13    1    3    3    0    0 -0.21210578334E+02 -0.65486756483E+00 -0.12514954130E+03  0.12693590970E+03  0.00000000000E+00 0.  1.
        -13    1    3    3    0    0 -0.14723340262E+03  0.18643256047E+03 -0.35150197003E+04  0.35230382155E+04  0.00000000000E+00 0. -1.
          4    1    6    6  502    0  0.28162628162E+03  0.19554700627E+01 -0.10377797325E+03  0.30014505509E+03  0.00000000000E+00 0. -1.
          3    1    5    5  503    0 -0.19949415073E+03 -0.13096679124E+03  0.52954513058E+03  0.58083410876E+03  0.00000000000E+00 0. -1.
         -4    1    5    5    0  503 -0.70688167695E+01 -0.98099101852E+01  0.25908000576E+01  0.12365870503E+02  0.00000000000E+00 0.  1.
         -3    1    6    6    0  502  0.93380666828E+02 -0.46956461543E+02 -0.48912361938E+02  0.11540050853E+03  0.00000000000E+00 0.  1.
<mgrwt>
<rscale>  0 0.33273639E+04</rscale>
<asrwt>0</asrwt>
<pdfrwt beam="1">  1        2 0.60918793E+00 0.33273639E+04</pdfrwt>
<pdfrwt beam="2">  1       -2 0.10753816E+00 0.33273639E+04</pdfrwt>
<totfact> 0.21275052E-01</totfact>
</mgrwt>
</event>
<event>
12    1  0.1114484E-007  0.1448286E+04  0.7818608E-02  0.8919590E-01
         -2   -1    0    0    0  501 -0.00000000000E+00  0.00000000000E+00  0.94109312901E+03  0.94109312901E+03  0.00000000000E+00 0.  1.
          2   -1    0    0  501    0  0.00000000000E+00 -0.00000000000E+00 -0.55720624662E+03  0.55720624662E+03  0.00000000000E+00 0. -1.
         23    2    1    2    0    0  0.27396382562E+03  0.34101395499E+03  0.13084037809E+03  0.46579564020E+03  0.92193701756E+02 0.  0.
        254    2    1    2    0    0 -0.27396382562E+03 -0.34101395499E+03  0.25304650429E+03  0.10325037354E+04  0.90038032803E+03 0.  0.
        -24    2    4    4    0    0 -0.40558598218E+03  0.17941092816E+03  0.51030735164E+02  0.45347934860E+03  0.79693874266E+02 0.  0.
         24    2    4    4    0    0  0.13162215656E+03 -0.52042488315E+03  0.20201576913E+03  0.57902438683E+03  0.79324765820E+02 0.  0.
         11    1    3    3    0    0  0.36941845729E+02  0.43476946137E+02 -0.14008283731E+02  0.58746717562E+02  0.00000000000E+00 0.  1.
        -11    1    3    3    0    0  0.23702197989E+03  0.29753700885E+03  0.14484866182E+03  0.40704892263E+03  0.00000000000E+00 0. -1.
          4    1    6    6  502    0  0.28122122358E+02 -0.33186691747E+02  0.68053243108E+01  0.44028657872E+02  0.00000000000E+00 0. -1.
          1    1    5    5  503    0 -0.12280309361E+03  0.15765220232E+02  0.17539596307E+02  0.12504710876E+03  0.00000000000E+00 0. -1.
         -2    1    5    5    0  503 -0.28278288857E+03  0.16364570793E+03  0.33491138857E+02  0.32843223985E+03  0.00000000000E+00 0.  1.
         -3    1    6    6    0  502  0.10350003420E+03 -0.48723819140E+03  0.19521044482E+03  0.53499572896E+03  0.00000000000E+00 0.  1.
<mgrwt>
<rscale>  0 0.14482858E+04</rscale>
<asrwt>0</asrwt>
<pdfrwt beam="1">  1        2 0.85724038E-01 0.14482858E+04</pdfrwt>
<pdfrwt beam="2">  1       -2 0.14478356E+00 0.14482858E+04</pdfrwt>
<totfact> 0.17282672E+01</totfact>
</mgrwt>
</event>
<event>
12    1  0.1114484E-007  0.1510740E+04  0.7818608E-02  0.8877343E-01
          1   -1    0    0  501    0  0.00000000000E+00  0.00000000000E+00  0.12913690011E+04  0.12913690011E+04  0.00000000000E+00 0. -1.
         -1   -1    0    0    0  501 -0.00000000000E+00 -0.00000000000E+00 -0.44184385842E+03  0.44184385842E+03  0.00000000000E+00 0.  1.
         23    2    1    2    0    0  0.33619844667E+03  0.14373345980E+03  0.64052414835E+03  0.74308753247E+03  0.90659766635E+02 0.  0.
        254    2    1    2    0    0 -0.33619844667E+03 -0.14373345980E+03  0.20900099438E+03  0.99012532709E+03  0.89609042216E+03 0.  0.
        -24    2    4    4    0    0 -0.10921936062E+02  0.30527853510E+03 -0.12263903278E+03  0.33934133954E+03  0.82449619048E+02 0.  0.
         24    2    4    4    0    0 -0.32527651061E+03 -0.44901199491E+03  0.33164002716E+03  0.65078398755E+03  0.78218354058E+02 0.  0.
         13    1    3    3    0    0  0.58743123591E+00 -0.38580178618E+01  0.35017111873E+02  0.35233897048E+02  0.00000000000E+00 0.  1.
        -13    1    3    3    0    0  0.33561101544E+03  0.14759147767E+03  0.60550703648E+03  0.70785363543E+03  0.00000000000E+00 0. -1.
          2    1    6    6  502    0 -0.25143591448E+03 -0.32679515755E+03  0.20760549440E+03  0.46164394872E+03  0.00000000000E+00 0. -1.
          3    1    5    5  503    0 -0.30174119870E+02  0.29029596124E+03 -0.11592101390E+03  0.31403806152E+03  0.00000000000E+00 0. -1.
         -4    1    5    5    0  503  0.19252183808E+02  0.14982573861E+02 -0.67180188824E+01  0.25303278020E+02  0.00000000000E+00 0.  1.
         -1    1    6    6    0  502 -0.73840596133E+02 -0.12221683736E+03  0.12403453276E+03  0.18914003883E+03  0.00000000000E+00 0.  1.
<mgrwt>
<rscale>  0 0.15107395E+04</rscale>
<asrwt>0</asrwt>
<pdfrwt beam="1">  1        1 0.19867215E+00 0.15107395E+04</pdfrwt>
<pdfrwt beam="2">  1       -1 0.67975979E-01 0.15107395E+04</pdfrwt>
<totfact> 0.19431000E+01</totfact>
</mgrwt>
</event>
<event>
12    1  0.1114484E-007  0.2234614E+04  0.7818608E-02  0.8504157E-01
          2   -1    0    0  501    0  0.00000000000E+00  0.00000000000E+00  0.25526870834E+04  0.25526870834E+04  0.00000000000E+00 0. -1.
         -2   -1    0    0    0  501 -0.00000000000E+00 -0.00000000000E+00 -0.48904358885E+03  0.48904358885E+03  0.00000000000E+00 0.  1.
         23    2    1    2    0    0  0.91426691048E+03 -0.99947072022E+02  0.65645885657E+03  0.11338961523E+04  0.94386721100E+02 0.  0.
        254    2    1    2    0    0 -0.91426691048E+03  0.99947072022E+02  0.14071846380E+04  0.19078345199E+04  0.90210340267E+03 0.  0.
        -24    2    4    4    0    0 -0.80990799012E+03 -0.21818082733E+03  0.61258318794E+03  0.10418631823E+04  0.81651103420E+02 0.  0.
         24    2    4    4    0    0 -0.10435892036E+03  0.31812789936E+03  0.79460145001E+03  0.86597133753E+03  0.80117092136E+02 0.  0.
         11    1    3    3    0    0  0.14704472975E+03 -0.47852194549E+02  0.12924206419E+03  0.20153286637E+03  0.00000000000E+00 0.  1.
        -11    1    3    3    0    0  0.76722218073E+03 -0.52094877472E+02  0.52721679238E+03  0.93236328597E+03  0.00000000000E+00 0. -1.
          2    1    6    6  502    0 -0.10266833015E+03  0.26681392312E+03  0.59871421831E+03  0.66346753559E+03  0.00000000000E+00 0. -1.
          1    1    5    5  503    0 -0.68690537724E+03 -0.20645144901E+03  0.54655557924E+03  0.90176726447E+03  0.00000000000E+00 0. -1.
         -2    1    5    5    0  503 -0.12300261289E+03 -0.11729378325E+02  0.66027608695E+02  0.14009591787E+03  0.00000000000E+00 0.  1.
         -1    1    6    6    0  502 -0.16905902109E+01  0.51313976240E+02  0.19588723171E+03  0.20250380194E+03  0.00000000000E+00 0.  1.
<mgrwt>
<rscale>  0 0.22346143E+04</rscale>
<asrwt>0</asrwt>
<pdfrwt beam="1">  1        2 0.39272108E+00 0.22346143E+04</pdfrwt>
<pdfrwt beam="2">  1       -2 0.75237477E-01 0.22346143E+04</pdfrwt>
<totfact> 0.46885462E+00</totfact>
</mgrwt>
</event>
<event>
12    1  0.1114484E-007  0.2708680E+04  0.7818608E-02  0.8332194E-01
         -1   -1    0    0    0  501 -0.00000000000E+00  0.00000000000E+00  0.21603287753E+04  0.21603287753E+04  0.00000000000E+00 0.  1.
          1   -1    0    0  501    0  0.00000000000E+00 -0.00000000000E+00 -0.84905458647E+03  0.84905458647E+03  0.00000000000E+00 0. -1.
         23    2    1    2    0    0  0.35596107037E+02 -0.31256557200E+03  0.18557762335E+04  0.18843904908E+04  0.89765102010E+02 0.  0.
        254    2    1    2    0    0 -0.35596107037E+02  0.31256557200E+03 -0.54450204459E+03  0.11249928710E+04  0.93282483007E+03 0.  0.
        -24    2    4    4    0    0  0.18543596927E+03  0.55912745267E+03 -0.50882096438E+03  0.78212641860E+03  0.76242729871E+02 0.  0.
         24    2    4    4    0    0 -0.22103207630E+03 -0.24656188067E+03 -0.35681080219E+02  0.34286645240E+03  0.81463641825E+02 0.  0.
         11    1    3    3    0    0 -0.21987129182E+02 -0.23150829270E+02  0.16618950415E+03  0.16922867971E+03  0.00000000000E+00 0. -1.
        -11    1    3    3    0    0  0.57583236219E+02 -0.28941474273E+03  0.16895867293E+04  0.17151618111E+04  0.00000000000E+00 0.  1.
          2    1    6    6  502    0 -0.18247214785E+01 -0.31329444822E+01 -0.14118124081E+02  0.14576226438E+02  0.00000000000E+00 0. -1.
          1    1    5    5  503    0  0.17280730408E+02  0.83407458211E+02 -0.10911880602E+03  0.13842810970E+03  0.00000000000E+00 0. -1.
         -2    1    5    5    0  503  0.16815523886E+03  0.47571999446E+03 -0.39970215835E+03  0.64369830890E+03  0.00000000000E+00 0.  1.
         -3    1    6    6    0  502 -0.21920735482E+03 -0.24342893619E+03 -0.21562956137E+02  0.32829022596E+03  0.00000000000E+00 0.  1.
<mgrwt>
<rscale>  0 0.27086802E+04</rscale>
<asrwt>0</asrwt>
<pdfrwt beam="1">  1        1 0.13062378E+00 0.27086802E+04</pdfrwt>
<pdfrwt beam="2">  1       -1 0.33235827E+00 0.27086802E+04</pdfrwt>
<totfact> 0.35563131E-01</totfact>
</mgrwt>
</event>
<event>
12    1  0.1114484E-007  0.1826116E+04  0.7818608E-02  0.8692533E-01
         -1   -1    0    0    0  501 -0.00000000000E+00  0.00000000000E+00  0.44198068512E+03  0.44198068512E+03  0.00000000000E+00 0.  1.
          1   -1    0    0  501    0  0.00000000000E+00 -0.00000000000E+00 -0.18862250827E+04  0.18862250827E+04  0.00000000000E+00 0. -1.
         23    2    1    2    0    0  0.32034575991E+03 -0.20064192466E+03  0.18271005334E+03  0.42954919254E+03  0.90834780747E+02 0.  0.
        254    2    1    2    0    0 -0.32034575991E+03  0.20064192466E+03 -0.16269544509E+04  0.18986565753E+04  0.90279422778E+03 0.  0.
        -24    2    4    4    0    0 -0.56884018759E+03  0.28291659337E+02 -0.62561391316E+03  0.84953213427E+03  0.77022735718E+02 0.  0.
         24    2    4    4    0    0  0.24849442768E+03  0.17235026533E+03 -0.10013405378E+04  0.10491244410E+04  0.80778249782E+02 0.  0.
         11    1    3    3    0    0  0.11950805079E+03 -0.38085256774E+02  0.92593235344E+02  0.15590435600E+03  0.00000000000E+00 0. -1.
        -11    1    3    3    0    0  0.20083770912E+03 -0.16255666789E+03  0.90116817993E+02  0.27364483654E+03  0.00000000000E+00 0.  1.
          4    1    6    6  502    0 -0.11324808530E+01  0.13016082595E+01  0.10726647476E+01  0.20315773686E+01  0.00000000000E+00 0. -1.
          3    1    5    5  503    0 -0.48333811682E+02 -0.18891875666E+02 -0.50372809000E+02  0.72322058906E+02  0.00000000000E+00 0. -1.
         -4    1    5    5    0  503 -0.52050637591E+03  0.47183535003E+02 -0.57524110416E+03  0.77721007536E+03  0.00000000000E+00 0.  1.
         -3    1    6    6    0  502  0.24962690853E+03  0.17104865707E+03 -0.10024132025E+04  0.10470928637E+04  0.00000000000E+00 0.  1.
<mgrwt>
<rscale>  0 0.18261162E+04</rscale>
<asrwt>0</asrwt>
<pdfrwt beam="1">  1        1 0.29018847E+00 0.18261162E+04</pdfrwt>
<pdfrwt beam="2">  1       -1 0.67997029E-01 0.18261162E+04</pdfrwt>
<totfact> 0.73392799E+00</totfact>
</mgrwt>
</event>
<event>
12    1  0.1114484E-007  0.2039370E+04  0.7818608E-02  0.8588432E-01
         -2   -1    0    0    0  501 -0.00000000000E+00  0.00000000000E+00  0.28727707789E+04  0.28727707789E+04  0.00000000000E+00 0.  1.
          2   -1    0    0  501    0  0.00000000000E+00 -0.00000000000E+00 -0.36193541564E+03  0.36193541564E+03  0.00000000000E+00 0. -1.
         23    2    1    2    0    0  0.42744713116E+03  0.55360246463E+03  0.16813330541E+04  0.18233529257E+04  0.92457093608E+02 0.  0.
        254    2    1    2    0    0 -0.42744713116E+03 -0.55360246463E+03  0.82950230916E+03  0.14113532688E+04  0.90258364137E+03 0.  0.
        -24    2    4    4    0    0 -0.30596358316E+03 -0.76660352815E+03  0.42779862442E+03  0.93330301239E+03  0.82147223309E+02 0.  0.
         24    2    4    4    0    0 -0.12148354801E+03  0.21300106351E+03  0.40170368474E+03  0.47805025641E+03  0.83895719959E+02 0.  0.
         11    1    3    3    0    0  0.32504471381E+03  0.42477879530E+03  0.11766127645E+04  0.12924816009E+04  0.00000000000E+00 0.  1.
        -11    1    3    3    0    0  0.10240241735E+03  0.12882366934E+03  0.50472028955E+03  0.53087132485E+03  0.00000000000E+00 0. -1.
          4    1    6    6  502    0 -0.90857544789E+02  0.16875491044E+03  0.36696246712E+03  0.41399850907E+03  0.00000000000E+00 0. -1.
          3    1    5    5  503    0 -0.28570154645E+03 -0.69438979666E+03  0.36220247772E+03  0.83366252058E+03  0.00000000000E+00 0. -1.
         -4    1    5    5    0  503 -0.20262036702E+02 -0.72213731487E+02  0.65596146701E+02  0.99640491812E+02  0.00000000000E+00 0.  1.
         -3    1    6    6    0  502 -0.30626003218E+02  0.44246153077E+02  0.34741217620E+02  0.64051747336E+02  0.00000000000E+00 0.  1.
<mgrwt>
<rscale>  0 0.20393700E+04</rscale>
<asrwt>0</asrwt>
<pdfrwt beam="1">  1        2 0.55682373E-01 0.20393700E+04</pdfrwt>
<pdfrwt beam="2">  1       -2 0.44196472E+00 0.20393700E+04</pdfrwt>
<totfact> 0.32388214E-01</totfact>
</mgrwt>
</event>
<event>
12    1  0.1114484E-007  0.2901041E+04  0.7818608E-02  0.8272568E-01
          2   -1    0    0  501    0  0.00000000000E+00  0.00000000000E+00  0.28953313456E+04  0.28953313456E+04  0.00000000000E+00 0. -1.
         -2   -1    0    0    0  501 -0.00000000000E+00 -0.00000000000E+00 -0.72669023871E+03  0.72669023871E+03  0.00000000000E+00 0.  1.
         23    2    1    2    0    0 -0.75204409993E+03  0.89081179070E+03  0.17336960057E+04  0.20912713684E+04  0.92726055884E+02 0.  0.
        254    2    1    2    0    0  0.75204409993E+03 -0.89081179070E+03  0.43494510122E+03  0.15307502159E+04  0.89157333281E+03 0.  0.
        -24    2    4    4    0    0  0.83466861251E+03 -0.84929850249E+03  0.59172558098E+03  0.13321672093E+04  0.80936217140E+02 0.  0.
         24    2    4    4    0    0 -0.82624512573E+02 -0.41513288213E+02 -0.15678047977E+03  0.19858300665E+03  0.79403580006E+02 0.  0.
         11    1    3    3    0    0 -0.98995047414E+02  0.78088778219E+02  0.16371672497E+03  0.20664230625E+03  0.00000000000E+00 0. -1.
        -11    1    3    3    0    0 -0.65304905252E+03  0.81272301248E+03  0.15699792807E+04  0.18846290621E+04  0.00000000000E+00 0.  1.
          2    1    6    6  502    0 -0.36428397616E+02  0.16961799277E+02 -0.25397499598E+02  0.47536972699E+02  0.00000000000E+00 0. -1.
          1    1    5    5  503    0  0.35418427491E+03 -0.41546193512E+03  0.25771984465E+03  0.60371734980E+03  0.00000000000E+00 0. -1.
         -2    1    5    5    0  503  0.48048433759E+03 -0.43383656737E+03  0.33400573634E+03  0.72844985947E+03  0.00000000000E+00 0.  1.
         -1    1    6    6    0  502 -0.46196114958E+02 -0.58475087490E+02 -0.13138298017E+03  0.15104603395E+03  0.00000000000E+00 0.  1.
<mgrwt>
<rscale>  0 0.29010405E+04</rscale>
<asrwt>0</asrwt>
<pdfrwt beam="1">  1        2 0.44543559E+00 0.29010405E+04</pdfrwt>
<pdfrwt beam="2">  1       -2 0.11179850E+00 0.29010405E+04</pdfrwt>
<totfact> 0.11019140E+00</totfact>
</mgrwt>
</event>
<event>
12    1  0.1114484E-007  0.1340868E+04  0.7818608E-02  0.8997770E-01
          2   -1    0    0  501    0  0.00000000000E+00  0.00000000000E+00  0.34821789689E+03  0.34821789689E+03  0.00000000000E+00 0. -1.
         -2   -1    0    0    0  501 -0.00000000000E+00 -0.00000000000E+00 -0.12908062954E+04  0.12908062954E+04  0.00000000000E+00 0.  1.
         23    2    1    2    0    0  0.11524503921E+03  0.30216151426E+03 -0.89527035836E+02  0.35471165976E+03  0.11498813704E+03 0.  0.
        254    2    1    2    0    0 -0.11524503921E+03 -0.30216151426E+03 -0.85306136272E+03  0.12843125326E+04  0.90397012839E+03 0.  0.
        -24    2    4    4    0    0  0.49323796293E+01  0.59556821377E+02  0.16526637141E+03  0.19404956080E+03  0.82285570933E+02 0.  0.
         24    2    4    4    0    0 -0.12017741883E+03 -0.36171833564E+03 -0.10183277341E+04  0.10902629718E+04  0.79995044832E+02 0.  0.
         13    1    3    3    0    0  0.23046690482E+02  0.61206911192E+02 -0.70279098625E+02  0.96003060490E+02  0.00000000000E+00 0.  1.
        -13    1    3    3    0    0  0.92198348723E+02  0.24095460307E+03 -0.19247937211E+02  0.25870859927E+03  0.00000000000E+00 0. -1.
          2    1    6    6  502    0 -0.37551710520E+02 -0.23427707994E+03 -0.64204517904E+03  0.68448366896E+03  0.00000000000E+00 0. -1.
          3    1    5    5  503    0 -0.33602420426E+02  0.15358727241E+02  0.33698000874E+02  0.50005683915E+02  0.00000000000E+00 0. -1.
         -4    1    5    5    0  503  0.38534800055E+02  0.44198094136E+02  0.13156837054E+03  0.14404387688E+03  0.00000000000E+00 0.  1.
         -1    1    6    6    0  502 -0.82625708314E+02 -0.12744125570E+03 -0.37628255510E+03  0.40577930282E+03  0.00000000000E+00 0.  1.
<mgrwt>
<rscale>  0 0.13408682E+04</rscale>
<asrwt>0</asrwt>
<pdfrwt beam="1">  1        2 0.53571985E-01 0.13408682E+04</pdfrwt>
<pdfrwt beam="2">  1       -2 0.19858558E+00 0.13408682E+04</pdfrwt>
<totfact> 0.12331978E+01</totfact>
</mgrwt>
</event>
<event>
12    1  0.1114484E-007  0.3262205E+04  0.7818608E-02  0.8172579E-01
         -2   -1    0    0    0  501 -0.00000000000E+00  0.00000000000E+00  0.23565430348E+04  0.23565430348E+04  0.00000000000E+00 0.  1.
          2   -1    0    0  501    0  0.00000000000E+00 -0.00000000000E+00 -0.11289823046E+04  0.11289823046E+04  0.00000000000E+00 0. -1.
         23    2    1    2    0    0 -0.11083810750E+04 -0.17291056906E+03 -0.48649104239E+03  0.12264382596E+04  0.95239686457E+02 0.  0.
        254    2    1    2    0    0  0.11083810750E+04  0.17291056906E+03  0.17140517726E+04  0.22590870798E+04  0.95241497402E+03 0.  0.
        -24    2    4    4    0    0  0.59781050061E+03 -0.37091659152E+03  0.98388036819E+03  0.12121866346E+04  0.80120819217E+02 0.  0.
         24    2    4    4    0    0  0.51057057440E+03  0.54382716058E+03  0.73017140441E+03  0.10469004452E+04  0.80124717703E+02 0.  0.
         11    1    3    3    0    0 -0.10458895729E+04 -0.17403114486E+03 -0.47913855990E+03  0.11635057360E+04  0.00000000000E+00 0. -1.
        -11    1    3    3    0    0 -0.62491502115E+02  0.11205758004E+01 -0.73524824895E+01  0.62932523590E+02  0.00000000000E+00 0.  1.
          2    1    6    6  502    0  0.12807407475E+03  0.17900742959E+03  0.24591256916E+03  0.33002972615E+03  0.00000000000E+00 0. -1.
          1    1    5    5  503    0  0.45471514037E+03 -0.27220489001E+03  0.68038240186E+03  0.86242772090E+03  0.00000000000E+00 0. -1.
         -2    1    5    5    0  503  0.14309536024E+03 -0.98711701511E+02  0.30349796633E+03  0.34975891369E+03  0.00000000000E+00 0.  1.
         -1    1    6    6    0  502  0.38249649965E+03  0.36481973099E+03  0.48425883525E+03  0.71687071908E+03  0.00000000000E+00 0.  1.
<mgrwt>
<rscale>  0 0.32622050E+04</rscale>
<asrwt>0</asrwt>
<pdfrwt beam="1">  1        2 0.17368959E+00 0.32622050E+04</pdfrwt>
<pdfrwt beam="2">  1       -2 0.36254508E+00 0.32622050E+04</pdfrwt>
<totfact> 0.22683353E-01</totfact>
</mgrwt>
</event>
<event>
12    1  0.1183545E-007  0.1749029E+04  0.7818608E-02  0.8733885E-01
         -2   -1    0    0    0  501 -0.00000000000E+00  0.00000000000E+00  0.53817513750E+03  0.53817513750E+03  0.00000000000E+00 0.  1.
          2   -1    0    0  501    0  0.00000000000E+00 -0.00000000000E+00 -0.14210540749E+04  0.14210540749E+04  0.00000000000E+00 0. -1.
         23    2    1    2    0    0 -0.40986582532E+03  0.22987130499E+03 -0.81205000346E+03  0.94263750196E+03  0.91156131819E+02 0.  0.
        254    2    1    2    0    0  0.40986582532E+03 -0.22987130499E+03 -0.70828933983E+02  0.10165917105E+04  0.89867188466E+03 0.  0.
        -24    2    4    4    0    0  0.27661940440E+03  0.79930566205E+02  0.35733812701E+03  0.46592871395E+03  0.80571950252E+02 0.  0.
         24    2    4    4    0    0  0.13324642091E+03 -0.30980187120E+03 -0.42816706099E+03  0.55066299652E+03  0.78555047778E+02 0.  0.
         11    1    3    3    0    0 -0.31948569905E+03  0.19730133458E+03 -0.57376488108E+03  0.68571500442E+03  0.00000000000E+00 0. -1.
        -11    1    3    3    0    0 -0.90380126263E+02  0.32569970407E+02 -0.23828512238E+03  0.25692249754E+03  0.00000000000E+00 0.  1.
          4    1    6    6  502    0  0.62368067161E+02 -0.60109457198E+02 -0.10166746267E+03  0.13356345164E+03  0.00000000000E+00 0. -1.
          3    1    5    5  503    0  0.12812207973E+02  0.16459474552E+02  0.54149750816E+01  0.21549685168E+02  0.00000000000E+00 0. -1.
         -4    1    5    5    0  503  0.26380719643E+03  0.63471091653E+02  0.35192315193E+03  0.44437902879E+03  0.00000000000E+00 0.  1.
         -3    1    6    6    0  502  0.70878353753E+02 -0.24969241400E+03 -0.32649959832E+03  0.41709954488E+03  0.00000000000E+00 0.  1.
<mgrwt>
<rscale>  0 0.17490294E+04</rscale>
<asrwt>0</asrwt>
<pdfrwt beam="1">  1        2 0.21862370E+00 0.17490294E+04</pdfrwt>
<pdfrwt beam="2">  1       -2 0.82796177E-01 0.17490294E+04</pdfrwt>
<totfact> 0.17064895E+01</totfact>
</mgrwt>
</event>
<event>
12    1  0.1114484E-007  0.1479556E+04  0.7818608E-02  0.8898163E-01
         -2   -1    0    0    0  501 -0.00000000000E+00  0.00000000000E+00  0.88167607426E+03  0.88167607426E+03  0.00000000000E+00 0.  1.
          2   -1    0    0  501    0  0.00000000000E+00 -0.00000000000E+00 -0.62071756918E+03  0.62071756918E+03  0.00000000000E+00 0. -1.
         23    2    1    2    0    0  0.98883053520E+02 -0.81514574334E+02 -0.36496756410E+03  0.39716624941E+03  0.90095630959E+02 0.  0.
        254    2    1    2    0    0 -0.98883053520E+02  0.81514574334E+02  0.62592606918E+03  0.11052273940E+04  0.90184348105E+03 0.  0.
        -24    2    4    4    0    0 -0.38573487890E+03 -0.24796684480E+03  0.32885492383E+03  0.56985215685E+03  0.79416414057E+02 0.  0.
         24    2    4    4    0    0  0.28685182538E+03  0.32948141913E+03  0.29707114535E+03  0.53537523717E+03  0.86795183636E+02 0.  0.
         11    1    3    3    0    0  0.92877854746E+02 -0.26278072135E+02 -0.27474859875E+03  0.29121062050E+03  0.00000000000E+00 0. -1.
        -11    1    3    3    0    0  0.60051987744E+01 -0.55236502199E+02 -0.90218965355E+02  0.10595562891E+03  0.00000000000E+00 0.  1.
          2    1    6    6  502    0  0.27135382860E+03  0.27571321795E+03  0.23895052526E+03  0.45469553810E+03  0.00000000000E+00 0. -1.
          1    1    5    5  503    0 -0.37951382393E+03 -0.24764741945E+03  0.30759754185E+03  0.54770086239E+03  0.00000000000E+00 0. -1.
         -2    1    5    5    0  503 -0.62210549708E+01 -0.31942534405E+00  0.21257381978E+02  0.22151294456E+02  0.00000000000E+00 0.  1.
         -1    1    6    6    0  502  0.15497996780E+02  0.53768201176E+02  0.58120620094E+02  0.80679699070E+02  0.00000000000E+00 0.  1.
<mgrwt>
<rscale>  0 0.14795565E+04</rscale>
<asrwt>0</asrwt>
<pdfrwt beam="1">  1        2 0.95495011E-01 0.14795565E+04</pdfrwt>
<pdfrwt beam="2">  1       -2 0.13564247E+00 0.14795565E+04</pdfrwt>
<totfact> 0.17938888E+01</totfact>
</mgrwt>
</event>
<event>
12    1  0.1114484E-007  0.1283476E+04  0.7818608E-02  0.9042773E-01
          1   -1    0    0  501    0  0.00000000000E+00  0.00000000000E+00  0.38902465210E+03  0.38902465210E+03  0.00000000000E+00 0. -1.
         -1   -1    0    0    0  501 -0.00000000000E+00 -0.00000000000E+00 -0.10586152326E+04  0.10586152326E+04  0.00000000000E+00 0.  1.
         23    2    1    2    0    0 -0.21065083629E+03 -0.59074980862E+02  0.93910830284E+02  0.25329116322E+03  0.86449645042E+02 0.  0.
        254    2    1    2    0    0  0.21065083629E+03  0.59074980862E+02 -0.76350141083E+03  0.11943487215E+04  0.89200383187E+03 0.  0.
        -24    2    4    4    0    0  0.47867945311E+02 -0.34845484114E+03 -0.63525399625E+03  0.73051023157E+03  0.79908961766E+02 0.  0.
         24    2    4    4    0    0  0.16278289098E+03  0.40752982201E+03 -0.12824741458E+03  0.46383848995E+03  0.78229917504E+02 0.  0.
         11    1    3    3    0    0 -0.17980901828E+03 -0.28990016251E+02  0.44027313747E+02  0.18737691548E+03  0.00000000000E+00 0. -1.
        -11    1    3    3    0    0 -0.30841818008E+02 -0.30084964612E+02  0.49883516537E+02  0.65914247745E+02  0.00000000000E+00 0.  1.
          4    1    6    6  502    0  0.12965507392E+03  0.22178372548E+03 -0.80402698479E+02  0.26918962277E+03  0.00000000000E+00 0. -1.
          3    1    5    5  503    0  0.62513962756E+02 -0.16229584682E+03 -0.31155797046E+03  0.35681410621E+03  0.00000000000E+00 0. -1.
         -4    1    5    5    0  503 -0.14646017445E+02 -0.18615899433E+03 -0.32369602580E+03  0.37369612537E+03  0.00000000000E+00 0.  1.
         -3    1    6    6    0  502  0.33127817056E+02  0.18574609652E+03 -0.47844716099E+02  0.19464886718E+03  0.00000000000E+00 0.  1.
<mgrwt>
<rscale>  0 0.12834756E+04</rscale>
<asrwt>0</asrwt>
<pdfrwt beam="1">  1        1 0.59849948E-01 0.12834756E+04</pdfrwt>
<pdfrwt beam="2">  1       -1 0.16286388E+00 0.12834756E+04</pdfrwt>
<totfact> 0.17029935E+01</totfact>
</mgrwt>
</event>
<event>
12    1  0.1114484E-007  0.1460470E+04  0.7818608E-02  0.8911174E-01
          4   -1    0    0  501    0  0.00000000000E+00  0.00000000000E+00  0.12844796265E+04  0.12844796265E+04  0.00000000000E+00 0. -1.
         -4   -1    0    0    0  501 -0.00000000000E+00 -0.00000000000E+00 -0.41514323050E+03  0.41514323050E+03  0.00000000000E+00 0.  1.
         23    2    1    2    0    0  0.22298809796E+03  0.39208846989E+03  0.25279954088E+03  0.52579923313E+03  0.95394788310E+02 0.  0.
        254    2    1    2    0    0 -0.22298809796E+03 -0.39208846989E+03  0.61653685516E+03  0.11738236239E+04  0.89122788680E+03 0.  0.
        -24    2    4    4    0    0  0.34378621505E+02 -0.54159394866E+03  0.66505962010E+03  0.86197983681E+03  0.78734020176E+02 0.  0.
         24    2    4    4    0    0 -0.25736671947E+03  0.14950547877E+03 -0.48522764934E+02  0.31184378710E+03  0.79388742056E+02 0.  0.
         11    1    3    3    0    0  0.64558958717E+02  0.47595159329E+02  0.61669592922E+02  0.10117458689E+03  0.00000000000E+00 0.  1.
        -11    1    3    3    0    0  0.15842913924E+03  0.34449331056E+03  0.19112994796E+03  0.42462464624E+03  0.00000000000E+00 0. -1.
          4    1    6    6  502    0 -0.16857052969E+03  0.98041014075E+02 -0.69625368855E+02  0.20706461772E+03  0.00000000000E+00 0. -1.
          3    1    5    5  503    0  0.34593625446E+02 -0.38168566117E+03  0.52079464669E+03  0.64661250134E+03  0.00000000000E+00 0. -1.
         -4    1    5    5    0  503 -0.21500394020E+00 -0.15990828749E+03  0.14426497341E+03  0.21536733547E+03  0.00000000000E+00 0.  1.
         -3    1    6    6    0  502 -0.88796189771E+02  0.51464464696E+02  0.21102603921E+02  0.10477916938E+03  0.00000000000E+00 0.  1.
<mgrwt>
<rscale>  0 0.14604698E+04</rscale>
<asrwt>0</asrwt>
<pdfrwt beam="1">  1        4 0.19761225E+00 0.14604698E+04</pdfrwt>
<pdfrwt beam="2">  1       -4 0.63868190E-01 0.14604698E+04</pdfrwt>
<totfact> 0.60562455E-01</totfact>
</mgrwt>
</event>
<event>
12    1  0.1114484E-007  0.1911292E+04  0.7818608E-02  0.8649256E-01
          2   -1    0    0  501    0  0.00000000000E+00  0.00000000000E+00  0.13322706313E+04  0.13322706313E+04  0.00000000000E+00 0. -1.
         -2   -1    0    0    0  501 -0.00000000000E+00 -0.00000000000E+00 -0.68549074385E+03  0.68549074385E+03  0.00000000000E+00 0.  1.
         23    2    1    2    0    0 -0.68721940289E+03  0.27820683288E+03  0.23928661827E+03  0.78409908371E+03  0.88790415132E+02 0.  0.
        254    2    1    2    0    0  0.68721940289E+03 -0.27820683288E+03  0.40749326914E+03  0.12336622914E+04  0.89788770750E+03 0.  0.
        -24    2    4    4    0    0  0.81730912418E+03  0.32948674030E+01  0.40048184058E+03  0.91340733580E+03  0.76955804415E+02 0.  0.
         24    2    4    4    0    0 -0.13008972129E+03 -0.28150170029E+03  0.70114285567E+01  0.32025495561E+03  0.79671410254E+02 0.  0.
         11    1    3    3    0    0 -0.28748395337E+02  0.10866423232E+02  0.30719749444E+02  0.43454026214E+02  0.00000000000E+00 0. -1.
        -11    1    3    3    0    0 -0.65847100755E+03  0.26734040965E+03  0.20856686883E+03  0.74064505749E+03  0.00000000000E+00 0.  1.
          4    1    6    6  502    0 -0.18544032492E+02 -0.40207664537E+02  0.29921780991E+02  0.53440157244E+02  0.00000000000E+00 0. -1.
          3    1    5    5  503    0  0.85722758329E+02  0.12196019859E+02  0.66327700036E+02  0.10907106852E+03  0.00000000000E+00 0. -1.
         -4    1    5    5    0  503  0.73158636585E+03 -0.89011524559E+01  0.33415414054E+03  0.80433626728E+03  0.00000000000E+00 0.  1.
         -3    1    6    6    0  502 -0.11154568880E+03 -0.24129403575E+03 -0.22910352434E+02  0.26681479837E+03  0.00000000000E+00 0.  1.
<mgrwt>
<rscale>  0 0.19112919E+04</rscale>
<asrwt>0</asrwt>
<pdfrwt beam="1">  1        2 0.20496471E+00 0.19112919E+04</pdfrwt>
<pdfrwt beam="2">  1       -2 0.10546011E+00 0.19112919E+04</pdfrwt>
<totfact> 0.10777521E+01</totfact>
</mgrwt>
</event>
<event>
12    1  0.1114484E-007  0.2631375E+04  0.7818608E-02  0.8357621E-01
         -1   -1    0    0    0  501 -0.00000000000E+00  0.00000000000E+00  0.20664053138E+04  0.20664053138E+04  0.00000000000E+00 0.  1.
          1   -1    0    0  501    0  0.00000000000E+00 -0.00000000000E+00 -0.83770306313E+03  0.83770306313E+03  0.00000000000E+00 0. -1.
         23    2    1    2    0    0  0.76659796486E+02 -0.10470643871E+04 -0.94171966427E+01  0.10539679000E+04  0.92407226416E+02 0.  0.
        254    2    1    2    0    0 -0.76659796486E+02  0.10470643871E+04  0.12381194473E+04  0.18501404769E+04  0.88761447896E+03 0.  0.
        -24    2    4    4    0    0  0.34755066885E+03  0.41895434212E+03  0.25529347473E+03  0.60649596708E+03  0.79676794830E+02 0.  0.
         24    2    4    4    0    0 -0.42421046534E+03  0.62811004500E+03  0.98282597254E+03  0.12436445098E+04  0.78917849131E+02 0.  0.
         13    1    3    3    0    0  0.42645564595E+02 -0.14593551024E+03  0.41440245919E+01  0.15209533283E+03  0.00000000000E+00 0.  1.
        -13    1    3    3    0    0  0.34014231891E+02 -0.90112887688E+03 -0.13561221235E+02  0.90187256719E+03  0.00000000000E+00 0. -1.
          2    1    6    6  502    0 -0.32140788986E+03  0.43220386384E+03  0.73828233019E+03  0.91387308236E+03  0.00000000000E+00 0. -1.
          1    1    5    5  503    0  0.12011372782E+03  0.19232804156E+03  0.78434819875E+02  0.23993625018E+03  0.00000000000E+00 0. -1.
         -2    1    5    5    0  503  0.22743694103E+03  0.22662630056E+03  0.17685865486E+03  0.36655971689E+03  0.00000000000E+00 0.  1.
         -1    1    6    6    0  502 -0.10280257548E+03  0.19590618116E+03  0.24454364235E+03  0.32977142744E+03  0.00000000000E+00 0.  1.
<mgrwt>
<rscale>  0 0.26313754E+04</rscale>
<asrwt>0</asrwt>
<pdfrwt beam="1">  1        1 0.12887739E+00 0.26313754E+04</pdfrwt>
<pdfrwt beam="2">  1       -1 0.31790851E+00 0.26313754E+04</pdfrwt>
<totfact> 0.45511888E-01</totfact>
</mgrwt>
</event>
<event>
12    1  0.1611346E-007  0.3019505E+04  0.7818608E-02  0.8238183E-01
         -2   -1    0    0    0  501 -0.00000000000E+00  0.00000000000E+00  0.99797706766E+03  0.99797706766E+03  0.00000000000E+00 0.  1.
          2   -1    0    0  501    0  0.00000000000E+00 -0.00000000000E+00 -0.22839723593E+04  0.22839723593E+04  0.00000000000E+00 0. -1.
         23    2    1    2    0    0  0.35130688766E+03 -0.11741003130E+04  0.92506132323E+02  0.12325682977E+04  0.93483419966E+02 0.  0.
        254    2    1    2    0    0 -0.35130688766E+03  0.11741003130E+04 -0.13785014240E+04  0.20493811292E+04  0.89317902051E+03 0.  0.
        -24    2    4    4    0    0 -0.38524089683E+03  0.12984603720E+04 -0.13006888999E+04  0.18795041943E+04  0.79589672730E+02 0.  0.
         24    2    4    4    0    0  0.33934009168E+02 -0.12436005905E+03 -0.77812524085E+02  0.16987693487E+03  0.78653943532E+02 0.  0.
         13    1    3    3    0    0  0.31988048103E+03 -0.10313932172E+04  0.52826803695E+02  0.10811503882E+04  0.00000000000E+00 0.  1.
        -13    1    3    3    0    0  0.31426406626E+02 -0.14270709574E+03  0.39679328628E+02  0.15141790954E+03  0.00000000000E+00 0. -1.
          2    1    6    6  502    0  0.52510034749E+02 -0.10569793784E+03 -0.41676561800E+02  0.12516506548E+03  0.00000000000E+00 0. -1.
          3    1    5    5  503    0 -0.35216271421E+03  0.12126707646E+04 -0.12366616594E+04  0.17674617452E+04  0.00000000000E+00 0. -1.
         -4    1    5    5    0  503 -0.33078182620E+02  0.85789607402E+02 -0.64027240425E+02  0.11204244919E+03  0.00000000000E+00 0.  1.
         -1    1    6    6    0  502 -0.18576025580E+02 -0.18662121203E+02 -0.36135962285E+02  0.44711869391E+02  0.00000000000E+00 0.  1.
<mgrwt>
<rscale>  0 0.30195046E+04</rscale>
<asrwt>0</asrwt>
<pdfrwt beam="1">  1        2 0.35138036E+00 0.30195046E+04</pdfrwt>
<pdfrwt beam="2">  1       -2 0.15353493E+00 0.30195046E+04</pdfrwt>
<totfact> 0.11140902E+00</totfact>
</mgrwt>
</event>
<event>
12    1  0.1114484E-007  0.1345691E+04  0.7818608E-02  0.8994096E-01
         -1   -1    0    0    0  501 -0.00000000000E+00  0.00000000000E+00  0.22834626593E+04  0.22834626593E+04  0.00000000000E+00 0.  1.
          1   -1    0    0  501    0  0.00000000000E+00 -0.00000000000E+00 -0.19826081201E+03  0.19826081201E+03  0.00000000000E+00 0. -1.
         23    2    1    2    0    0 -0.36855214080E+03 -0.78461742126E+02  0.59959373500E+03  0.71396742965E+03  0.90829059684E+02 0.  0.
        254    2    1    2    0    0  0.36855214080E+03  0.78461742126E+02  0.14856081123E+04  0.17677560416E+04  0.88087628758E+03 0.  0.
        -24    2    4    4    0    0 -0.25493826153E+03 -0.11074024323E+03  0.60370307241E+03  0.66849320822E+03  0.71894722552E+02 0.  0.
         24    2    4    4    0    0  0.62349040234E+03  0.18920198536E+03  0.88190503988E+03  0.10992628334E+04  0.78003875115E+02 0.  0.
         11    1    3    3    0    0 -0.18066874535E+03 -0.15088044254E+02  0.35911677166E+03  0.40228559546E+03  0.00000000000E+00 0. -1.
        -11    1    3    3    0    0 -0.18788339545E+03 -0.63373697872E+02  0.24047696334E+03  0.31168183419E+03  0.00000000000E+00 0.  1.
          2    1    6    6  502    0  0.45892333778E+03  0.11009305240E+03  0.67016623710E+03  0.81966694181E+03  0.00000000000E+00 0. -1.
          3    1    5    5  503    0 -0.52243821559E+02  0.48976153727E+01  0.88163905655E+02  0.10259765001E+03  0.00000000000E+00 0. -1.
         -4    1    5    5    0  503 -0.20269443997E+03 -0.11563785861E+03  0.51553916676E+03  0.56589555821E+03  0.00000000000E+00 0.  1.
         -1    1    6    6    0  502  0.16456706456E+03  0.79108932955E+02  0.21173880277E+03  0.27959589162E+03  0.00000000000E+00 0.  1.
<mgrwt>
<rscale>  0 0.13456911E+04</rscale>
<asrwt>0</asrwt>
<pdfrwt beam="1">  1        1 0.30501665E-01 0.13456911E+04</pdfrwt>
<pdfrwt beam="2">  1       -1 0.35130193E+00 0.13456911E+04</pdfrwt>
<totfact> 0.22618364E+00</totfact>
</mgrwt>
</event>
<event>
12    1  0.1114484E-007  0.1715038E+04  0.7818608E-02  0.8752834E-01
         -2   -1    0    0    0  501 -0.00000000000E+00  0.00000000000E+00  0.24967442965E+04  0.24967442965E+04  0.00000000000E+00 0. -1.
          2   -1    0    0  501    0  0.00000000000E+00 -0.00000000000E+00 -0.29451897820E+03  0.29451897820E+03  0.00000000000E+00 0.  1.
         23    2    1    2    0    0 -0.36425280668E+03  0.28412733434E+03  0.14730944279E+04  0.15465923588E+04  0.92370349900E+02 0.  0.
        254    2    1    2    0    0  0.36425280668E+03 -0.28412733434E+03  0.72913089039E+03  0.12446709159E+04  0.89675268844E+03 0.  0.
        -24    2    4    4    0    0  0.21410282629E+03  0.21821547229E+03  0.63048174732E+03  0.70521115612E+03  0.79734110869E+02 0.  0.
         24    2    4    4    0    0  0.15014998039E+03 -0.50234280663E+03  0.98649143070E+02  0.53945975976E+03  0.79949152514E+02 0.  0.
         11    1    3    3    0    0 -0.33390899187E+03  0.27004796498E+03  0.14227413138E+04  0.14861406273E+04  0.00000000000E+00 0. -1.
        -11    1    3    3    0    0 -0.30343814810E+02  0.14079369353E+02  0.50353114114E+02  0.60451731485E+02  0.00000000000E+00 0.  1.
          4    1    6    6  502    0  0.10089176606E+03 -0.42736283521E+03  0.97177262052E+02  0.44973499045E+03  0.00000000000E+00 0. -1.
          1    1    5    5  503    0  0.11550214078E+03  0.75983363796E+02  0.22132908531E+03  0.26096126169E+03  0.00000000000E+00 0. -1.
         -2    1    5    5    0  503  0.98600685517E+02  0.14223210850E+03  0.40915266201E+03  0.44424989443E+03  0.00000000000E+00 0.  1.
         -3    1    6    6    0  502  0.49258214336E+02 -0.74979971418E+02  0.14718810176E+01  0.89724769307E+02  0.00000000000E+00 0.  1.
<mgrwt>
<rscale>  0 0.17150377E+04</rscale>
<asrwt>0</asrwt>
<pdfrwt beam="1">  1        2 0.45310614E-01 0.17150377E+04</pdfrwt>
<pdfrwt beam="2">  1       -2 0.38411449E+00 0.17150377E+04</pdfrwt>
<totfact> 0.10087657E+00</totfact>
</mgrwt>
</event>
<event>
12    1  0.1114484E-007  0.1311915E+04  0.7818608E-02  0.9020170E-01
         -3   -1    0    0    0  501 -0.00000000000E+00  0.00000000000E+00  0.37337582791E+03  0.37337582791E+03  0.00000000000E+00 0.  1.
          3   -1    0    0  501    0  0.00000000000E+00 -0.00000000000E+00 -0.11524048278E+04  0.11524048278E+04  0.00000000000E+00 0. -1.
         23    2    1    2    0    0  0.30841693993E+03 -0.10661199225E+03 -0.23564778927E+02  0.34408225578E+03  0.10653719638E+03 0.  0.
        254    2    1    2    0    0 -0.30841693993E+03  0.10661199225E+03 -0.75546422092E+03  0.11816983999E+04  0.84805530096E+03 0.  0.
        -24    2    4    4    0    0 -0.27802753793E+03 -0.38660514986E+02  0.10129663320E+03  0.30861146402E+03  0.78651640549E+02 0.  0.
         24    2    4    4    0    0 -0.30389401997E+02  0.14527250723E+03 -0.85676085412E+03  0.87308693587E+03  0.78829051202E+02 0.  0.
         11    1    3    3    0    0  0.42324482224E+02  0.18201621925E+02 -0.19801106277E+02  0.50147229694E+02  0.00000000000E+00 0. -1.
        -11    1    3    3    0    0  0.26609245770E+03 -0.12481361417E+03 -0.37636726498E+01  0.29393502609E+03  0.00000000000E+00 0.  1.
          2    1    6    6  502    0 -0.56077987083E+02  0.79566801817E+02 -0.51546504579E+03  0.52457585726E+03  0.00000000000E+00 0. -1.
          3    1    5    5  503    0 -0.46319162916E+00 -0.10123560019E+02 -0.32478544914E+01  0.10641878253E+02  0.00000000000E+00 0. -1.
         -4    1    5    5    0  503 -0.27756434630E+03 -0.28536954967E+02  0.10454448770E+03  0.29796958577E+03  0.00000000000E+00 0.  1.
         -1    1    6    6    0  502  0.25688585085E+02  0.65705705414E+02 -0.34129580833E+03  0.34851107861E+03  0.00000000000E+00 0.  1.
<mgrwt>
<rscale>  0 0.13119148E+04</rscale>
<asrwt>0</asrwt>
<pdfrwt beam="1">  1        3 0.17729305E+00 0.13119148E+04</pdfrwt>
<pdfrwt beam="2">  1       -3 0.57442435E-01 0.13119148E+04</pdfrwt>
<totfact> 0.15824787E+00</totfact>
</mgrwt>
</event>
<event>
12    1  0.1114484E-007  0.2874278E+04  0.7818608E-02  0.8280572E-01
          2   -1    0    0  501    0  0.00000000000E+00  0.00000000000E+00  0.20614647198E+04  0.20614647198E+04  0.00000000000E+00 0.  1.
         -2   -1    0    0    0  501 -0.00000000000E+00 -0.00000000000E+00 -0.10018938592E+04  0.10018938592E+04  0.00000000000E+00 0. -1.
         23    2    1    2    0    0  0.41473344637E+03  0.84581020700E+03 -0.46869703674E+03  0.10561812103E+04  0.91886336520E+02 0.  0.
        254    2    1    2    0    0 -0.41473344637E+03 -0.84581020700E+03  0.15282678973E+04  0.20071773687E+04  0.89764106732E+03 0.  0.
        -24    2    4    4    0    0 -0.64082828355E+03 -0.60661075119E+03  0.75813153379E+03  0.11659855513E+04  0.78239317384E+02 0.  0.
         24    2    4    4    0    0  0.22609483719E+03 -0.23919945581E+03  0.77013636351E+03  0.84119181744E+03  0.78475475566E+02 0.  0.
         11    1    3    3    0    0  0.85879057194E+02  0.12051305794E+03 -0.48317212261E+02  0.15567004400E+03  0.00000000000E+00 0.  1.
        -11    1    3    3    0    0  0.32885438917E+03  0.72529714907E+03 -0.42037982448E+03  0.90051116626E+03  0.00000000000E+00 0. -1.
          4    1    6    6  502    0  0.20906635665E+03 -0.23987899089E+03  0.75063339818E+03  0.81529207663E+03  0.00000000000E+00 0. -1.
          3    1    5    5  503    0 -0.58899796154E+03 -0.55557003546E+03  0.66466527169E+03  0.10475478922E+04  0.00000000000E+00 0. -1.
         -4    1    5    5    0  503 -0.51830322016E+02 -0.51040715727E+02  0.93466262103E+02  0.11843765910E+03  0.00000000000E+00 0.  1.
         -3    1    6    6    0  502  0.17028480539E+02  0.67953507743E+00  0.19502965329E+02  0.25899740810E+02  0.00000000000E+00 0.  1.
<mgrwt>
<rscale>  0 0.28742782E+04</rscale>
<asrwt>0</asrwt>
<pdfrwt beam="1">  1        2 0.31714842E+00 0.28742782E+04</pdfrwt>
<pdfrwt beam="2">  1       -2 0.15413752E+00 0.28742782E+04</pdfrwt>
<totfact> 0.14881678E+00</totfact>
</mgrwt>
</event>
<event>
12    1  0.1114484E-007  0.1278282E+04  0.7818608E-02  0.9046967E-01
         -2   -1    0    0    0  501 -0.00000000000E+00  0.00000000000E+00  0.25538166882E+03  0.25538166882E+03  0.00000000000E+00 0.  1.
          2   -1    0    0  501    0  0.00000000000E+00 -0.00000000000E+00 -0.15995713688E+04  0.15995713688E+04  0.00000000000E+00 0. -1.
         23    2    1    2    0    0 -0.22507699159E+03  0.39064352686E+02 -0.29922222865E+02  0.24790892027E+03  0.91530418618E+02 0.  0.
        254    2    1    2    0    0  0.22507699159E+03 -0.39064352686E+02 -0.13142674771E+04  0.16070441173E+04  0.89616188152E+03 0.  0.
        -24    2    4    4    0    0 -0.20437852688E+02  0.19248434929E+03 -0.12330797158E+04  0.12507285621E+04  0.79802380135E+02 0.  0.
         24    2    4    4    0    0  0.24551484428E+03 -0.23154870198E+03 -0.81187761314E+02  0.35631555529E+03  0.80479700577E+02 0.  0.
         11    1    3    3    0    0 -0.71466938207E+02 -0.24564236774E+02  0.11802204261E+02  0.76486711332E+02  0.00000000000E+00 0. -1.
        -11    1    3    3    0    0 -0.15361005339E+03  0.63628589460E+02 -0.41724427125E+02  0.17142220894E+03  0.00000000000E+00 0.  1.
          4    1    6    6  502    0  0.12975612492E+02 -0.25269753942E+02 -0.29942740469E+02  0.41273413847E+02  0.00000000000E+00 0. -1.
          3    1    5    5  503    0  0.49259503794E+01  0.78694448977E+02 -0.29212093565E+03  0.30257515154E+03  0.00000000000E+00 0. -1.
         -2    1    5    5    0  503 -0.25363803067E+02  0.11378990031E+03 -0.94095878015E+03  0.94815341051E+03  0.00000000000E+00 0.  1.
         -3    1    6    6    0  502  0.23253923179E+03 -0.20627894803E+03 -0.51245020845E+02  0.31504214144E+03  0.00000000000E+00 0.  1.
<mgrwt>
<rscale>  0 0.12782820E+04</rscale>
<asrwt>0</asrwt>
<pdfrwt beam="1">  1        2 0.24608789E+00 0.12782820E+04</pdfrwt>
<pdfrwt beam="2">  1       -2 0.39289489E-01 0.12782820E+04</pdfrwt>
<totfact> 0.67069445E+01</totfact>
</mgrwt>
</event>
<event>
12    1  0.1114484E-007  0.1168204E+04  0.7818608E-02  0.9141152E-01
         -2   -1    0    0    0  501 -0.00000000000E+00  0.00000000000E+00  0.18308653222E+03  0.18308653222E+03  0.00000000000E+00 0.  1.
          2   -1    0    0  501    0  0.00000000000E+00 -0.00000000000E+00 -0.18634649776E+04  0.18634649776E+04  0.00000000000E+00 0. -1.
         23    2    1    2    0    0 -0.24285436394E+03  0.17385614192E+03 -0.35045878559E+03  0.46977892804E+03  0.93095008788E+02 0.  0.
        254    2    1    2    0    0  0.24285436394E+03 -0.17385614192E+03 -0.13299196598E+04  0.15767725818E+04  0.79266718929E+03 0.  0.
        -24    2    4    4    0    0 -0.68303530093E+02  0.92080161350E+02  0.39472092160E+02  0.14531016274E+03  0.80080390854E+02 0.  0.
         24    2    4    4    0    0  0.31115789403E+03 -0.26593630327E+03 -0.13693917519E+04  0.14314624190E+04  0.79432577598E+02 0.  0.
         13    1    3    3    0    0 -0.41969893356E+02 -0.49686980794E+01 -0.65437399460E+02  0.77898736556E+02  0.00000000000E+00 0. -1.
        -13    1    3    3    0    0 -0.20088447058E+03  0.17882484000E+03 -0.28502138613E+03  0.39188019148E+03  0.00000000000E+00 0.  1.
          2    1    6    6  502    0  0.30514990922E+03 -0.23591376519E+03 -0.12463611911E+04  0.13046792672E+04  0.00000000000E+00 0. -1.
          3    1    5    5  503    0 -0.71934699682E+02  0.30690437517E+02  0.25333122952E+02  0.82208704477E+02  0.00000000000E+00 0. -1.
         -4    1    5    5    0  503  0.36311695889E+01  0.61389723834E+02  0.14138969208E+02  0.63101458266E+02  0.00000000000E+00 0.  1.
         -1    1    6    6    0  502  0.60079848161E+01 -0.30022538087E+02 -0.12303056085E+03  0.12678315179E+03  0.00000000000E+00 0.  1.
<mgrwt>
<rscale>  0 0.11682043E+04</rscale>
<asrwt>0</asrwt>
<pdfrwt beam="1">  1        2 0.28668689E+00 0.11682043E+04</pdfrwt>
<pdfrwt beam="2">  1       -2 0.28167162E-01 0.11682043E+04</pdfrwt>
<totfact> 0.90760934E+01</totfact>
</mgrwt>
</event>
<event>
12    1  0.1114484E-007  0.2411746E+04  0.7818608E-02  0.8435119E-01
         -1   -1    0    0    0  501 -0.00000000000E+00  0.00000000000E+00  0.47402155682E+03  0.47402155682E+03  0.00000000000E+00 0.  1.
          1   -1    0    0  501    0  0.00000000000E+00 -0.00000000000E+00 -0.30676443543E+04  0.30676443543E+04  0.00000000000E+00 0. -1.
         23    2    1    2    0    0  0.13609522058E+03  0.10200658600E+04 -0.12422511923E+04  0.16156756754E+04  0.90352617845E+02 0.  0.
        254    2    1    2    0    0 -0.13609522058E+03 -0.10200658600E+04 -0.13513716052E+04  0.19259902357E+04  0.90784189432E+03 0.  0.
        -24    2    4    4    0    0 -0.51386929392E+03 -0.55967747031E+03 -0.65578539556E+03  0.10068453254E+04  0.79890564284E+02 0.  0.
         24    2    4    4    0    0  0.37777407334E+03 -0.46038838967E+03 -0.69558620962E+03  0.91914491032E+03  0.79476231185E+02 0.  0.
         11    1    3    3    0    0  0.56896525550E+01  0.11583915247E+03 -0.18543861358E+03  0.21872027981E+03  0.00000000000E+00 0.  1.
        -11    1    3    3    0    0  0.13040556802E+03  0.90422670751E+03 -0.10568125787E+04  0.13969553956E+04  0.00000000000E+00 0. -1.
          2    1    6    6  502    0  0.17284912112E+03 -0.27286438229E+03 -0.36856617056E+03  0.49007429220E+03  0.00000000000E+00 0. -1.
          3    1    5    5  503    0 -0.42895726763E+03 -0.42129001320E+03 -0.50298611044E+03  0.78389070665E+03  0.00000000000E+00 0. -1.
         -4    1    5    5    0  503 -0.84912026297E+02 -0.13838745711E+03 -0.15279928511E+03  0.22295461876E+03  0.00000000000E+00 0.  1.
         -1    1    6    6    0  502  0.20492495222E+03 -0.18752400738E+03 -0.32702003906E+03  0.42907061812E+03  0.00000000000E+00 0.  1.
<mgrwt>
<rscale>  0 0.24117459E+04</rscale>
<asrwt>0</asrwt>
<pdfrwt beam="1">  1        1 0.47194530E+00 0.24117459E+04</pdfrwt>
<pdfrwt beam="2">  1       -1 0.72926392E-01 0.24117459E+04</pdfrwt>
<totfact> 0.90515224E-01</totfact>
</mgrwt>
</event>
<event>
12    1  0.1114484E-007  0.1826693E+04  0.7818608E-02  0.8692232E-01
          1   -1    0    0  501    0  0.00000000000E+00  0.00000000000E+00  0.11823818621E+04  0.11823818621E+04  0.00000000000E+00 0. -1.
         -1   -1    0    0    0  501 -0.00000000000E+00 -0.00000000000E+00 -0.70552657948E+03  0.70552657948E+03  0.00000000000E+00 0.  1.
         23    2    1    2    0    0  0.25699341031E+03  0.50108698920E+03 -0.22396204982E+03  0.61275508989E+03  0.90421329030E+02 0.  0.
        254    2    1    2    0    0 -0.25699341031E+03 -0.50108698920E+03  0.70081733241E+03  0.12751533517E+04  0.90428831307E+03 0.  0.
        -24    2    4    4    0    0  0.21407086889E+03 -0.18374448699E+03  0.63107658954E+03  0.69602287845E+03  0.81251535680E+02 0.  0.
         24    2    4    4    0    0 -0.47106427919E+03 -0.31734250221E+03  0.69740742860E+02  0.57913047320E+03  0.88997274895E+02 0.  0.
         11    1    3    3    0    0  0.95538615036E+01  0.46263380045E+02 -0.44113971095E+02  0.64634503546E+02  0.00000000000E+00 0. -1.
        -11    1    3    3    0    0  0.24743954880E+03  0.45482360915E+03 -0.17984807873E+03  0.54812058635E+03  0.00000000000E+00 0.  1.
          4    1    6    6  502    0 -0.38277142437E+03 -0.22261184878E+03  0.76942638825E+02  0.44943316322E+03  0.00000000000E+00 0. -1.
          3    1    5    5  503    0  0.17226246693E+03 -0.13204709584E+03  0.54930412733E+03  0.59063171040E+03  0.00000000000E+00 0. -1.
         -4    1    5    5    0  503  0.41808401951E+02 -0.51697391150E+02  0.81772462218E+02  0.10539116805E+03  0.00000000000E+00 0.  1.
         -3    1    6    6    0  502 -0.88292854822E+02 -0.94730653429E+02 -0.72018959642E+01  0.12969730998E+03  0.00000000000E+00 0.  1.
<mgrwt>
<rscale>  0 0.18266930E+04</rscale>
<asrwt>0</asrwt>
<pdfrwt beam="1">  1        1 0.18190490E+00 0.18266930E+04</pdfrwt>
<pdfrwt beam="2">  1       -1 0.10854255E+00 0.18266930E+04</pdfrwt>
<totfact> 0.81639669E+00</totfact>
</mgrwt>
</event>
<event>
12    1  0.1114484E-007  0.1613295E+04  0.7818608E-02  0.8812422E-01
          1   -1    0    0  501    0  0.00000000000E+00  0.00000000000E+00  0.25428790243E+04  0.25428790243E+04  0.00000000000E+00 0. -1.
         -1   -1    0    0    0  501 -0.00000000000E+00 -0.00000000000E+00 -0.25588311050E+03  0.25588311050E+03  0.00000000000E+00 0.  1.
         23    2    1    2    0    0  0.86762737132E+02 -0.11888008438E+03 -0.13005101752E+03  0.21570445081E+03  0.89190223251E+02 0.  0.
        254    2    1    2    0    0 -0.86762737132E+02  0.11888008438E+03  0.24170469314E+04  0.25830576840E+04  0.89911672411E+03 0.  0.
        -24    2    4    4    0    0  0.31561490359E+03  0.26372710990E+03  0.16367163904E+04  0.16894914773E+04  0.79850819841E+02 0.  0.
         24    2    4    4    0    0 -0.40237764072E+03 -0.14484702552E+03  0.78033054097E+03  0.89356620673E+03  0.81586678290E+02 0.  0.
         11    1    3    3    0    0  0.19625367726E+01  0.15745452025E+01  0.11281830596E+02  0.11558998433E+02  0.00000000000E+00 0. -1.
        -11    1    3    3    0    0  0.84800200359E+02 -0.12045462958E+03 -0.14133284812E+03  0.20414545238E+03  0.00000000000E+00 0.  1.
          2    1    6    6  502    0 -0.16232719360E+03 -0.33791922181E+02  0.36894067079E+03  0.40448637845E+03  0.00000000000E+00 0. -1.
          1    1    5    5  503    0  0.45211513871E+01  0.27223894990E+02  0.87552373785E+02  0.91798689662E+02  0.00000000000E+00 0. -1.
         -2    1    5    5    0  503  0.31109375220E+03  0.23650321491E+03  0.15491640166E+04  0.15976927876E+04  0.00000000000E+00 0.  1.
         -1    1    6    6    0  502 -0.24005044711E+03 -0.11105510334E+03  0.41138987018E+03  0.48907982828E+03  0.00000000000E+00 0.  1.
<mgrwt>
<rscale>  0 0.16132945E+04</rscale>
<asrwt>0</asrwt>
<pdfrwt beam="1">  1        1 0.39121214E+00 0.16132945E+04</pdfrwt>
<pdfrwt beam="2">  1       -1 0.39366634E-01 0.16132945E+04</pdfrwt>
<totfact> 0.76195353E+00</totfact>
</mgrwt>
</event>
<event>
12    1  0.1114484E-007  0.4005619E+04  0.7818608E-02  0.8003414E-01
          1   -1    0    0  501    0  0.00000000000E+00  0.00000000000E+00  0.30708215854E+04  0.30708215854E+04  0.00000000000E+00 0.  1.
         -1   -1    0    0    0  501 -0.00000000000E+00 -0.00000000000E+00 -0.13062451305E+04  0.13062451305E+04  0.00000000000E+00 0. -1.
         23    2    1    2    0    0 -0.93262718993E+03  0.15240515708E+04  0.13314774809E+03  0.17943797597E+04  0.97692032778E+02 0.  0.
        254    2    1    2    0    0  0.93262718993E+03 -0.15240515708E+04  0.16314287069E+04  0.25826869562E+04  0.90342992105E+03 0.  0.
        -24    2    4    4    0    0  0.12775142226E+03 -0.39260577702E+03 -0.22996204895E+02  0.42123448980E+03  0.80311567763E+02 0.  0.
         24    2    4    4    0    0  0.80487576767E+03 -0.11314457938E+04  0.16544249118E+04  0.21614524664E+04  0.82221591905E+02 0.  0.
         13    1    3    3    0    0 -0.81322419130E+03  0.13235356943E+04  0.14855985398E+03  0.15604968279E+04  0.00000000000E+00 0. -1.
        -13    1    3    3    0    0 -0.11940299864E+03  0.20051587645E+03 -0.15412105885E+02  0.23388293182E+03  0.00000000000E+00 0.  1.
          2    1    6    6  502    0  0.77037127666E+03 -0.10667010397E+04  0.15898032092E+04  0.20636853578E+04  0.00000000000E+00 0. -1.
          3    1    5    5  503    0  0.93981906971E+02 -0.16056049640E+03 -0.14069937488E+02  0.18657501167E+03  0.00000000000E+00 0. -1.
         -4    1    5    5    0  503  0.33769515291E+02 -0.23204528063E+03 -0.89262674075E+01  0.23465947813E+03  0.00000000000E+00 0.  1.
         -1    1    6    6    0  502  0.34504491008E+02 -0.64744754105E+02  0.64621702561E+02  0.97767108609E+02  0.00000000000E+00 0.  1.
<mgrwt>
<rscale>  0 0.40056189E+04</rscale>
<asrwt>0</asrwt>
<pdfrwt beam="1">  1        1 0.47243409E+00 0.40056189E+04</pdfrwt>
<pdfrwt beam="2">  1       -1 0.20096079E+00 0.40056189E+04</pdfrwt>
<totfact> 0.61455711E-02</totfact>
</mgrwt>
</event>
<event>
12    1  0.1114484E-007  0.1076671E+04  0.7818608E-02  0.9228233E-01
         -2   -1    0    0    0  501 -0.00000000000E+00  0.00000000000E+00  0.20490482007E+03  0.20490482007E+03  0.00000000000E+00 0. -1.
          2   -1    0    0  501    0  0.00000000000E+00 -0.00000000000E+00 -0.14143389080E+04  0.14143389080E+04  0.00000000000E+00 0.  1.
         23    2    1    2    0    0 -0.22395034434E+02  0.21519266760E+02  0.14436915655E+02  0.10020093426E+03  0.94165738379E+02 0.  0.
        254    2    1    2    0    0  0.22395034434E+02 -0.21519266760E+02 -0.12238710036E+04  0.15190427938E+04  0.89925867223E+03 0.  0.
        -24    2    4    4    0    0  0.42758763429E+03 -0.59530946079E+02 -0.86512951886E+03  0.97017444688E+03  0.80089040698E+02 0.  0.
         24    2    4    4    0    0 -0.40519259986E+03  0.38011679320E+02 -0.35874148471E+03  0.54886834691E+03  0.83277119588E+02 0.  0.
         11    1    3    3    0    0 -0.13596468870E+02  0.26322063558E+02  0.52803278324E+02  0.60546686098E+02  0.00000000000E+00 0. -1.
        -11    1    3    3    0    0 -0.87985655638E+01 -0.48027967985E+01 -0.38366362669E+02  0.39654248165E+02  0.00000000000E+00 0.  1.
          4    1    6    6  502    0 -0.37228486479E+01  0.12188810314E+02 -0.15277828163E+02  0.19895696326E+02  0.00000000000E+00 0. -1.
          1    1    5    5  503    0  0.97692703437E+02 -0.11782347630E+02 -0.13034644547E+03  0.16331835128E+03  0.00000000000E+00 0. -1.
         -2    1    5    5    0  503  0.32989493085E+03 -0.47748598450E+02 -0.73478307340E+03  0.80685609560E+03  0.00000000000E+00 0.  1.
         -3    1    6    6    0  502 -0.40146975121E+03  0.25822869006E+02 -0.34346365654E+03  0.52897265058E+03  0.00000000000E+00 0.  1.
<mgrwt>
<rscale>  0 0.10766705E+04</rscale>
<asrwt>0</asrwt>
<pdfrwt beam="1">  1        2 0.21759060E+00 0.10766705E+04</pdfrwt>
<pdfrwt beam="2">  1       -2 0.31523818E-01 0.10766705E+04</pdfrwt>
<totfact> 0.13179157E+02</totfact>
</mgrwt>
</event>
<event>
12    1  0.1122223E-007  0.1594448E+04  0.7818608E-02  0.8823966E-01
         -2   -1    0    0    0  501 -0.00000000000E+00  0.00000000000E+00  0.42255593074E+03  0.42255593074E+03  0.00000000000E+00 0.  1.
          2   -1    0    0  501    0  0.00000000000E+00 -0.00000000000E+00 -0.15040991417E+04  0.15040991417E+04  0.00000000000E+00 0. -1.
         23    2    1    2    0    0 -0.18974086810E+03 -0.88294658229E+02  0.22860781587E+03  0.32301554921E+03  0.90994328688E+02 0.  0.
        254    2    1    2    0    0  0.18974086810E+03  0.88294658229E+02 -0.13101510268E+04  0.16036395232E+04  0.90075882659E+03 0.  0.
        -24    2    4    4    0    0 -0.89286198599E+02  0.19779730689E+03  0.25823090440E+02  0.23212340594E+03  0.78221759848E+02 0.  0.
         24    2    4    4    0    0  0.27902706670E+03 -0.10950264866E+03 -0.13359741173E+04  0.13715161173E+04  0.79891701497E+02 0.  0.
         13    1    3    3    0    0 -0.53044651963E+02 -0.75749992204E+01  0.12769617153E+02  0.55083380772E+02  0.00000000000E+00 0. -1.
        -13    1    3    3    0    0 -0.13669621614E+03 -0.80719659008E+02  0.21583819872E+03  0.26793216843E+03  0.00000000000E+00 0.  1.
          4    1    6    6  502    0  0.25152645166E+03 -0.11724283402E+03 -0.11303548277E+04  0.11639215930E+04  0.00000000000E+00 0. -1.
          3    1    5    5  503    0 -0.94291877567E+02  0.18105393835E+03  0.40126662003E+01  0.20417538602E+03  0.00000000000E+00 0. -1.
         -4    1    5    5    0  503  0.50056789678E+01  0.16743368537E+02  0.21810424239E+02  0.27948019919E+02  0.00000000000E+00 0.  1.
         -3    1    6    6    0  502  0.27500615034E+02  0.77401853686E+01 -0.20561928955E+03  0.20759452433E+03  0.00000000000E+00 0.  1.
<mgrwt>
<rscale>  0 0.15944479E+04</rscale>
<asrwt>0</asrwt>
<pdfrwt beam="1">  1        2 0.23139987E+00 0.15944479E+04</pdfrwt>
<pdfrwt beam="2">  1       -2 0.65008604E-01 0.15944479E+04</pdfrwt>
<totfact> 0.26434134E+01</totfact>
</mgrwt>
</event>
<event>
12    1  0.1114484E-007  0.3367822E+04  0.7818608E-02  0.8145849E-01
          2   -1    0    0  501    0  0.00000000000E+00  0.00000000000E+00  0.37605564600E+04  0.37605564600E+04  0.00000000000E+00 0. -1.
         -2   -1    0    0    0  501 -0.00000000000E+00 -0.00000000000E+00 -0.75402554662E+03  0.75402554662E+03  0.00000000000E+00 0.  1.
         23    2    1    2    0    0 -0.94197967879E+03 -0.31976555636E+03  0.30097960729E+04  0.31711641640E+04  0.88510046752E+02 0.  0.
        254    2    1    2    0    0  0.94197967879E+03  0.31976555636E+03 -0.32651595042E+01  0.13434178426E+04  0.90287602267E+03 0.  0.
        -24    2    4    4    0    0  0.82594959891E+03  0.60422520143E+03 -0.81015495460E+01  0.10262219215E+04  0.76058944929E+02 0.  0.
         24    2    4    4    0    0  0.11603007988E+03 -0.28445964507E+03  0.48363900417E+01  0.31719592111E+03  0.78800968225E+02 0.  0.
         11    1    3    3    0    0 -0.25204470934E+03 -0.46132891630E+02  0.80412952608E+03  0.84396627534E+03  0.00000000000E+00 0.  1.
        -11    1    3    3    0    0 -0.68993496944E+03 -0.27363266473E+03  0.22056665468E+04  0.23271978887E+04  0.00000000000E+00 0. -1.
          4    1    6    6  502    0  0.82025156363E+02 -0.26299634942E+03 -0.59758357563E+01  0.27555565082E+03  0.00000000000E+00 0. -1.
          3    1    5    5  503    0  0.42592637579E+03  0.32838220622E+03  0.31225501766E+02  0.53872366100E+03  0.00000000000E+00 0. -1.
         -4    1    5    5    0  503  0.40002322312E+03  0.27584299520E+03 -0.39327051312E+02  0.48749826051E+03  0.00000000000E+00 0.  1.
         -3    1    6    6    0  502  0.34004923514E+02 -0.21463295641E+02  0.10812225798E+02  0.41640270288E+02  0.00000000000E+00 0.  1.
<mgrwt>
<rscale>  0 0.33678216E+04</rscale>
<asrwt>0</asrwt>
<pdfrwt beam="1">  1        2 0.57854714E+00 0.33678216E+04</pdfrwt>
<pdfrwt beam="2">  1       -2 0.11600393E+00 0.33678216E+04</pdfrwt>
<totfact> 0.25174741E-01</totfact>
</mgrwt>
</event>
<event>
12    1  0.1114484E-007  0.2468335E+04  0.7818608E-02  0.8414354E-01
         -1   -1    0    0    0  501 -0.00000000000E+00  0.00000000000E+00  0.63608634205E+03  0.63608634205E+03  0.00000000000E+00 0.  1.
          1   -1    0    0  501    0  0.00000000000E+00 -0.00000000000E+00 -0.23945950986E+04  0.23945950986E+04  0.00000000000E+00 0. -1.
         23    2    1    2    0    0  0.38362610961E+03 -0.53537749270E+03 -0.18020362694E+04  0.19208396571E+04  0.92153243388E+02 0.  0.
        254    2    1    2    0    0 -0.38362610961E+03  0.53537749270E+03  0.43527512901E+02  0.11098417835E+04  0.89221975344E+03 0.  0.
        -24    2    4    4    0    0 -0.42510763172E+03 -0.74310699439E+02 -0.15037587200E+03  0.46401332834E+03  0.80354759698E+02 0.  0.
         24    2    4    4    0    0  0.41481522102E+02  0.60968819214E+03  0.19390338490E+03  0.64582845519E+03  0.77816852539E+02 0.  0.
         11    1    3    3    0    0  0.82369082584E+02 -0.16610156161E+03 -0.59129008581E+03  0.61967601221E+03  0.00000000000E+00 0.  1.
        -11    1    3    3    0    0  0.30125702703E+03 -0.36927593109E+03 -0.12107461836E+04  0.13011636449E+04  0.00000000000E+00 0. -1.
          2    1    6    6  502    0  0.99307118820E+01  0.15701219699E+03  0.14921891477E+02  0.15803199640E+03  0.00000000000E+00 0. -1.
          3    1    5    5  503    0 -0.36786249490E+03 -0.81477762863E+02 -0.10652284451E+03  0.39154636685E+03  0.00000000000E+00 0. -1.
         -4    1    5    5    0  503 -0.57245136818E+02  0.71670634242E+01 -0.43853027492E+02  0.72466961491E+02  0.00000000000E+00 0.  1.
         -1    1    6    6    0  502  0.31550810220E+02  0.45267599515E+03  0.17898149343E+03  0.48779645878E+03  0.00000000000E+00 0.  1.
<mgrwt>
<rscale>  0 0.24683349E+04</rscale>
<asrwt>0</asrwt>
<pdfrwt beam="1">  1        1 0.36839925E+00 0.24683349E+04</pdfrwt>
<pdfrwt beam="2">  1       -1 0.97859437E-01 0.24683349E+04</pdfrwt>
<totfact> 0.14289562E+00</totfact>
</mgrwt>
</event>
<event>
12    1  0.1114484E-007  0.1228921E+04  0.7818608E-02  0.9087912E-01
         -2   -1    0    0    0  501 -0.00000000000E+00  0.00000000000E+00  0.12608148676E+04  0.12608148676E+04  0.00000000000E+00 0.  1.
          2   -1    0    0  501    0  0.00000000000E+00 -0.00000000000E+00 -0.29945850981E+03  0.29945850981E+03  0.00000000000E+00 0. -1.
         23    2    1    2    0    0 -0.23799601880E+02 -0.27192180825E+03  0.14335376476E+03  0.32066458787E+03  0.88133904882E+02 0.  0.
        254    2    1    2    0    0  0.23799601880E+02  0.27192180825E+03  0.81800259302E+03  0.12396087895E+04  0.89050200340E+03 0.  0.
        -24    2    4    4    0    0 -0.16247389989E+03  0.46885418446E+03  0.81431259689E+03  0.95685567106E+03  0.79030091444E+02 0.  0.
         24    2    4    4    0    0  0.18627350177E+03 -0.19693237622E+03  0.36899961291E+01  0.28275311847E+03  0.80346323323E+02 0.  0.
         13    1    3    3    0    0 -0.31413692198E+02 -0.25943895398E+03  0.10867515032E+03  0.28302946701E+03  0.00000000000E+00 0. -1.
        -13    1    3    3    0    0  0.76140903184E+01 -0.12482854269E+02  0.34678614446E+02  0.37635120858E+02  0.00000000000E+00 0.  1.
          4    1    6    6  502    0  0.41183462352E+02 -0.76385190447E+01 -0.12474006581E+02  0.43703837185E+02  0.00000000000E+00 0. -1.
          3    1    5    5  503    0 -0.17739415599E+02  0.12224189446E+03  0.15671562441E+03  0.19954336511E+03  0.00000000000E+00 0. -1.
         -4    1    5    5    0  503 -0.14473448429E+03  0.34661229001E+03  0.65759697248E+03  0.75731230595E+03  0.00000000000E+00 0.  1.
         -3    1    6    6    0  502  0.14509003941E+03 -0.18929385717E+03  0.16164002710E+02  0.23904928129E+03  0.00000000000E+00 0.  1.
<mgrwt>
<rscale>  0 0.12289211E+04</rscale>
<asrwt>0</asrwt>
<pdfrwt beam="1">  1        2 0.46070541E-01 0.12289211E+04</pdfrwt>
<pdfrwt beam="2">  1       -2 0.19397152E+00 0.12289211E+04</pdfrwt>
<totfact> 0.15783758E+01</totfact>
</mgrwt>
</event>
<event>
12    1  0.1114484E-007  0.1765877E+04  0.7818608E-02  0.8724659E-01
          2   -1    0    0  501    0  0.00000000000E+00  0.00000000000E+00  0.21543667782E+04  0.21543667782E+04  0.00000000000E+00 0. -1.
         -2   -1    0    0    0  501 -0.00000000000E+00 -0.00000000000E+00 -0.36186061326E+03  0.36186061326E+03  0.00000000000E+00 0.  1.
         23    2    1    2    0    0  0.33767882944E+03 -0.21885442664E+03 -0.57364060116E+02  0.41695502863E+03  0.92933355680E+02 0.  0.
        254    2    1    2    0    0 -0.33767882944E+03  0.21885442664E+03  0.18498702251E+04  0.20992723629E+04  0.90719366833E+03 0.  0.
        -24    2    4    4    0    0  0.13405789829E+03 -0.21584117398E+03  0.97844210440E+03  0.10140995362E+04  0.80560443826E+02 0.  0.
         24    2    4    4    0    0 -0.47173672773E+03  0.43469560063E+03  0.87142812070E+03  0.10851728267E+04  0.81959067634E+02 0.  0.
         13    1    3    3    0    0  0.92831437395E+02 -0.36291773138E+02  0.20521113986E+02  0.10176386729E+03  0.00000000000E+00 0. -1.
        -13    1    3    3    0    0  0.24484739204E+03 -0.18256265350E+03 -0.77885174102E+02  0.31519116135E+03  0.00000000000E+00 0.  1.
          2    1    6    6  502    0 -0.34794586985E+03  0.36638921080E+03  0.68510317994E+03  0.85127771573E+03  0.00000000000E+00 0. -1.
          1    1    5    5  503    0  0.13710102170E+03 -0.21393036342E+03  0.88937242806E+03  0.92495740785E+03  0.00000000000E+00 0. -1.
         -2    1    5    5    0  503 -0.30431234152E+01 -0.19108105617E+01  0.89069676343E+02  0.89142128317E+02  0.00000000000E+00 0.  1.
         -1    1    6    6    0  502 -0.12379085788E+03  0.68306389827E+02  0.18632494076E+03  0.23389511097E+03  0.00000000000E+00 0.  1.
<mgrwt>
<rscale>  0 0.17658771E+04</rscale>
<asrwt>0</asrwt>
<pdfrwt beam="1">  1        2 0.33144104E+00 0.17658771E+04</pdfrwt>
<pdfrwt beam="2">  1       -2 0.55670865E-01 0.17658771E+04</pdfrwt>
<totfact> 0.15723889E+01</totfact>
</mgrwt>
</event>
<event>
12    1  0.1114484E-007  0.1255690E+04  0.7818608E-02  0.9065461E-01
         -1   -1    0    0    0  501 -0.00000000000E+00  0.00000000000E+00  0.21797971993E+03  0.21797971993E+03  0.00000000000E+00 0.  1.
          1   -1    0    0  501    0  0.00000000000E+00 -0.00000000000E+00 -0.18083763001E+04  0.18083763001E+04  0.00000000000E+00 0. -1.
         23    2    1    2    0    0 -0.22534461547E+03 -0.16403653247E+03 -0.56744450013E+03  0.63868773566E+03  0.90777658357E+02 0.  0.
        254    2    1    2    0    0  0.22534461547E+03  0.16403653247E+03 -0.10229520800E+04  0.13876682843E+04  0.89526763020E+03 0.  0.
        -24    2    4    4    0    0  0.32798709423E+03  0.44077617186E+03 -0.89958970877E+03  0.10574427612E+04  0.84049875172E+02 0.  0.
         24    2    4    4    0    0 -0.10264247876E+03 -0.27673963939E+03 -0.12336237124E+03  0.33022552310E+03  0.81916512472E+02 0.  0.
         11    1    3    3    0    0 -0.23978559689E+02 -0.22476738524E+02 -0.20053738787E+02  0.38501006984E+02  0.00000000000E+00 0.  1.
        -11    1    3    3    0    0 -0.20136605578E+03 -0.14155979395E+03 -0.54739076134E+03  0.60018672868E+03  0.00000000000E+00 0. -1.
          2    1    6    6  502    0 -0.63239689170E+02 -0.25191989956E+03 -0.10349358241E+03  0.27959580770E+03  0.00000000000E+00 0. -1.
          3    1    5    5  503    0  0.23237042219E+03  0.32623655468E+03 -0.72048053592E+03  0.82432912441E+03  0.00000000000E+00 0. -1.
         -4    1    5    5    0  503  0.95616672040E+02  0.11453961718E+03 -0.17910917285E+03  0.23311363683E+03  0.00000000000E+00 0.  1.
         -1    1    6    6    0  502 -0.39402789590E+02 -0.24819739828E+02 -0.19868788835E+02  0.50629715408E+02  0.00000000000E+00 0.  1.
<mgrwt>
<rscale>  0 0.12556900E+04</rscale>
<asrwt>0</asrwt>
<pdfrwt beam="1">  1        1 0.27821175E+00 0.12556900E+04</pdfrwt>
<pdfrwt beam="2">  1       -1 0.33535341E-01 0.12556900E+04</pdfrwt>
<totfact> 0.33222848E+01</totfact>
</mgrwt>
</event>
<event>
12    1  0.1114484E-007  0.2155315E+04  0.7818608E-02  0.8537261E-01
          4   -1    0    0  501    0  0.00000000000E+00  0.00000000000E+00  0.13389501382E+04  0.13389501382E+04  0.00000000000E+00 0. -1.
         -4   -1    0    0    0  501 -0.00000000000E+00 -0.00000000000E+00 -0.86735551515E+03  0.86735551515E+03  0.00000000000E+00 0.  1.
         23    2    1    2    0    0 -0.68313564814E+03  0.52923197105E+03  0.45211838453E+03  0.97956196282E+03  0.91486678943E+02 0.  0.
        254    2    1    2    0    0  0.68313564814E+03 -0.52923197105E+03  0.19476238499E+02  0.12267436905E+04  0.87049409269E+03 0.  0.
        -24    2    4    4    0    0  0.40893071437E+03 -0.74463338882E+03 -0.75527848479E+02  0.85646955157E+03  0.78309794764E+02 0.  0.
         24    2    4    4    0    0  0.27420493377E+03  0.21540141777E+03  0.95004086978E+02  0.37027413895E+03  0.80567021478E+02 0.  0.
         11    1    3    3    0    0 -0.60252637100E+03  0.48324209825E+03  0.43059729244E+03  0.88429349287E+03  0.00000000000E+00 0.  1.
        -11    1    3    3    0    0 -0.80609277147E+02  0.45989872800E+02  0.21521092089E+02  0.95268469952E+02  0.00000000000E+00 0. -1.
          2    1    6    6  502    0  0.57880864429E+00 -0.46959095067E+01 -0.31125457841E+01  0.56634377193E+01  0.00000000000E+00 0. -1.
          1    1    5    5  503    0  0.20134046138E+03 -0.28662204454E+03 -0.30264549462E+02  0.35157662146E+03  0.00000000000E+00 0. -1.
         -2    1    5    5    0  503  0.20759025299E+03 -0.45801134429E+03 -0.45263299017E+02  0.50489293011E+03  0.00000000000E+00 0.  1.
         -1    1    6    6    0  502  0.27362612513E+03  0.22009732728E+03  0.98116632762E+02  0.36461070123E+03  0.00000000000E+00 0.  1.
<mgrwt>
<rscale>  0 0.21553151E+04</rscale>
<asrwt>0</asrwt>
<pdfrwt beam="1">  1        4 0.20599233E+00 0.21553151E+04</pdfrwt>
<pdfrwt beam="2">  1       -4 0.13343931E+00 0.21553151E+04</pdfrwt>
<totfact> 0.89173221E-02</totfact>
</mgrwt>
</event>
<event>
12    1  0.1214273E-007  0.2990493E+04  0.7818608E-02  0.8246451E-01
         -1   -1    0    0    0  501 -0.00000000000E+00  0.00000000000E+00  0.11523255662E+04  0.11523255662E+04  0.00000000000E+00 0.  1.
          1   -1    0    0  501    0  0.00000000000E+00 -0.00000000000E+00 -0.19402168892E+04  0.19402168892E+04  0.00000000000E+00 0. -1.
         23    2    1    2    0    0  0.31290259976E+03  0.86261321590E+03 -0.13923647271E+04  0.16692598668E+04  0.75758644828E+02 0.  0.
        254    2    1    2    0    0 -0.31290259976E+03 -0.86261321590E+03  0.60447340416E+03  0.14232825887E+04  0.90461905451E+03 0.  0.
        -24    2    4    4    0    0 -0.36253754922E+03 -0.26320999230E+03  0.67328494689E+03  0.81241888042E+03  0.77452197598E+02 0.  0.
         24    2    4    4    0    0  0.49634949456E+02 -0.59940322360E+03 -0.68811542737E+02  0.61086370828E+03  0.81679795596E+02 0.  0.
         11    1    3    3    0    0  0.11704017237E+03  0.36055599699E+03 -0.51224782325E+03  0.63725729603E+03  0.00000000000E+00 0. -1.
        -11    1    3    3    0    0  0.19586242739E+03  0.50205721890E+03 -0.88011690389E+03  0.10320025707E+04  0.00000000000E+00 0.  1.
          2    1    6    6  502    0  0.40472327601E+02 -0.57667405885E+03 -0.80573757120E+02  0.58368065737E+03  0.00000000000E+00 0. -1.
          1    1    5    5  503    0 -0.34839655310E+03 -0.23182258072E+03  0.63898935396E+03  0.76382541305E+03  0.00000000000E+00 0. -1.
         -2    1    5    5    0  503 -0.14140996121E+02 -0.31387411576E+02  0.34295592930E+02  0.48593467371E+02  0.00000000000E+00 0.  1.
         -1    1    6    6    0  502  0.91626218548E+01 -0.22729164751E+02  0.11762214383E+02  0.27183050909E+02  0.00000000000E+00 0.  1.
<mgrwt>
<rscale>  0 0.29904926E+04</rscale>
<asrwt>0</asrwt>
<pdfrwt beam="1">  1        1 0.29849490E+00 0.29904926E+04</pdfrwt>
<pdfrwt beam="2">  1       -1 0.17728086E+00 0.29904926E+04</pdfrwt>
<totfact> 0.60676264E-01</totfact>
</mgrwt>
</event>
<event>
12    1  0.1114484E-007  0.1187740E+04  0.7818608E-02  0.9123656E-01
          1   -1    0    0  501    0  0.00000000000E+00  0.00000000000E+00  0.14103827587E+04  0.14103827587E+04  0.00000000000E+00 0. -1.
         -1   -1    0    0    0  501 -0.00000000000E+00 -0.00000000000E+00 -0.25006102698E+03  0.25006102698E+03  0.00000000000E+00 0.  1.
         23    2    1    2    0    0 -0.21360511285E+03  0.76117243629E+02  0.38643457223E+03  0.45554066428E+03  0.82247426643E+02 0.  0.
        254    2    1    2    0    0  0.21360511285E+03 -0.76117243629E+02  0.77388715947E+03  0.12049031214E+04  0.89524813170E+03 0.  0.
        -24    2    4    4    0    0 -0.38369022551E+02  0.10633715526E+03  0.86109503870E+03  0.87219094027E+03  0.80328065745E+02 0.  0.
         24    2    4    4    0    0  0.25197413540E+03 -0.18245439889E+03 -0.87207879226E+02  0.33271218111E+03  0.79445633471E+02 0.  0.
         11    1    3    3    0    0 -0.21982860283E+03  0.73735586642E+02  0.35944679881E+03  0.42774239038E+03  0.00000000000E+00 0.  1.
        -11    1    3    3    0    0  0.62234899796E+01  0.23816569869E+01  0.26987773421E+02  0.27798273898E+02  0.00000000000E+00 0. -1.
          2    1    6    6  502    0  0.21721135421E+03 -0.13158905155E+03 -0.93845636890E+02  0.27074610699E+03  0.00000000000E+00 0. -1.
          3    1    5    5  503    0 -0.60500880306E+02  0.66505467013E+02  0.65335867707E+03  0.65951565149E+03  0.00000000000E+00 0. -1.
         -4    1    5    5    0  503  0.22131857755E+02  0.39831688246E+02  0.20773636163E+03  0.21267528878E+03  0.00000000000E+00 0.  1.
         -1    1    6    6    0  502  0.34762781189E+02 -0.50865347334E+02  0.66377576638E+01  0.61966074123E+02  0.00000000000E+00 0.  1.
<mgrwt>
<rscale>  0 0.11877403E+04</rscale>
<asrwt>0</asrwt>
<pdfrwt beam="1">  1        1 0.21698196E+00 0.11877403E+04</pdfrwt>
<pdfrwt beam="2">  1       -1 0.38470928E-01 0.11877403E+04</pdfrwt>
<totfact> 0.48928596E+01</totfact>
</mgrwt>
</event>
<event>
12    1  0.1114484E-007  0.2345328E+04  0.7818608E-02  0.8460260E-01
          4   -1    0    0  501    0  0.00000000000E+00  0.00000000000E+00  0.15220333344E+04  0.15220333344E+04  0.00000000000E+00 0. -1.
         -4   -1    0    0    0  501 -0.00000000000E+00 -0.00000000000E+00 -0.90348934702E+03  0.90348934702E+03  0.00000000000E+00 0.  1.
         23    2    1    2    0    0  0.58693897221E+03  0.37593659409E+03 -0.47647465478E+03  0.84919404644E+03  0.90976656199E+02 0.  0.
        254    2    1    2    0    0 -0.58693897221E+03 -0.37593659409E+03  0.10950186421E+04  0.15763286350E+04  0.89438272507E+03 0.  0.
        -24    2    4    4    0    0 -0.72663250325E+03 -0.34244714893E+03  0.11488695933E+04  0.14041104607E+04  0.79749601469E+02 0.  0.
         24    2    4    4    0    0  0.13969353104E+03 -0.33489445161E+02 -0.53850951176E+02  0.17221817422E+03  0.78251830887E+02 0.  0.
         11    1    3    3    0    0  0.24470450179E+03  0.12155132522E+03 -0.22648809531E+03  0.35489699235E+03  0.00000000000E+00 0. -1.
        -11    1    3    3    0    0  0.34223447042E+03  0.25438526888E+03 -0.24998655947E+03  0.49429705409E+03  0.00000000000E+00 0.  1.
          4    1    6    6  502    0  0.74995812348E+02  0.22086327854E+02 -0.28930976239E+02  0.83361736630E+02  0.00000000000E+00 0. -1.
          1    1    5    5  503    0 -0.30453987669E+01 -0.10520529408E+02  0.12283661941E+02  0.16457349220E+02  0.00000000000E+00 0. -1.
         -2    1    5    5    0  503 -0.72358710449E+03 -0.33192661953E+03  0.11365859314E+04  0.13876531115E+04  0.00000000000E+00 0.  1.
         -3    1    6    6    0  502  0.64697718694E+02 -0.55575773015E+02 -0.24919974937E+02  0.88856437590E+02  0.00000000000E+00 0.  1.
<mgrwt>
<rscale>  0 0.23453280E+04</rscale>
<asrwt>0</asrwt>
<pdfrwt beam="1">  1        4 0.23415898E+00 0.23453280E+04</pdfrwt>
<pdfrwt beam="2">  1       -4 0.13899836E+00 0.23453280E+04</pdfrwt>
<totfact> 0.52113011E-02</totfact>
</mgrwt>
</event>
<event>
12    1  0.1114484E-007  0.1415197E+04  0.7818608E-02  0.8942891E-01
          1   -1    0    0  501    0  0.00000000000E+00  0.00000000000E+00  0.31663772616E+04  0.31663772616E+04  0.00000000000E+00 0. -1.
         -1   -1    0    0    0  501 -0.00000000000E+00 -0.00000000000E+00 -0.15812894365E+03  0.15812894365E+03  0.00000000000E+00 0.  1.
         23    2    1    2    0    0  0.39061508483E+02 -0.16021303009E+03  0.17890335727E+04  0.17990757705E+04  0.94013228661E+02 0.  0.
        254    2    1    2    0    0 -0.39061508483E+02  0.16021303009E+03  0.12192147452E+04  0.15254304348E+04  0.90180895975E+03 0.  0.
        -24    2    4    4    0    0  0.43761449928E+02  0.78399466500E+02  0.13367500021E+04  0.13421579703E+04  0.80161763032E+02 0.  0.
         24    2    4    4    0    0 -0.82822958412E+02  0.81813563586E+02 -0.11753525683E+03  0.18327246452E+03  0.78874317923E+02 0.  0.
         11    1    3    3    0    0  0.39705489105E+02 -0.17274300659E+03  0.16782574017E+04  0.16875913541E+04  0.00000000000E+00 0. -1.
        -11    1    3    3    0    0 -0.64398062189E+00  0.12529976509E+02  0.11077617109E+03  0.11148441642E+03  0.00000000000E+00 0.  1.
          4    1    6    6  502    0 -0.56170104882E+02  0.94314420750E+02 -0.81386965260E+02  0.13665331594E+03  0.00000000000E+00 0. -1.
          1    1    5    5  503    0  0.15475538196E+02 -0.45352692251E+01  0.52473870627E+02  0.54895974789E+02  0.00000000000E+00 0. -1.
         -2    1    5    5    0  503  0.28285911732E+02  0.82934735725E+02  0.12842761314E+04  0.12872619955E+04  0.00000000000E+00 0.  1.
         -3    1    6    6    0  502 -0.26652853529E+02 -0.12500857164E+02 -0.36148291566E+02  0.46619148579E+02  0.00000000000E+00 0.  1.
<mgrwt>
<rscale>  0 0.14151974E+04</rscale>
<asrwt>0</asrwt>
<pdfrwt beam="1">  1        1 0.48713492E+00 0.14151974E+04</pdfrwt>
<pdfrwt beam="2">  1       -1 0.24327532E-01 0.14151974E+04</pdfrwt>
<totfact> 0.65007139E+00</totfact>
</mgrwt>
</event>
<event>
12    1  0.1114484E-007  0.1932492E+04  0.7818608E-02  0.8638850E-01
          2   -1    0    0  501    0  0.00000000000E+00  0.00000000000E+00  0.97362640967E+03  0.97362640967E+03  0.00000000000E+00 0. -1.
         -2   -1    0    0    0  501 -0.00000000000E+00 -0.00000000000E+00 -0.95892153567E+03  0.95892153567E+03  0.00000000000E+00 0.  1.
         23    2    1    2    0    0 -0.66378780140E+03 -0.23136896657E+03  0.28052264550E+03  0.76241555032E+03  0.91862248805E+02 0.  0.
        254    2    1    2    0    0  0.66378780140E+03  0.23136896657E+03 -0.26581777150E+03  0.11701323950E+04  0.89688621924E+03 0.  0.
        -24    2    4    4    0    0  0.26085990372E+03  0.22458777483E+03 -0.56176342405E+03  0.66335679516E+03  0.77308053379E+02 0.  0.
         24    2    4    4    0    0  0.40292789768E+03  0.67811917337E+01  0.29594565255E+03  0.50677559986E+03  0.82709153427E+02 0.  0.
         11    1    3    3    0    0 -0.60463783484E+03 -0.22396144754E+03  0.27960186294E+03  0.70279644497E+03  0.00000000000E+00 0. -1.
        -11    1    3    3    0    0 -0.59149966562E+02 -0.74075190300E+01  0.92078255746E+00  0.59619105352E+02  0.00000000000E+00 0.  1.
          2    1    6    6  502    0  0.86027632914E+02 -0.29605446488E+02  0.48715635374E+02  0.10320101364E+03  0.00000000000E+00 0. -1.
          1    1    5    5  503    0  0.21370128190E+03  0.20611971382E+03 -0.43324118536E+03  0.52521566904E+03  0.00000000000E+00 0. -1.
         -2    1    5    5    0  503  0.47158621816E+02  0.18468061014E+02 -0.12852223869E+03  0.13814112613E+03  0.00000000000E+00 0.  1.
         -1    1    6    6    0  502  0.31690026477E+03  0.36386638222E+02  0.24723001717E+03  0.40357458622E+03  0.00000000000E+00 0.  1.
<mgrwt>
<rscale>  0 0.19324920E+04</rscale>
<asrwt>0</asrwt>
<pdfrwt beam="1">  1        2 0.14978868E+00 0.19324920E+04</pdfrwt>
<pdfrwt beam="2">  1       -2 0.14752639E+00 0.19324920E+04</pdfrwt>
<totfact> 0.76615825E+00</totfact>
</mgrwt>
</event>
<event>
12    1  0.1114484E-007  0.1569170E+04  0.7818608E-02  0.8839715E-01
          2   -1    0    0  501    0  0.00000000000E+00  0.00000000000E+00  0.84650097024E+03  0.84650097024E+03  0.00000000000E+00 0.  1.
         -2   -1    0    0    0  501 -0.00000000000E+00 -0.00000000000E+00 -0.72719761455E+03  0.72719761455E+03  0.00000000000E+00 0. -1.
         23    2    1    2    0    0 -0.50468565278E+03 -0.10850753490E+03 -0.28320886532E+02  0.52486361408E+03  0.90544174383E+02 0.  0.
        254    2    1    2    0    0  0.50468565278E+03  0.10850753490E+03  0.14762424223E+03  0.10488349707E+04  0.90098856022E+03 0.  0.
        -24    2    4    4    0    0 -0.10124635055E+03  0.34878406790E+03  0.12532119781E+03  0.39179340299E+03  0.76782279774E+02 0.  0.
         24    2    4    4    0    0  0.60593200333E+03 -0.24027653300E+03  0.22303044419E+02  0.65704156772E+03  0.79497112886E+02 0.  0.
         11    1    3    3    0    0 -0.47585625904E+03 -0.88217935873E+02 -0.44635001502E+02  0.48601838118E+03  0.00000000000E+00 0. -1.
        -11    1    3    3    0    0 -0.28829393735E+02 -0.20289599026E+02  0.16314114970E+02  0.38845232900E+02  0.00000000000E+00 0.  1.
          4    1    6    6  502    0  0.26232275280E+03 -0.63301011302E+02  0.19002324959E+02  0.27052048541E+03  0.00000000000E+00 0. -1.
          3    1    5    5  503    0 -0.83367535419E+01  0.48658265734E+02  0.46636307841E+02  0.67912248475E+02  0.00000000000E+00 0. -1.
         -4    1    5    5    0  503 -0.92909597006E+02  0.30012580217E+03  0.78684889967E+02  0.32388115452E+03  0.00000000000E+00 0.  1.
         -3    1    6    6    0  502  0.34360925052E+03 -0.17697552170E+03  0.33007194596E+01  0.38652108232E+03  0.00000000000E+00 0.  1.
<mgrwt>
<rscale>  0 0.15691698E+04</rscale>
<asrwt>0</asrwt>
<pdfrwt beam="1">  1        2 0.13023092E+00 0.15691698E+04</pdfrwt>
<pdfrwt beam="2">  1       -2 0.11187656E+00 0.15691698E+04</pdfrwt>
<totfact> 0.19347333E+01</totfact>
</mgrwt>
</event>
<event>
12    1  0.1114484E-007  0.1422382E+04  0.7818608E-02  0.8937775E-01
         -2   -1    0    0    0  501 -0.00000000000E+00  0.00000000000E+00  0.23293127334E+03  0.23293127334E+03  0.00000000000E+00 0.  1.
          2   -1    0    0  501    0  0.00000000000E+00 -0.00000000000E+00 -0.21714240967E+04  0.21714240967E+04  0.00000000000E+00 0. -1.
         23    2    1    2    0    0 -0.13317795526E+03  0.35491263572E+03 -0.30624024845E+03  0.50311533909E+03  0.12507041173E+03 0.  0.
        254    2    1    2    0    0  0.13317795526E+03 -0.35491263572E+03 -0.16322525750E+04  0.19012400310E+04  0.89820144750E+03 0.  0.
        -24    2    4    4    0    0  0.39363353662E+03 -0.44352488843E+03 -0.14242297661E+04  0.15448457328E+04  0.80350629159E+02 0.  0.
         24    2    4    4    0    0 -0.26045558136E+03  0.88612252718E+02 -0.20802280885E+03  0.35639429823E+03  0.89745003295E+02 0.  0.
         13    1    3    3    0    0 -0.75549833954E+02  0.14609269341E+03 -0.20822781117E+03  0.26534821240E+03  0.00000000000E+00 0. -1.
        -13    1    3    3    0    0 -0.57628121311E+02  0.20881994231E+03 -0.98012437282E+02  0.23776712669E+03  0.00000000000E+00 0.  1.
          2    1    6    6  502    0 -0.61696910511E+02  0.63648862825E+02 -0.72792258849E+02  0.11470134896E+03  0.00000000000E+00 0. -1.
          3    1    5    5  503    0  0.52227108932E+01 -0.15260393225E+01 -0.45244104838E+02  0.45570105636E+02  0.00000000000E+00 0. -1.
         -4    1    5    5    0  503  0.38841082573E+03 -0.44199884911E+03 -0.13789856613E+04  0.14992756271E+04  0.00000000000E+00 0.  1.
         -1    1    6    6    0  502 -0.19875867084E+03  0.24963389893E+02 -0.13523055000E+03  0.24169294927E+03  0.00000000000E+00 0.  1.
<mgrwt>
<rscale>  0 0.14223819E+04</rscale>
<asrwt>0</asrwt>
<pdfrwt beam="1">  1        2 0.33406525E+00 0.14223819E+04</pdfrwt>
<pdfrwt beam="2">  1       -2 0.35835580E-01 0.14223819E+04</pdfrwt>
<totfact> 0.38172774E+01</totfact>
</mgrwt>
</event>
<event>
12    1  0.1114484E-007  0.1660004E+04  0.7818608E-02  0.8784510E-01
         -2   -1    0    0    0  501 -0.00000000000E+00  0.00000000000E+00  0.51926650950E+03  0.51926650950E+03  0.00000000000E+00 0.  1.
          2   -1    0    0  501    0  0.00000000000E+00 -0.00000000000E+00 -0.13266847822E+04  0.13266847822E+04  0.00000000000E+00 0. -1.
         23    2    1    2    0    0 -0.23533851035E+02 -0.14800143022E+03  0.33873077508E+03  0.38319288248E+03  0.98183408500E+02 0.  0.
        254    2    1    2    0    0  0.23533851035E+02  0.14800143022E+03 -0.11461490477E+04  0.14627584092E+04  0.89640741769E+03 0.  0.
        -24    2    4    4    0    0  0.43599797843E+03  0.13497548497E+03 -0.77036685935E+03  0.89934315893E+03  0.83907096247E+02 0.  0.
         24    2    4    4    0    0 -0.41246412740E+03  0.13025945256E+02 -0.37578218839E+03  0.56341525025E+03  0.76994541733E+02 0.  0.
         11    1    3    3    0    0 -0.49744084080E+02 -0.97698089915E+02  0.28376803084E+03  0.30420993738E+03  0.00000000000E+00 0.  1.
        -11    1    3    3    0    0  0.26210233045E+02 -0.50303340307E+02  0.54962744243E+02  0.78982945103E+02  0.00000000000E+00 0. -1.
          2    1    6    6  502    0 -0.41425647374E+02  0.16981847159E+02 -0.67516245703E+02  0.81011794370E+02  0.00000000000E+00 0. -1.
          3    1    5    5  503    0  0.30580703823E+02  0.33192032203E+02 -0.59369035379E+02  0.74575953295E+02  0.00000000000E+00 0. -1.
         -4    1    5    5    0  503  0.40541727461E+03  0.10178345276E+03 -0.71099782397E+03  0.82476720564E+03  0.00000000000E+00 0.  1.
         -1    1    6    6    0  502 -0.37103848002E+03 -0.39559019027E+01 -0.30826594269E+03  0.48240345588E+03  0.00000000000E+00 0.  1.
<mgrwt>
<rscale>  0 0.16600036E+04</rscale>
<asrwt>0</asrwt>
<pdfrwt beam="1">  1        2 0.20410535E+00 0.16600036E+04</pdfrwt>
<pdfrwt beam="2">  1       -2 0.79887155E-01 0.16600036E+04</pdfrwt>
<totfact> 0.21113706E+01</totfact>
</mgrwt>
</event>
<event>
12    1  0.1114484E-007  0.2366095E+04  0.7818608E-02  0.8452307E-01
         -1   -1    0    0    0  501 -0.00000000000E+00  0.00000000000E+00  0.75091442699E+03  0.75091442699E+03  0.00000000000E+00 0.  1.
          1   -1    0    0  501    0  0.00000000000E+00 -0.00000000000E+00 -0.18638626362E+04  0.18638626362E+04  0.00000000000E+00 0. -1.
         23    2    1    2    0    0  0.42492892371E+03  0.91107700942E+03 -0.56131204570E+03  0.11552099603E+04  0.93877220057E+02 0.  0.
        254    2    1    2    0    0 -0.42492892371E+03 -0.91107700942E+03 -0.55163616353E+03  0.14595671029E+04  0.90299931543E+03 0.  0.
        -24    2    4    4    0    0 -0.69285889192E+03 -0.61981380344E+03 -0.28503980859E+03  0.97533097654E+03  0.76159216598E+02 0.  0.
         24    2    4    4    0    0  0.26792996821E+03 -0.29126320598E+03 -0.26659635494E+03  0.48423612636E+03  0.82403195203E+02 0.  0.
         11    1    3    3    0    0  0.34257902611E+03  0.73209387060E+03 -0.40710395758E+03  0.90501682679E+03  0.00000000000E+00 0. -1.
        -11    1    3    3    0    0  0.82349897601E+02  0.17898313882E+03 -0.15420808811E+03  0.25019313351E+03  0.00000000000E+00 0.  1.
          4    1    6    6  502    0  0.16560292315E+03 -0.12729370729E+03 -0.16297779745E+03  0.26493353606E+03  0.00000000000E+00 0. -1.
          3    1    5    5  503    0 -0.34358444176E+03 -0.33712885648E+03 -0.11506863750E+03  0.49492113092E+03  0.00000000000E+00 0. -1.
         -4    1    5    5    0  503 -0.34927445016E+03 -0.28268494696E+03 -0.16997117109E+03  0.48040984562E+03  0.00000000000E+00 0.  1.
         -3    1    6    6    0  502  0.10232704506E+03 -0.16396949870E+03 -0.10361855750E+03  0.21930259030E+03  0.00000000000E+00 0.  1.
<mgrwt>
<rscale>  0 0.23660950E+04</rscale>
<asrwt>0</asrwt>
<pdfrwt beam="1">  1        1 0.28674809E+00 0.23660950E+04</pdfrwt>
<pdfrwt beam="2">  1       -1 0.11552530E+00 0.23660950E+04</pdfrwt>
<totfact> 0.22491910E+00</totfact>
</mgrwt>
</event>
<event>
12    1  0.1114484E-007  0.2270899E+04  0.7818608E-02  0.8489484E-01
         -2   -1    0    0    0  501 -0.00000000000E+00  0.00000000000E+00  0.84927283593E+03  0.84927283593E+03  0.00000000000E+00 0.  1.
          2   -1    0    0  501    0  0.00000000000E+00 -0.00000000000E+00 -0.15180580384E+04  0.15180580384E+04  0.00000000000E+00 0. -1.
         23    2    1    2    0    0 -0.51127898277E+03 -0.45917996691E+03  0.41218924019E+03  0.80661338411E+03  0.92047495724E+02 0.  0.
        254    2    1    2    0    0  0.51127898277E+03  0.45917996691E+03 -0.10809744427E+04  0.15607174903E+04  0.89167308942E+03 0.  0.
        -24    2    4    4    0    0 -0.77578012809E+02  0.46810964285E+03 -0.71499714007E+03  0.86203920156E+03  0.82132143040E+02 0.  0.
         24    2    4    4    0    0  0.58885699557E+03 -0.89296759311E+01 -0.36597730261E+03  0.69867828869E+03  0.85904974878E+02 0.  0.
         13    1    3    3    0    0 -0.14645401815E+03 -0.12900986294E+03  0.70292440672E+02  0.20744481527E+03  0.00000000000E+00 0. -1.
        -13    1    3    3    0    0 -0.36482496462E+03 -0.33017010398E+03  0.34189679952E+03  0.59916856884E+03  0.00000000000E+00 0.  1.
          4    1    6    6  502    0  0.30451957931E+03 -0.94884528266E+01 -0.23924340896E+03  0.38737528787E+03  0.00000000000E+00 0. -1.
          1    1    5    5  503    0  0.74683919794E+01  0.25559396875E+02 -0.72663281517E+02  0.77388708015E+02  0.00000000000E+00 0. -1.
         -2    1    5    5    0  503 -0.85046404788E+02  0.44255024597E+03 -0.64233385856E+03  0.78465049355E+03  0.00000000000E+00 0.  1.
         -3    1    6    6    0  502  0.28433741627E+03  0.55877689551E+00 -0.12673389365E+03  0.31130300082E+03  0.00000000000E+00 0.  1.
<mgrwt>
<rscale>  0 0.22708989E+04</rscale>
<asrwt>0</asrwt>
<pdfrwt beam="1">  1        2 0.23354739E+00 0.22708989E+04</pdfrwt>
<pdfrwt beam="2">  1       -2 0.13065736E+00 0.22708989E+04</pdfrwt>
<totfact> 0.48323594E+00</totfact>
</mgrwt>
</event>
<event>
12    1  0.1114484E-007  0.2828004E+04  0.7818608E-02  0.8294627E-01
         -2   -1    0    0    0  501 -0.00000000000E+00  0.00000000000E+00  0.13465668268E+04  0.13465668268E+04  0.00000000000E+00 0.  1.
          2   -1    0    0  501    0  0.00000000000E+00 -0.00000000000E+00 -0.14848145315E+04  0.14848145315E+04  0.00000000000E+00 0. -1.
         23    2    1    2    0    0  0.70955105377E+03  0.10151408598E+04 -0.33790347540E+03  0.12866190835E+04  0.85066116640E+02 0.  0.
        254    2    1    2    0    0 -0.70955105377E+03 -0.10151408598E+04  0.19965577075E+03  0.15447622748E+04  0.90136252171E+03 0.  0.
        -24    2    4    4    0    0 -0.16811641055E+03 -0.52150178895E+03 -0.32319460824E+03  0.64108216907E+03  0.79399932763E+02 0.  0.
         24    2    4    4    0    0 -0.54143464322E+03 -0.49363907087E+03  0.52285037898E+03  0.90368010569E+03  0.80213524146E+02 0.  0.
         13    1    3    3    0    0  0.24402196455E+02  0.19159486583E+02 -0.18983243579E+02  0.36371921241E+02  0.00000000000E+00 0.  1.
        -13    1    3    3    0    0  0.68514885731E+03  0.99598137323E+03 -0.31892023182E+03  0.12502471623E+04  0.00000000000E+00 0. -1.
          2    1    6    6  502    0 -0.36569429041E+03 -0.38182762511E+03  0.38067226772E+03  0.65148754765E+03  0.00000000000E+00 0. -1.
          1    1    5    5  503    0 -0.12027031008E+03 -0.44008433076E+03 -0.24141970264E+03  0.51616144615E+03  0.00000000000E+00 0. -1.
         -2    1    5    5    0  503 -0.47846100467E+02 -0.81417458195E+02 -0.81774905600E+02  0.12492072292E+03  0.00000000000E+00 0.  1.
         -1    1    6    6    0  502 -0.17574035281E+03 -0.11181144576E+03  0.14217811127E+03  0.25219255804E+03  0.00000000000E+00 0.  1.
<mgrwt>
<rscale>  0 0.28280042E+04</rscale>
<asrwt>0</asrwt>
<pdfrwt beam="1">  1        2 0.22843301E+00 0.28280042E+04</pdfrwt>
<pdfrwt beam="2">  1       -2 0.20716413E+00 0.28280042E+04</pdfrwt>
<totfact> 0.13426567E+00</totfact>
</mgrwt>
</event>
<event>
12    1  0.1114484E-007  0.2416985E+04  0.7818608E-02  0.8433172E-01
         -2   -1    0    0    0  501 -0.00000000000E+00  0.00000000000E+00  0.48656302808E+03  0.48656302808E+03  0.00000000000E+00 0.  1.
          2   -1    0    0  501    0  0.00000000000E+00 -0.00000000000E+00 -0.30015725141E+04  0.30015725141E+04  0.00000000000E+00 0. -1.
         23    2    1    2    0    0 -0.80466927296E+03 -0.55841549066E+03 -0.55054573622E+03  0.11273497586E+04  0.92175763714E+02 0.  0.
        254    2    1    2    0    0  0.80466927296E+03  0.55841549066E+03 -0.19644637498E+04  0.23607857836E+04  0.86883323649E+03 0.  0.
        -24    2    4    4    0    0  0.36820124945E+03  0.57273184772E+03 -0.17256997927E+04  0.18568652922E+04  0.79467031222E+02 0.  0.
         24    2    4    4    0    0  0.43646802351E+03 -0.14316357060E+02 -0.23876395708E+03  0.50392049149E+03  0.78856457672E+02 0.  0.
         13    1    3    3    0    0 -0.47270988790E+03 -0.31257599341E+03 -0.26799477707E+03  0.62688084220E+03  0.00000000000E+00 0. -1.
        -13    1    3    3    0    0 -0.33195938505E+03 -0.24583949725E+03 -0.28255095915E+03  0.50046891637E+03  0.00000000000E+00 0.  1.
          4    1    6    6  502    0  0.24908952403E+03  0.26342709024E+02 -0.15596858855E+03  0.29506902568E+03  0.00000000000E+00 0. -1.
          1    1    5    5  503    0  0.92741856816E+02  0.10006689476E+03 -0.40407997148E+03  0.42649156941E+03  0.00000000000E+00 0. -1.
         -2    1    5    5    0  503  0.27545939263E+03  0.47266495296E+03 -0.13216198213E+04  0.14303737227E+04  0.00000000000E+00 0.  1.
         -3    1    6    6    0  502  0.18737849948E+03 -0.40659066084E+02 -0.82795368539E+02  0.20885146581E+03  0.00000000000E+00 0.  1.
<mgrwt>
<rscale>  0 0.24169851E+04</rscale>
<asrwt>0</asrwt>
<pdfrwt beam="1">  1        2 0.46178039E+00 0.24169851E+04</pdfrwt>
<pdfrwt beam="2">  1       -2 0.74855850E-01 0.24169851E+04</pdfrwt>
<totfact> 0.25026656E+00</totfact>
</mgrwt>
</event>
<event>
12    1  0.1114484E-007  0.1686137E+04  0.7818608E-02  0.8769311E-01
         -2   -1    0    0    0  501 -0.00000000000E+00  0.00000000000E+00  0.28136373225E+03  0.28136373225E+03  0.00000000000E+00 0.  1.
          2   -1    0    0  501    0  0.00000000000E+00 -0.00000000000E+00 -0.25261407355E+04  0.25261407355E+04  0.00000000000E+00 0. -1.
         23    2    1    2    0    0  0.20187038007E+03  0.22935618802E+03  0.54455810994E+02  0.32234711498E+03  0.87099459517E+02 0.  0.
        254    2    1    2    0    0 -0.20187038007E+03 -0.22935618802E+03 -0.22992328143E+04  0.24851573528E+04  0.89228897930E+03 0.  0.
        -24    2    4    4    0    0  0.21153466602E+03 -0.83949835234E+02 -0.13534314976E+03  0.27589978488E+03  0.77514084841E+02 0.  0.
         24    2    4    4    0    0 -0.41340504609E+03 -0.14540635279E+03 -0.21638896645E+04  0.22092575679E+04  0.79710611569E+02 0.  0.
         13    1    3    3    0    0  0.14610604359E+03  0.20043524198E+03  0.15689800234E+02  0.24853054547E+03  0.00000000000E+00 0.  1.
        -13    1    3    3    0    0  0.55764336484E+02  0.28920946044E+02  0.38766010760E+02  0.73816569508E+02  0.00000000000E+00 0. -1.
          4    1    6    6  502    0 -0.32459280885E+03 -0.10042975614E+03 -0.18108374308E+04  0.18424382835E+04  0.00000000000E+00 0. -1.
          1    1    5    5  503    0  0.20825650048E+03 -0.94489324001E+02 -0.12430411250E+03  0.26028929046E+03  0.00000000000E+00 0. -1.
         -2    1    5    5    0  503  0.32781655441E+01  0.10539488767E+02 -0.11039037252E+02  0.15610494427E+02  0.00000000000E+00 0.  1.
         -3    1    6    6    0  502 -0.88812237244E+02 -0.44976596654E+02 -0.35305223368E+03  0.36681928444E+03  0.00000000000E+00 0.  1.
<mgrwt>
<rscale>  0 0.16861369E+04</rscale>
<asrwt>0</asrwt>
<pdfrwt beam="1">  1        2 0.38863703E+00 0.16861369E+04</pdfrwt>
<pdfrwt beam="2">  1       -2 0.43286728E-01 0.16861369E+04</pdfrwt>
<totfact> 0.16233449E+01</totfact>
</mgrwt>
</event>
<event>
12    1  0.1114484E-007  0.1757613E+04  0.7818608E-02  0.8729171E-01
          4   -1    0    0  501    0  0.00000000000E+00  0.00000000000E+00  0.37301741671E+03  0.37301741671E+03  0.00000000000E+00 0. -1.
         -4   -1    0    0    0  501 -0.00000000000E+00 -0.00000000000E+00 -0.20704145109E+04  0.20704145109E+04  0.00000000000E+00 0.  1.
         23    2    1    2    0    0  0.54015323257E+03 -0.28784558357E+03 -0.85707181139E+03  0.10570488246E+04  0.90330134370E+02 0.  0.
        254    2    1    2    0    0 -0.54015323257E+03  0.28784558357E+03 -0.84032528281E+03  0.13863831030E+04  0.91721913010E+03 0.  0.
        -24    2    4    4    0    0 -0.48767695254E+03  0.59916067788E+03 -0.60572778287E+03  0.98515486984E+03  0.82472072119E+02 0.  0.
         24    2    4    4    0    0 -0.52476280023E+02 -0.31131509431E+03 -0.23459749994E+03  0.40122823312E+03  0.79229162340E+02 0.  0.
         11    1    3    3    0    0  0.39706065635E+03 -0.20927777923E+03 -0.69260010195E+03  0.82531766910E+03  0.00000000000E+00 0. -1.
        -11    1    3    3    0    0  0.14309257621E+03 -0.78567804340E+02 -0.16447170944E+03  0.23173115555E+03  0.00000000000E+00 0.  1.
          2    1    6    6  502    0 -0.54821647808E+02 -0.10831899348E+03 -0.10383297740E+03  0.15974887984E+03  0.00000000000E+00 0. -1.
          1    1    5    5  503    0 -0.14709718561E+03  0.15044818790E+03 -0.12609575875E+03  0.24530059036E+03  0.00000000000E+00 0. -1.
         -2    1    5    5    0  503 -0.34057976693E+03  0.44871248999E+03 -0.47963202412E+03  0.73985427949E+03  0.00000000000E+00 0.  1.
         -1    1    6    6    0  502  0.23453677849E+01 -0.20299610083E+03 -0.13076452254E+03  0.24147935328E+03  0.00000000000E+00 0.  1.
<mgrwt>
<rscale>  0 0.17576128E+04</rscale>
<asrwt>0</asrwt>
<pdfrwt beam="1">  1        4 0.57387294E-01 0.17576128E+04</pdfrwt>
<pdfrwt beam="2">  1       -4 0.31852532E+00 0.17576128E+04</pdfrwt>
<totfact> 0.12973084E-01</totfact>
</mgrwt>
</event>
<event>
12    1  0.1114484E-007  0.3975996E+04  0.7818608E-02  0.8009406E-01
          2   -1    0    0  501    0  0.00000000000E+00  0.00000000000E+00  0.22184716522E+04  0.22184716522E+04  0.00000000000E+00 0.  1.
         -2   -1    0    0    0  501 -0.00000000000E+00 -0.00000000000E+00 -0.17814683250E+04  0.17814683250E+04  0.00000000000E+00 0. -1.
         23    2    1    2    0    0  0.12038595006E+04  0.69984588572E+03 -0.10779067467E+04  0.17633317662E+04  0.91618787182E+02 0.  0.
        254    2    1    2    0    0 -0.12038595006E+04 -0.69984588572E+03  0.15149100740E+04  0.22366082110E+04  0.87658530478E+03 0.  0.
        -24    2    4    4    0    0 -0.12624121845E+04 -0.54898606043E+03  0.10357729706E+04  0.17246259040E+04  0.80241161927E+02 0.  0.
         24    2    4    4    0    0  0.58552683920E+02 -0.15085982529E+03  0.47913710339E+03  0.51198230703E+03  0.79789818818E+02 0.  0.
         13    1    3    3    0    0  0.21893697904E+03  0.11052761799E+03 -0.23118816000E+03  0.33704260925E+03  0.00000000000E+00 0.  1.
        -13    1    3    3    0    0  0.98492252153E+03  0.58931826773E+03 -0.84671858675E+03  0.14262891570E+04  0.00000000000E+00 0. -1.
          2    1    6    6  502    0  0.54277886959E+02 -0.14620869108E+03  0.48079007134E+03  0.50545243402E+03  0.00000000000E+00 0. -1.
          3    1    5    5  503    0 -0.10015398227E+04 -0.40176940555E+03  0.79609861700E+03  0.13409972706E+04  0.00000000000E+00 0. -1.
         -4    1    5    5    0  503 -0.26087236176E+03 -0.14721665488E+03  0.23967435360E+03  0.38362863341E+03  0.00000000000E+00 0.  1.
         -1    1    6    6    0  502  0.42747969603E+01 -0.46511342107E+01 -0.16529679479E+01  0.65298730106E+01  0.00000000000E+00 0.  1.
<mgrwt>
<rscale>  0 0.39759965E+04</rscale>
<asrwt>0</asrwt>
<pdfrwt beam="1">  1        2 0.34130333E+00 0.39759965E+04</pdfrwt>
<pdfrwt beam="2">  1       -2 0.27407205E+00 0.39759965E+04</pdfrwt>
<totfact> 0.18240134E-01</totfact>
</mgrwt>
</event>
<event>
12    1  0.1114484E-007  0.2369935E+04  0.7818608E-02  0.8450846E-01
          2   -1    0    0  501    0  0.00000000000E+00  0.00000000000E+00  0.18794475799E+04  0.18794475799E+04  0.00000000000E+00 0. -1.
         -2   -1    0    0    0  501 -0.00000000000E+00 -0.00000000000E+00 -0.74710646801E+03  0.74710646801E+03  0.00000000000E+00 0.  1.
         23    2    1    2    0    0  0.46781365635E+02 -0.40418981123E+03 -0.55147528382E+03  0.69116762858E+03  0.89609165022E+02 0.  0.
        254    2    1    2    0    0 -0.46781365635E+02  0.40418981123E+03  0.16838163958E+04  0.19353864194E+04  0.86309039970E+03 0.  0.
        -24    2    4    4    0    0 -0.92165061704E+02  0.45817028205E+03  0.17490346415E+04  0.18121211842E+04  0.79035454249E+02 0.  0.
         24    2    4    4    0    0  0.45383696069E+02 -0.53980470822E+02 -0.65218245785E+02  0.12326523517E+03  0.77248479071E+02 0.  0.
         11    1    3    3    0    0  0.68361986646E+01 -0.20875390944E+03 -0.35043225153E+03  0.40795550153E+03  0.00000000000E+00 0.  1.
        -11    1    3    3    0    0  0.39945166970E+02 -0.19543590179E+03 -0.20104303229E+03  0.28321212704E+03  0.00000000000E+00 0. -1.
          4    1    6    6  502    0  0.10953166971E+02  0.87293876295E+01 -0.47557972419E+02  0.49577563632E+02  0.00000000000E+00 0. -1.
          3    1    5    5  503    0 -0.11760725551E+02  0.25671883906E+03  0.93070575160E+03  0.96553408695E+03  0.00000000000E+00 0. -1.
         -4    1    5    5    0  503 -0.80404336153E+02  0.20145144299E+03  0.81832888994E+03  0.84658709727E+03  0.00000000000E+00 0.  1.
         -3    1    6    6    0  502  0.34430529098E+02 -0.62709858452E+02 -0.17660273366E+02  0.73687671536E+02  0.00000000000E+00 0.  1.
<mgrwt>
<rscale>  0 0.23699346E+04</rscale>
<asrwt>0</asrwt>
<pdfrwt beam="1">  1        2 0.28914578E+00 0.23699346E+04</pdfrwt>
<pdfrwt beam="2">  1       -2 0.11493946E+00 0.23699346E+04</pdfrwt>
<totfact> 0.41491233E+00</totfact>
</mgrwt>
</event>
<event>
12    1  0.1114484E-007  0.1341848E+04  0.7818608E-02  0.8997022E-01
         -2   -1    0    0    0  501 -0.00000000000E+00  0.00000000000E+00  0.14827046847E+03  0.14827046847E+03  0.00000000000E+00 0. -1.
          2   -1    0    0  501    0  0.00000000000E+00 -0.00000000000E+00 -0.30359298277E+04  0.30359298277E+04  0.00000000000E+00 0.  1.
         23    2    1    2    0    0 -0.25545986139E+03 -0.57607047011E+02 -0.19254353780E+03  0.33726296625E+03  0.89972116829E+02 0.  0.
        254    2    1    2    0    0  0.25545986139E+03  0.57607047011E+02 -0.26951158215E+04  0.28469373299E+04  0.87910440617E+03 0.  0.
        -24    2    4    4    0    0 -0.12405240984E+01  0.42387469004E+03 -0.94789609929E+03  0.10416061222E+04  0.82249663152E+02 0.  0.
         24    2    4    4    0    0  0.25670038549E+03 -0.36626764303E+03 -0.17472197222E+04  0.18053312077E+04  0.79980858618E+02 0.  0.
         13    1    3    3    0    0 -0.87786925389E+02 -0.56846688015E+02 -0.44773394365E+02  0.11376619467E+03  0.00000000000E+00 0.  1.
        -13    1    3    3    0    0 -0.16767293601E+03 -0.76035899595E+00 -0.14777014344E+03  0.22349677158E+03  0.00000000000E+00 0. -1.
          4    1    6    6  502    0  0.21078061947E+03 -0.27765451715E+03 -0.14676225702E+04  0.15084550073E+04  0.00000000000E+00 0. -1.
          1    1    5    5  503    0  0.27568332684E+02  0.33287578493E+03 -0.68949458637E+03  0.76613907732E+03  0.00000000000E+00 0. -1.
         -2    1    5    5    0  503 -0.28808856783E+02  0.90998905109E+02 -0.25840151293E+03  0.27546704493E+03  0.00000000000E+00 0.  1.
         -1    1    6    6    0  502  0.45919766028E+02 -0.88613125880E+02 -0.27959715199E+03  0.29687620045E+03  0.00000000000E+00 0.  1.
<mgrwt>
<rscale>  0 0.13418476E+04</rscale>
<asrwt>0</asrwt>
<pdfrwt beam="1">  1        2 0.46706607E+00 0.13418476E+04</pdfrwt>
<pdfrwt beam="2">  1       -2 0.22810844E-01 0.13418476E+04</pdfrwt>
<totfact> 0.27639885E+01</totfact>
</mgrwt>
</event>
<event>
12    1  0.1114484E-007  0.3575067E+04  0.7818608E-02  0.8096227E-01
         -1   -1    0    0    0  501 -0.00000000000E+00  0.00000000000E+00  0.11006139430E+04  0.11006139430E+04  0.00000000000E+00 0.  1.
          1   -1    0    0  501    0  0.00000000000E+00 -0.00000000000E+00 -0.29031755976E+04  0.29031755976E+04  0.00000000000E+00 0. -1.
         23    2    1    2    0    0 -0.86132873810E+03 -0.13890904342E+04 -0.44498384681E+03  0.16963881754E+04  0.90899879649E+02 0.  0.
        254    2    1    2    0    0  0.86132873810E+03  0.13890904342E+04 -0.13575778077E+04  0.23074013652E+04  0.89979115733E+03 0.  0.
        -24    2    4    4    0    0  0.30771848608E+03  0.10223276561E+03 -0.66109117305E+03  0.74052968298E+03  0.78743045782E+02 0.  0.
         24    2    4    4    0    0  0.55361025202E+03  0.12868576686E+04 -0.69648663469E+03  0.15668716823E+04  0.86638709705E+02 0.  0.
         11    1    3    3    0    0 -0.15369018236E+03 -0.30067472672E+03 -0.67097406919E+02  0.34427899364E+03  0.00000000000E+00 0. -1.
        -11    1    3    3    0    0 -0.70763855574E+03 -0.10884157075E+04 -0.37788643989E+03  0.13521091817E+04  0.00000000000E+00 0.  1.
          4    1    6    6  502    0  0.34457379378E+03  0.88625531053E+03 -0.49700803244E+03  0.10729382830E+04  0.00000000000E+00 0. -1.
          1    1    5    5  503    0  0.25160087937E+03  0.11417313763E+03 -0.54499154420E+03  0.61102724252E+03  0.00000000000E+00 0. -1.
         -2    1    5    5    0  503  0.56117606712E+02 -0.11940372017E+02 -0.11609962885E+03  0.12950244046E+03  0.00000000000E+00 0.  1.
         -3    1    6    6    0  502  0.20903645824E+03  0.40060235806E+03 -0.19947860225E+03  0.49393339927E+03  0.00000000000E+00 0.  1.
<mgrwt>
<rscale>  0 0.35750667E+04</rscale>
<asrwt>0</asrwt>
<pdfrwt beam="1">  1        1 0.44664240E+00 0.35750667E+04</pdfrwt>
<pdfrwt beam="2">  1       -1 0.16932522E+00 0.35750667E+04</pdfrwt>
<totfact> 0.14172740E-01</totfact>
</mgrwt>
</event>
<event>
12    1  0.1114484E-007  0.1932251E+04  0.7818608E-02  0.8638968E-01
          2   -1    0    0  501    0  0.00000000000E+00  0.00000000000E+00  0.20188760849E+04  0.20188760849E+04  0.00000000000E+00 0. -1.
         -2   -1    0    0    0  501 -0.00000000000E+00 -0.00000000000E+00 -0.46233557358E+03  0.46233557358E+03  0.00000000000E+00 0.  1.
         23    2    1    2    0    0  0.10170008162E+03  0.48304000273E+03 -0.15263281258E+03  0.52358602776E+03  0.84705384427E+02 0.  0.
        254    2    1    2    0    0 -0.10170008162E+03 -0.48304000273E+03  0.17091733239E+04  0.19576256308E+04  0.81691744264E+03 0.  0.
        -24    2    4    4    0    0 -0.21872167787E+02  0.21497222662E+03  0.27707443208E+03  0.36039431249E+03  0.80139688187E+02 0.  0.
         24    2    4    4    0    0 -0.79827913830E+02 -0.69801222935E+03  0.14320988919E+04  0.15972313183E+04  0.81529625437E+02 0.  0.
         11    1    3    3    0    0  0.75377294764E+02  0.40935377864E+03 -0.15785936536E+03  0.44516494907E+03  0.00000000000E+00 0.  1.
        -11    1    3    3    0    0  0.26322786854E+02  0.73686224090E+02  0.52265527774E+01  0.78421078686E+02  0.00000000000E+00 0. -1.
          4    1    6    6  502    0 -0.93954323702E+02 -0.57149115955E+03  0.12023262093E+04  0.13345478163E+04  0.00000000000E+00 0. -1.
          1    1    5    5  503    0 -0.46870633234E+02  0.16619930720E+03  0.18367554195E+03  0.25210269868E+03  0.00000000000E+00 0. -1.
         -2    1    5    5    0  503  0.24998465447E+02  0.48772919420E+02  0.93398890133E+02  0.10829161381E+03  0.00000000000E+00 0.  1.
         -3    1    6    6    0  502  0.14126409871E+02 -0.12652106981E+03  0.22977268255E+03  0.26268350197E+03  0.00000000000E+00 0.  1.
<mgrwt>
<rscale>  0 0.19322507E+04</rscale>
<asrwt>0</asrwt>
<pdfrwt beam="1">  1        2 0.31059631E+00 0.19322507E+04</pdfrwt>
<pdfrwt beam="2">  1       -2 0.71128551E-01 0.19322507E+04</pdfrwt>
<totfact> 0.10934014E+01</totfact>
</mgrwt>
</event>
<event>
12    1  0.1114484E-007  0.1238833E+04  0.7818608E-02  0.9079529E-01
          1   -1    0    0  501    0  0.00000000000E+00  0.00000000000E+00  0.23127355548E+04  0.23127355548E+04  0.00000000000E+00 0. -1.
         -1   -1    0    0    0  501 -0.00000000000E+00 -0.00000000000E+00 -0.16589744461E+03  0.16589744461E+03  0.00000000000E+00 0.  1.
         23    2    1    2    0    0  0.91303311873E+02  0.25351025233E+03  0.24756770139E+03  0.37693419725E+03  0.90475850334E+02 0.  0.
        254    2    1    2    0    0 -0.91303311873E+02 -0.25351025233E+03  0.18992704088E+04  0.21016988021E+04  0.85866525864E+03 0.  0.
        -24    2    4    4    0    0 -0.50027080889E+02 -0.44173056043E+03  0.18259047756E+04  0.18809732631E+04  0.80644715315E+02 0.  0.
         24    2    4    4    0    0 -0.41276230984E+02  0.18822030810E+03  0.73365633159E+02  0.22072553900E+03  0.78782204930E+02 0.  0.
         11    1    3    3    0    0  0.93133204373E+02  0.24233668322E+03  0.19912922794E+03  0.32719002309E+03  0.00000000000E+00 0.  1.
        -11    1    3    3    0    0 -0.18298925001E+01  0.11173569111E+02  0.48438473447E+02  0.49744174162E+02  0.00000000000E+00 0. -1.
          4    1    6    6  502    0  0.94288501153E+01  0.57247018802E+02 -0.77571088073E+01  0.58534580491E+02  0.00000000000E+00 0. -1.
          1    1    5    5  503    0 -0.41172702275E+01 -0.29177956271E+03  0.10775003071E+04  0.11163149990E+04  0.00000000000E+00 0. -1.
         -2    1    5    5    0  503 -0.45909810661E+02 -0.14995099772E+03  0.74840446853E+03  0.76465826416E+03  0.00000000000E+00 0.  1.
         -3    1    6    6    0  502 -0.50705081099E+02  0.13097328930E+03  0.81122741966E+02  0.16219095851E+03  0.00000000000E+00 0.  1.
<mgrwt>
<rscale>  0 0.12388332E+04</rscale>
<asrwt>0</asrwt>
<pdfrwt beam="1">  1        1 0.35580545E+00 0.12388332E+04</pdfrwt>
<pdfrwt beam="2">  1       -1 0.25522685E-01 0.12388332E+04</pdfrwt>
<totfact> 0.24429625E+01</totfact>
</mgrwt>
</event>
<event>
12    1  0.1114484E-007  0.2818211E+04  0.7818608E-02  0.8297637E-01
          2   -1    0    0  501    0  0.00000000000E+00  0.00000000000E+00  0.17544484814E+04  0.17544484814E+04  0.00000000000E+00 0. -1.
         -2   -1    0    0    0  501 -0.00000000000E+00 -0.00000000000E+00 -0.11317394265E+04  0.11317394265E+04  0.00000000000E+00 0.  1.
         23    2    1    2    0    0 -0.65567391938E+03  0.72759070779E+03  0.10023783078E+04  0.14045333496E+04  0.93032960151E+02 0.  0.
        254    2    1    2    0    0  0.65567391938E+03 -0.72759070779E+03 -0.37966925289E+03  0.14816545582E+04  0.10449186387E+04 0.  0.
        -24    2    4    4    0    0  0.10104151894E+03 -0.75317830846E+03  0.63154887917E+02  0.76682030121E+03  0.80857167895E+02 0.  0.
         24    2    4    4    0    0  0.55463240044E+03  0.25587600665E+02 -0.44282414081E+03  0.71483425697E+03  0.81381633867E+02 0.  0.
         13    1    3    3    0    0 -0.46076552306E+03  0.46507911098E+03  0.62341262842E+03  0.90401700868E+03  0.00000000000E+00 0. -1.
        -13    1    3    3    0    0 -0.19490839633E+03  0.26251159681E+03  0.37896567938E+03  0.50051634096E+03  0.00000000000E+00 0.  1.
          4    1    6    6  502    0  0.36093338543E+03 -0.61155249750E+01 -0.24577105675E+03  0.43670782075E+03  0.00000000000E+00 0. -1.
          3    1    5    5  503    0  0.10497970205E+03 -0.51046672463E+03  0.32713206679E+02  0.52217541946E+03  0.00000000000E+00 0. -1.
         -4    1    5    5    0  503 -0.39381831083E+01 -0.24271158383E+03  0.30441681238E+02  0.24464488175E+03  0.00000000000E+00 0.  1.
         -3    1    6    6    0  502  0.19369901501E+03  0.31703125640E+02 -0.19705308406E+03  0.27812643623E+03  0.00000000000E+00 0.  1.
<mgrwt>
<rscale>  0 0.28182111E+04</rscale>
<asrwt>0</asrwt>
<pdfrwt beam="1">  1        2 0.26991515E+00 0.28182111E+04</pdfrwt>
<pdfrwt beam="2">  1       -2 0.17411376E+00 0.28182111E+04</pdfrwt>
<totfact> 0.15842233E+00</totfact>
</mgrwt>
</event>
<event>
12    1  0.1114484E-007  0.2174036E+04  0.7818608E-02  0.8529313E-01
          1   -1    0    0  501    0  0.00000000000E+00  0.00000000000E+00  0.17064091359E+04  0.17064091359E+04  0.00000000000E+00 0. -1.
         -1   -1    0    0    0  501 -0.00000000000E+00 -0.00000000000E+00 -0.69245329323E+03  0.69245329323E+03  0.00000000000E+00 0.  1.
         23    2    1    2    0    0  0.86589059398E+03 -0.11113101499E+03  0.65286530968E+03  0.10938551148E+04  0.90384049021E+02 0.  0.
        254    2    1    2    0    0 -0.86589059398E+03  0.11113101499E+03  0.36109053295E+03  0.13050073143E+04  0.90030055769E+03 0.  0.
        -24    2    4    4    0    0 -0.33013236080E+03  0.43301879024E+03 -0.50344798608E+02  0.55255249397E+03  0.79290677265E+02 0.  0.
         24    2    4    4    0    0 -0.53575823318E+03 -0.32188777525E+03  0.41143533156E+03  0.75245482034E+03  0.79123955397E+02 0.  0.
         13    1    3    3    0    0  0.82293867087E+03 -0.87596807281E+02  0.60306057981E+03  0.10240035740E+04  0.00000000000E+00 0. -1.
        -13    1    3    3    0    0  0.42951923107E+02 -0.23534207705E+02  0.49804729869E+02  0.69851540772E+02  0.00000000000E+00 0.  1.
          4    1    6    6  502    0 -0.16702595861E+03 -0.12471323822E+03  0.17452315920E+03  0.27186282522E+03  0.00000000000E+00 0. -1.
          1    1    5    5  503    0 -0.16037108262E+02  0.90164074905E+01  0.10831676035E+02  0.21349699089E+02  0.00000000000E+00 0. -1.
         -2    1    5    5    0  503 -0.31409525254E+03  0.42400238275E+03 -0.61176474643E+02  0.53120279488E+03  0.00000000000E+00 0.  1.
         -3    1    6    6    0  502 -0.36873227457E+03 -0.19717453703E+03  0.23691217236E+03  0.48059199512E+03  0.00000000000E+00 0.  1.
<mgrwt>
<rscale>  0 0.21740365E+04</rscale>
<asrwt>0</asrwt>
<pdfrwt beam="1">  1        1 0.26252448E+00 0.21740365E+04</pdfrwt>
<pdfrwt beam="2">  1       -1 0.10653128E+00 0.21740365E+04</pdfrwt>
<totfact> 0.35480445E+00</totfact>
</mgrwt>
</event>
<event>
12    1  0.1114484E-007  0.2382766E+04  0.7818608E-02  0.8445984E-01
         -1   -1    0    0    0  501 -0.00000000000E+00  0.00000000000E+00  0.64588475103E+03  0.64588475103E+03  0.00000000000E+00 0.  1.
          1   -1    0    0  501    0  0.00000000000E+00 -0.00000000000E+00 -0.21975962385E+04  0.21975962385E+04  0.00000000000E+00 0. -1.
         23    2    1    2    0    0 -0.87923694911E+03 -0.45504820126E+03 -0.38798326914E+03  0.10672295561E+04  0.91221873055E+02 0.  0.
        254    2    1    2    0    0  0.87923694911E+03  0.45504820126E+03 -0.11637282183E+04  0.17762514334E+04  0.90591352263E+03 0.  0.
        -24    2    4    4    0    0 -0.10115429070E+03  0.32199314805E+03 -0.24813223133E+03  0.42586402515E+03  0.76673240286E+02 0.  0.
         24    2    4    4    0    0  0.98039123981E+03  0.13305505322E+03 -0.91559598698E+03  0.13503874083E+04  0.79746540750E+02 0.  0.
         11    1    3    3    0    0 -0.87748951852E+03 -0.44771284639E+03 -0.37899229558E+03  0.10554950535E+04  0.00000000000E+00 0. -1.
        -11    1    3    3    0    0 -0.17474305886E+01 -0.73353548671E+01 -0.89909735589E+01  0.11734502556E+02  0.00000000000E+00 0.  1.
          4    1    6    6  502    0  0.15894487188E+03  0.13211658785E+02 -0.11104175259E+03  0.19434065721E+03  0.00000000000E+00 0. -1.
          1    1    5    5  503    0 -0.27565584479E+02  0.19841890902E+02 -0.14655229656E+02  0.36991050789E+02  0.00000000000E+00 0. -1.
         -2    1    5    5    0  503 -0.73588706221E+02  0.30215125714E+03 -0.23347700168E+03  0.38887297436E+03  0.00000000000E+00 0.  1.
         -3    1    6    6    0  502  0.82144636792E+03  0.11984339443E+03 -0.80455423439E+03  0.11560467511E+04  0.00000000000E+00 0.  1.
<mgrwt>
<rscale>  0 0.23827664E+04</rscale>
<asrwt>0</asrwt>
<pdfrwt beam="1">  1        1 0.33809173E+00 0.23827664E+04</pdfrwt>
<pdfrwt beam="2">  1       -1 0.99366884E-01 0.23827664E+04</pdfrwt>
<totfact> 0.18974596E+00</totfact>
</mgrwt>
</event>
<event>
12    1  0.1157289E-007  0.1990076E+04  0.7818608E-02  0.8611274E-01
          2   -1    0    0  501    0  0.00000000000E+00  0.00000000000E+00  0.30345233343E+04  0.30345233343E+04  0.00000000000E+00 0. -1.
         -2   -1    0    0    0  501 -0.00000000000E+00 -0.00000000000E+00 -0.32627894859E+03  0.32627894859E+03  0.00000000000E+00 0.  1.
         23    2    1    2    0    0  0.48198511949E+03  0.48395398481E+03  0.42279585317E+03  0.81094071311E+03  0.11111881881E+03 0.  0.
        254    2    1    2    0    0 -0.48198511949E+03 -0.48395398481E+03  0.22854485325E+04  0.25498615698E+04  0.90110926933E+03 0.  0.
        -24    2    4    4    0    0 -0.74409228901E+02  0.17057520305E+03  0.89463039615E+02  0.22109195278E+03  0.79027734919E+02 0.  0.
         24    2    4    4    0    0 -0.40757589059E+03 -0.65452918786E+03  0.21959854929E+04  0.23287696170E+04  0.79303716914E+02 0.  0.
         13    1    3    3    0    0  0.30026919321E+03  0.28277848042E+03  0.19223155099E+03  0.45505848698E+03  0.00000000000E+00 0. -1.
        -13    1    3    3    0    0  0.18171592628E+03  0.20117550439E+03  0.23056430218E+03  0.35588222613E+03  0.00000000000E+00 0.  1.
          4    1    6    6  502    0 -0.37322204506E+03 -0.55851234172E+03  0.18560455684E+04  0.19738631874E+04  0.00000000000E+00 0. -1.
          1    1    5    5  503    0 -0.50434755334E+02  0.17082081297E+03  0.81028946029E+02  0.19567601995E+03  0.00000000000E+00 0. -1.
         -2    1    5    5    0  503 -0.23974473567E+02 -0.24560991953E+00  0.84340935858E+01  0.25415932831E+02  0.00000000000E+00 0.  1.
         -3    1    6    6    0  502 -0.34353845537E+02 -0.96016846144E+02  0.33993992451E+03  0.35490642953E+03  0.00000000000E+00 0.  1.
<mgrwt>
<rscale>  0 0.19900765E+04</rscale>
<asrwt>0</asrwt>
<pdfrwt beam="1">  1        2 0.46684972E+00 0.19900765E+04</pdfrwt>
<pdfrwt beam="2">  1       -2 0.50196763E-01 0.19900765E+04</pdfrwt>
<totfact> 0.57961538E+00</totfact>
</mgrwt>
</event>
<event>
12    1  0.1114484E-007  0.1354128E+04  0.7818608E-02  0.8987709E-01
         -2   -1    0    0    0  501 -0.00000000000E+00  0.00000000000E+00  0.64332287754E+03  0.64332287754E+03  0.00000000000E+00 0.  1.
          2   -1    0    0  501    0  0.00000000000E+00 -0.00000000000E+00 -0.71257511443E+03  0.71257511443E+03  0.00000000000E+00 0. -1.
         23    2    1    2    0    0  0.36054803379E+02 -0.31354309822E+03 -0.20738368187E+03  0.38792114477E+03  0.88688216640E+02 0.  0.
        254    2    1    2    0    0 -0.36054803379E+02  0.31354309822E+03  0.13813144498E+03  0.96797684720E+03  0.90459364210E+03 0.  0.
        -24    2    4    4    0    0  0.42135362912E+03  0.14018449177E+03  0.14035546012E+03  0.47259086230E+03  0.80323691627E+02 0.  0.
         24    2    4    4    0    0 -0.45740843250E+03  0.17335860645E+03 -0.22240151371E+01  0.49538598490E+03  0.78272902313E+02 0.  0.
         13    1    3    3    0    0  0.29051545472E+02 -0.31167716166E+02 -0.11334631280E+02  0.44089598451E+02  0.00000000000E+00 0.  1.
        -13    1    3    3    0    0  0.70032579066E+01 -0.28237538205E+03 -0.19604905059E+03  0.34383154632E+03  0.00000000000E+00 0. -1.
          2    1    6    6  502    0 -0.14835779227E+03  0.21814745391E+02 -0.16670543230E+02  0.15087685262E+03  0.00000000000E+00 0. -1.
          3    1    5    5  503    0  0.10101759692E+03  0.21593160613E+02  0.67282168465E+02  0.12327899118E+03  0.00000000000E+00 0. -1.
         -4    1    5    5    0  503  0.32033603220E+03  0.11859133116E+03  0.73073291654E+02  0.34931187112E+03  0.00000000000E+00 0.  1.
         -1    1    6    6    0  502 -0.30905064023E+03  0.15154386106E+03  0.14446528092E+02  0.34450913228E+03  0.00000000000E+00 0.  1.
<mgrwt>
<rscale>  0 0.13541283E+04</rscale>
<asrwt>0</asrwt>
<pdfrwt beam="1">  1        2 0.10962694E+00 0.13541283E+04</pdfrwt>
<pdfrwt beam="2">  1       -2 0.98972751E-01 0.13541283E+04</pdfrwt>
<totfact> 0.33115584E+01</totfact>
</mgrwt>
</event>
<event>
12    1  0.1114484E-007  0.3858504E+04  0.7818608E-02  0.8033715E-01
         -1   -1    0    0    0  501 -0.00000000000E+00  0.00000000000E+00  0.17361127023E+04  0.17361127023E+04  0.00000000000E+00 0.  1.
          1   -1    0    0  501    0  0.00000000000E+00 -0.00000000000E+00 -0.21438774115E+04  0.21438774115E+04  0.00000000000E+00 0. -1.
         23    2    1    2    0    0 -0.37999999124E+03 -0.43613033299E+03  0.15523593311E+04  0.16591182144E+04  0.90797003320E+02 0.  0.
        254    2    1    2    0    0  0.37999999124E+03  0.43613033299E+03 -0.19601240404E+04  0.22208718994E+04  0.86923879312E+03 0.  0.
        -24    2    4    4    0    0 -0.19922930552E+03  0.40232020500E+03 -0.78073912402E+03  0.90414483846E+03  0.79815071315E+02 0.  0.
         24    2    4    4    0    0  0.57922929676E+03  0.33810127990E+02 -0.11793849163E+04  0.13167270610E+04  0.78559972427E+02 0.  0.
         13    1    3    3    0    0 -0.46232845871E+02 -0.10792139471E+03  0.31751477254E+03  0.33852641589E+03  0.00000000000E+00 0. -1.
        -13    1    3    3    0    0 -0.33376714537E+03 -0.32820893828E+03  0.12348445586E+04  0.13205917985E+04  0.00000000000E+00 0.  1.
          4    1    6    6  502    0  0.67689318692E+02  0.36149163334E+01 -0.20338610752E+03  0.21438474810E+03  0.00000000000E+00 0. -1.
          3    1    5    5  503    0 -0.70119329174E+02  0.79960605339E+02 -0.22440127659E+03  0.24832710618E+03  0.00000000000E+00 0. -1.
         -4    1    5    5    0  503 -0.12910997634E+03  0.32235959966E+03 -0.55633784743E+03  0.65581773228E+03  0.00000000000E+00 0.  1.
         -3    1    6    6    0  502  0.51153997807E+03  0.30195211657E+02 -0.97599880882E+03  0.11023423129E+04  0.00000000000E+00 0.  1.
<mgrwt>
<rscale>  0 0.38585038E+04</rscale>
<asrwt>0</asrwt>
<pdfrwt beam="1">  1        1 0.32982729E+00 0.38585038E+04</pdfrwt>
<pdfrwt beam="2">  1       -1 0.26709426E+00 0.38585038E+04</pdfrwt>
<totfact> 0.10166068E-01</totfact>
</mgrwt>
</event>
<event>
12    1  0.1114484E-007  0.1691873E+04  0.7818608E-02  0.8766013E-01
         -2   -1    0    0    0  501 -0.00000000000E+00  0.00000000000E+00  0.19686293430E+03  0.19686293430E+03  0.00000000000E+00 0.  1.
          2   -1    0    0  501    0  0.00000000000E+00 -0.00000000000E+00 -0.36350601941E+04  0.36350601941E+04  0.00000000000E+00 0. -1.
         23    2    1    2    0    0 -0.28241223887E+03 -0.68735547462E+02 -0.24352947651E+04  0.24543363205E+04  0.92870517978E+02 0.  0.
        254    2    1    2    0    0  0.28241223887E+03  0.68735547462E+02 -0.10029024947E+04  0.13775868079E+04  0.89858263463E+03 0.  0.
        -24    2    4    4    0    0  0.53977243224E+03 -0.10199481300E+03 -0.87022334967E+03  0.10321402076E+04  0.79167602527E+02 0.  0.
         24    2    4    4    0    0 -0.25736019338E+03  0.17073036046E+03 -0.13267914503E+03  0.34544660032E+03  0.79664754000E+02 0.  0.
         13    1    3    3    0    0 -0.15090463118E+03 -0.72341278654E+02 -0.16025229759E+04  0.16112372130E+04  0.00000000000E+00 0. -1.
        -13    1    3    3    0    0 -0.13150760769E+03  0.36057311919E+01 -0.83277178918E+03  0.84309910748E+03  0.00000000000E+00 0.  1.
          4    1    6    6  502    0 -0.13802432588E+03  0.13785942953E+03 -0.85191379028E+02  0.21286969701E+03  0.00000000000E+00 0. -1.
          1    1    5    5  503    0  0.36680986652E+03 -0.87080533264E+02 -0.65359184253E+03  0.75452951836E+03  0.00000000000E+00 0. -1.
         -2    1    5    5    0  503  0.17296256572E+03 -0.14914279732E+02 -0.21663150714E+03  0.27761068921E+03  0.00000000000E+00 0.  1.
         -3    1    6    6    0  502 -0.11933586750E+03  0.32870930930E+02 -0.47487766004E+02  0.13257690331E+03  0.00000000000E+00 0.  1.
<mgrwt>
<rscale>  0 0.16918731E+04</rscale>
<asrwt>0</asrwt>
<pdfrwt beam="1">  1        2 0.55923998E+00 0.16918731E+04</pdfrwt>
<pdfrwt beam="2">  1       -2 0.30286608E-01 0.16918731E+04</pdfrwt>
<totfact> 0.63214559E+00</totfact>
</mgrwt>
</event>
<event>
12    1  0.1114484E-007  0.3120400E+04  0.7818608E-02  0.8210161E-01
          2   -1    0    0  501    0  0.00000000000E+00  0.00000000000E+00  0.29490548630E+04  0.29490548630E+04  0.00000000000E+00 0. -1.
         -2   -1    0    0    0  501 -0.00000000000E+00 -0.00000000000E+00 -0.82542534529E+03  0.82542534529E+03  0.00000000000E+00 0.  1.
         23    2    1    2    0    0  0.14881158177E+03  0.31567422699E+03 -0.70135374925E+03  0.78878163596E+03  0.92110168720E+02 0.  0.
        254    2    1    2    0    0 -0.14881158177E+03 -0.31567422699E+03  0.28249832669E+04  0.29856985723E+04  0.90114948911E+03 0.  0.
        -24    2    4    4    0    0  0.22944774343E+03 -0.46521966481E+03  0.12240787136E+04  0.13320752496E+04  0.83547412080E+02 0.  0.
         24    2    4    4    0    0 -0.37825932521E+03  0.14954543782E+03  0.16009045533E+04  0.16536233227E+04  0.78299101868E+02 0.  0.
         11    1    3    3    0    0  0.42589300712E+02  0.13579257361E+03 -0.19835554001E+03  0.24412781864E+03  0.00000000000E+00 0. -1.
        -11    1    3    3    0    0  0.10622228106E+03  0.17988165338E+03 -0.50299820925E+03  0.54465381732E+03  0.00000000000E+00 0.  1.
          4    1    6    6  502    0 -0.34793910206E+03  0.14565956858E+03  0.15394337146E+04  0.15849714478E+04  0.00000000000E+00 0. -1.
          3    1    5    5  503    0  0.22953183141E+03 -0.41814939490E+03  0.11388609746E+04  0.12347218706E+04  0.00000000000E+00 0. -1.
         -4    1    5    5    0  503 -0.84087979015E-01 -0.47070269905E+02  0.85217738941E+02  0.97353379037E+02  0.00000000000E+00 0.  1.
         -3    1    6    6    0  502 -0.30320223153E+02  0.38858692345E+01  0.61470838741E+02  0.68651874900E+02  0.00000000000E+00 0.  1.
<mgrwt>
<rscale>  0 0.31204004E+04</rscale>
<asrwt>0</asrwt>
<pdfrwt beam="1">  1        2 0.45370074E+00 0.31204004E+04</pdfrwt>
<pdfrwt beam="2">  1       -2 0.12698852E+00 0.31204004E+04</pdfrwt>
<totfact> 0.73127779E-01</totfact>
</mgrwt>
</event>
<event>
12    1  0.1114484E-007  0.1478071E+04  0.7818608E-02  0.8899168E-01
          2   -1    0    0  501    0  0.00000000000E+00  0.00000000000E+00  0.24014731894E+04  0.24014731894E+04  0.00000000000E+00 0. -1.
         -2   -1    0    0    0  501 -0.00000000000E+00 -0.00000000000E+00 -0.22743253333E+03  0.22743253333E+03  0.00000000000E+00 0.  1.
         23    2    1    2    0    0  0.17516023995E+03 -0.14276797364E+03 -0.22698780613E+02  0.24526357455E+03  0.92602280764E+02 0.  0.
        254    2    1    2    0    0 -0.17516023995E+03  0.14276797364E+03  0.21967394367E+04  0.23836421482E+04  0.89723014549E+03 0.  0.
        -24    2    4    4    0    0 -0.12155455799E+03  0.46687030988E+03  0.73174626069E+03  0.88011154612E+03  0.80002167294E+02 0.  0.
         24    2    4    4    0    0 -0.53605681951E+02 -0.32410233623E+03  0.14649931760E+04  0.15035306021E+04  0.80519389836E+02 0.  0.
         13    1    3    3    0    0  0.17117154570E+03 -0.96430972985E+02 -0.85525719245E+01  0.19665141010E+03  0.00000000000E+00 0.  1.
        -13    1    3    3    0    0  0.39886942426E+01 -0.46337000657E+02 -0.14146208688E+02  0.48612164444E+02  0.00000000000E+00 0. -1.
          4    1    6    6  502    0 -0.64480750268E+02 -0.31789812586E+03  0.13793362519E+04  0.14169634722E+04  0.00000000000E+00 0. -1.
          3    1    5    5  503    0 -0.26412834280E+02  0.24876287006E+03  0.34821263990E+03  0.42875709431E+03  0.00000000000E+00 0. -1.
         -4    1    5    5    0  503 -0.95141723715E+02  0.21810743981E+03  0.38353362079E+03  0.45135445181E+03  0.00000000000E+00 0.  1.
         -3    1    6    6    0  502  0.10875068318E+02 -0.62042103746E+01  0.85656924126E+02  0.86567129951E+02  0.00000000000E+00 0.  1.
<mgrwt>
<rscale>  0 0.14780705E+04</rscale>
<asrwt>0</asrwt>
<pdfrwt beam="1">  1        2 0.36945740E+00 0.14780705E+04</pdfrwt>
<pdfrwt beam="2">  1       -2 0.34989622E-01 0.14780705E+04</pdfrwt>
<totfact> 0.29501122E+01</totfact>
</mgrwt>
</event>
<event>
12    1  0.1114484E-007  0.2762202E+04  0.7818608E-02  0.8315100E-01
          1   -1    0    0  501    0  0.00000000000E+00  0.00000000000E+00  0.26270750101E+04  0.26270750101E+04  0.00000000000E+00 0. -1.
         -1   -1    0    0    0  501 -0.00000000000E+00 -0.00000000000E+00 -0.72606998623E+03  0.72606998623E+03  0.00000000000E+00 0.  1.
         23    2    1    2    0    0  0.11349844316E+04  0.45436966754E+03  0.62840515605E+03  0.13776404286E+04  0.91425684216E+02 0.  0.
        254    2    1    2    0    0 -0.11349844316E+04 -0.45436966754E+03  0.12725998678E+04  0.19755045677E+04  0.88795631575E+03 0.  0.
        -24    2    4    4    0    0 -0.11538097884E+04 -0.40549645859E+03  0.13665840981E+04  0.18356309897E+04  0.79275642503E+02 0.  0.
         24    2    4    4    0    0  0.18825356798E+02 -0.48873208946E+02 -0.93984230211E+02  0.13987357803E+03  0.89378955535E+02 0.  0.
         13    1    3    3    0    0  0.49623378354E+02  0.10891344475E+01  0.29349621402E+02  0.57663386733E+02  0.00000000000E+00 0. -1.
        -13    1    3    3    0    0  0.10853610532E+04  0.45328053309E+03  0.59905553465E+03  0.13199770419E+04  0.00000000000E+00 0.  1.
          2    1    6    6  502    0  0.50742547593E+02 -0.43215578023E+02 -0.42543562411E+02  0.79071783986E+02  0.00000000000E+00 0. -1.
          1    1    5    5  503    0 -0.81671576951E+02 -0.41435987570E+02  0.78274267210E+02  0.12047426470E+03  0.00000000000E+00 0. -1.
         -4    1    5    5    0  503 -0.10721382114E+04 -0.36406047102E+03  0.12883098308E+04  0.17151567250E+04  0.00000000000E+00 0.  1.
         -1    1    6    6    0  502 -0.31917190795E+02 -0.56576309225E+01 -0.51440667799E+02  0.60801794048E+02  0.00000000000E+00 0.  1.
<mgrwt>
<rscale>  0 0.27622022E+04</rscale>
<asrwt>0</asrwt>
<pdfrwt beam="1">  1        1 0.40416538E+00 0.27622022E+04</pdfrwt>
<pdfrwt beam="2">  1       -1 0.11170308E+00 0.27622022E+04</pdfrwt>
<totfact> 0.70554765E-01</totfact>
</mgrwt>
</event>
<event>
12    1  0.1114484E-007  0.2381571E+04  0.7818608E-02  0.8446436E-01
         -2   -1    0    0    0  501 -0.00000000000E+00  0.00000000000E+00  0.44321928673E+03  0.44321928673E+03  0.00000000000E+00 0. -1.
          2   -1    0    0  501    0  0.00000000000E+00 -0.00000000000E+00 -0.31992514107E+04  0.31992514107E+04  0.00000000000E+00 0.  1.
         23    2    1    2    0    0 -0.94655075030E+02 -0.59884261625E+03  0.68937542212E+02  0.61647900039E+03  0.87874404299E+02 0.  0.
        254    2    1    2    0    0  0.94655075030E+02  0.59884261625E+03 -0.28249696662E+04  0.30259916970E+04  0.89922192672E+03 0.  0.
        -24    2    4    4    0    0  0.12206814777E+03  0.81308122803E+03 -0.18833006092E+04  0.20565579334E+04  0.81287345365E+02 0.  0.
         24    2    4    4    0    0 -0.27413072740E+02 -0.21423861179E+03 -0.94166905693E+03  0.96943376365E+03  0.80072154924E+02 0.  0.
         11    1    3    3    0    0 -0.49760538623E+02 -0.10720082555E+03  0.25319663308E+02  0.12086857967E+03  0.00000000000E+00 0.  1.
        -11    1    3    3    0    0 -0.44894536407E+02 -0.49164179070E+03  0.43617878904E+02  0.49561042072E+03  0.00000000000E+00 0. -1.
          2    1    6    6  502    0 -0.52569461914E+02 -0.14496025340E+03 -0.69964778432E+03  0.71643844501E+03  0.00000000000E+00 0. -1.
          3    1    5    5  503    0  0.11713562583E+03  0.80279587883E+03 -0.18257857938E+04  0.19979228571E+04  0.00000000000E+00 0. -1.
         -4    1    5    5    0  503  0.49325219452E+01  0.10285349204E+02 -0.57514815419E+02  0.58635076308E+02  0.00000000000E+00 0.  1.
         -1    1    6    6    0  502  0.25156389174E+02 -0.69278358389E+02 -0.24202127261E+03  0.25299531864E+03  0.00000000000E+00 0.  1.
<mgrwt>
<rscale>  0 0.23815708E+04</rscale>
<asrwt>0</asrwt>
<pdfrwt beam="1">  1        2 0.49219252E+00 0.23815708E+04</pdfrwt>
<pdfrwt beam="2">  1       -2 0.68187584E-01 0.23815708E+04</pdfrwt>
<totfact> 0.23036873E+00</totfact>
</mgrwt>
</event>
<event>
12    1  0.1114484E-007  0.1090503E+04  0.7818608E-02  0.9214498E-01
          2   -1    0    0  501    0  0.00000000000E+00  0.00000000000E+00  0.71311544305E+03  0.71311544305E+03  0.00000000000E+00 0. -1.
         -2   -1    0    0    0  501 -0.00000000000E+00 -0.00000000000E+00 -0.41690229660E+03  0.41690229660E+03  0.00000000000E+00 0.  1.
         23    2    1    2    0    0 -0.30152766546E+02  0.12225689572E+02  0.19590808733E+03  0.21765710193E+03  0.89084109254E+02 0.  0.
        254    2    1    2    0    0  0.30152766546E+02 -0.12225689572E+02  0.10030505912E+03  0.91236063773E+03  0.90624619811E+03 0.  0.
        -24    2    4    4    0    0 -0.15552758855E+03 -0.41417973467E+03 -0.91301302799E+01  0.44954320725E+03  0.79196290911E+02 0.  0.
         24    2    4    4    0    0  0.18568035510E+03  0.40195404509E+03  0.10943518940E+03  0.46281743048E+03  0.78610843046E+02 0.  0.
         11    1    3    3    0    0 -0.52485864345E+02 -0.82899614359E+01  0.16885408061E+03  0.17701748488E+03  0.00000000000E+00 0. -1.
        -11    1    3    3    0    0  0.22333097800E+02  0.20515651008E+02  0.27054006723E+02  0.40639617043E+02  0.00000000000E+00 0.  1.
          4    1    6    6  502    0  0.16152192045E+03  0.29148774890E+03  0.10595470022E+03  0.34968676990E+03  0.00000000000E+00 0. -1.
          3    1    5    5  503    0 -0.15922102762E+03 -0.38010830164E+03  0.58280734059E+01  0.41215000067E+03  0.00000000000E+00 0. -1.
         -4    1    5    5    0  503  0.36934390694E+01 -0.34071433024E+02 -0.14958203686E+02  0.37393206575E+02  0.00000000000E+00 0.  1.
         -3    1    6    6    0  502  0.24158434654E+02  0.11046629619E+03  0.34804891758E+01  0.11313066058E+03  0.00000000000E+00 0.  1.
<mgrwt>
<rscale>  0 0.10905035E+04</rscale>
<asrwt>0</asrwt>
<pdfrwt beam="1">  1        2 0.10971007E+00 0.10905035E+04</pdfrwt>
<pdfrwt beam="2">  1       -2 0.64138815E-01 0.10905035E+04</pdfrwt>
<totfact> 0.89357848E+01</totfact>
</mgrwt>
</event>
<event>
12    1  0.1114484E-007  0.1540202E+04  0.7818608E-02  0.8858150E-01
         -2   -1    0    0    0  501 -0.00000000000E+00  0.00000000000E+00  0.29450922486E+03  0.29450922486E+03  0.00000000000E+00 0.  1.
          2   -1    0    0  501    0  0.00000000000E+00 -0.00000000000E+00 -0.20137088823E+04  0.20137088823E+04  0.00000000000E+00 0. -1.
         23    2    1    2    0    0 -0.38468467848E+03  0.24764282507E+03 -0.25928751552E+03  0.53409771192E+03  0.93386720204E+02 0.  0.
        254    2    1    2    0    0  0.38468467848E+03 -0.24764282507E+03 -0.14599121419E+04  0.17741203952E+04  0.89824854241E+03 0.  0.
        -24    2    4    4    0    0  0.53212212616E+03 -0.93225359503E+02 -0.36880998809E+03  0.65922698366E+03  0.81941954288E+02 0.  0.
         24    2    4    4    0    0 -0.14743744768E+03 -0.15441746557E+03 -0.10911021538E+04  0.11148934115E+04  0.83071381336E+02 0.  0.
         11    1    3    3    0    0  0.38447082665E+01  0.36376500956E+01 -0.11512151871E+02  0.12670592747E+02  0.00000000000E+00 0. -1.
        -11    1    3    3    0    0 -0.38852938675E+03  0.24400517498E+03 -0.24777536365E+03  0.52142711918E+03  0.00000000000E+00 0.  1.
          4    1    6    6  502    0 -0.76332058630E+02 -0.34971314799E+02 -0.29370679357E+03  0.30547218633E+03  0.00000000000E+00 0. -1.
          3    1    5    5  503    0  0.19914146351E+02  0.12337186368E+02 -0.16499333848E+02  0.28653226866E+02  0.00000000000E+00 0. -1.
         -4    1    5    5    0  503  0.51220797981E+03 -0.10556254587E+03 -0.35231065424E+03  0.63057375680E+03  0.00000000000E+00 0.  1.
         -3    1    6    6    0  502 -0.71105389049E+02 -0.11944615077E+03 -0.79739536023E+03  0.80942122520E+03  0.00000000000E+00 0.  1.
<mgrwt>
<rscale>  0 0.15402024E+04</rscale>
<asrwt>0</asrwt>
<pdfrwt beam="1">  1        2 0.30980138E+00 0.15402024E+04</pdfrwt>
<pdfrwt beam="2">  1       -2 0.45309110E-01 0.15402024E+04</pdfrwt>
<totfact> 0.29221776E+01</totfact>
</mgrwt>
</event>
<event>
12    1  0.1114484E-007  0.1434757E+04  0.7818608E-02  0.8929037E-01
          2   -1    0    0  501    0  0.00000000000E+00  0.00000000000E+00  0.64603875898E+03  0.64603875898E+03  0.00000000000E+00 0. -1.
         -2   -1    0    0    0  501 -0.00000000000E+00 -0.00000000000E+00 -0.79659612808E+03  0.79659612808E+03  0.00000000000E+00 0.  1.
         23    2    1    2    0    0  0.22079331193E+03 -0.31165791435E+02 -0.41700001618E+03  0.48245507772E+03  0.95670765534E+02 0.  0.
        254    2    1    2    0    0 -0.22079331193E+03  0.31165791435E+02  0.26644264707E+03  0.96017980934E+03  0.89511596396E+03 0.  0.
        -24    2    4    4    0    0  0.59127302360E+02 -0.28027834808E+03  0.41295415005E+03  0.50899732943E+03  0.80592561922E+02 0.  0.
         24    2    4    4    0    0 -0.27992061429E+03  0.31144413952E+03 -0.14651150298E+03  0.45118247991E+03  0.82140168745E+02 0.  0.
         13    1    3    3    0    0  0.20481227805E+03 -0.53023845210E+02 -0.39274316778E+03  0.44610177453E+03  0.00000000000E+00 0.  1.
        -13    1    3    3    0    0  0.15981033885E+02  0.21858053775E+02 -0.24256848397E+02  0.36353303193E+02  0.00000000000E+00 0. -1.
          4    1    6    6  502    0 -0.25935132124E+03  0.24635180787E+03 -0.11294854809E+03  0.37511291045E+03  0.00000000000E+00 0. -1.
          1    1    5    5  503    0  0.40264525731E+02 -0.41991885384E+02  0.91074761698E+02  0.10807017483E+03  0.00000000000E+00 0. -1.
         -2    1    5    5    0  503  0.18862776629E+02 -0.23828646270E+03  0.32187938835E+03  0.40092715460E+03  0.00000000000E+00 0.  1.
         -3    1    6    6    0  502 -0.20569293051E+02  0.65092331651E+02 -0.33562954891E+02  0.76069569457E+02  0.00000000000E+00 0.  1.
<mgrwt>
<rscale>  0 0.14347571E+04</rscale>
<asrwt>0</asrwt>
<pdfrwt beam="1">  1        2 0.99390579E-01 0.14347571E+04</pdfrwt>
<pdfrwt beam="2">  1       -2 0.12255325E+00 0.14347571E+04</pdfrwt>
<totfact> 0.22155810E+01</totfact>
</mgrwt>
</event>
<event>
12    1  0.1143394E-007  0.2579769E+04  0.7818608E-02  0.8375106E-01
         -1   -1    0    0    0  501 -0.00000000000E+00  0.00000000000E+00  0.67256551495E+03  0.67256551495E+03  0.00000000000E+00 0.  1.
          1   -1    0    0  501    0  0.00000000000E+00 -0.00000000000E+00 -0.24738138668E+04  0.24738138668E+04  0.00000000000E+00 0. -1.
         23    2    1    2    0    0 -0.10426667902E+04  0.35001063006E+03 -0.47816642038E+03  0.12054567958E+04  0.12174351918E+03 0.  0.
        254    2    1    2    0    0  0.10426667902E+04 -0.35001063006E+03 -0.13230819315E+04  0.19409225860E+04  0.89831687666E+03 0.  0.
        -24    2    4    4    0    0  0.72738826474E+02 -0.95905982772E+02 -0.78943171453E+03  0.80247621487E+03  0.79225937149E+02 0.  0.
         24    2    4    4    0    0  0.96992796368E+03 -0.25410464729E+03 -0.53365021692E+03  0.11384463711E+04  0.77124310785E+02 0.  0.
         11    1    3    3    0    0 -0.74334191104E+02  0.24875192622E+02 -0.18708819311E+01  0.78408209865E+02  0.00000000000E+00 0. -1.
        -11    1    3    3    0    0 -0.96833259905E+03  0.32513543744E+03 -0.47629553845E+03  0.11270485859E+04  0.00000000000E+00 0.  1.
          2    1    6    6  502    0  0.97070489434E+03 -0.25219761678E+03 -0.53418211075E+03  0.11363195665E+04  0.00000000000E+00 0. -1.
          3    1    5    5  503    0  0.69963801820E+02 -0.59634207454E+02 -0.69872688086E+03  0.70474848443E+03  0.00000000000E+00 0. -1.
         -2    1    5    5    0  503  0.27750246540E+01 -0.36271775319E+02 -0.90704833667E+02  0.97727730441E+02  0.00000000000E+00 0.  1.
         -1    1    6    6    0  502 -0.77693066281E+00 -0.19070305118E+01  0.53189382470E+00  0.21268045676E+01  0.00000000000E+00 0.  1.
<mgrwt>
<rscale>  0 0.25797689E+04</rscale>
<asrwt>0</asrwt>
<pdfrwt beam="1">  1        1 0.38058674E+00 0.25797689E+04</pdfrwt>
<pdfrwt beam="2">  1       -1 0.10347162E+00 0.25797689E+04</pdfrwt>
<totfact> 0.10974913E+00</totfact>
</mgrwt>
</event>
<event>
12    1  0.1114484E-007  0.2616923E+04  0.7818608E-02  0.8362475E-01
         -2   -1    0    0    0  501 -0.00000000000E+00  0.00000000000E+00  0.77104835541E+03  0.77104835541E+03  0.00000000000E+00 0.  1.
          2   -1    0    0  501    0  0.00000000000E+00 -0.00000000000E+00 -0.22204466296E+04  0.22204466296E+04  0.00000000000E+00 0. -1.
         23    2    1    2    0    0  0.78265556802E+03 -0.84432550627E+03 -0.69440614761E+03  0.13472838489E+04  0.86824956304E+02 0.  0.
        254    2    1    2    0    0 -0.78265556802E+03  0.84432550627E+03 -0.75499212660E+03  0.16442111361E+04  0.89887810640E+03 0.  0.
        -24    2    4    4    0    0  0.11776647102E+03  0.89941023879E+01 -0.30007484542E+03  0.33196416343E+03  0.78774725471E+02 0.  0.
         24    2    4    4    0    0 -0.90042203904E+03  0.83533140388E+03 -0.45491728117E+03  0.13122469727E+04  0.80647268193E+02 0.  0.
         11    1    3    3    0    0  0.67482167090E+03 -0.68984189307E+03 -0.60254431002E+03  0.11376843897E+04  0.00000000000E+00 0. -1.
        -11    1    3    3    0    0  0.10783389712E+03 -0.15448361320E+03 -0.91861837588E+02  0.20959945926E+03  0.00000000000E+00 0.  1.
          2    1    6    6  502    0 -0.41571773926E+03  0.42765614292E+03 -0.24837623041E+03  0.64606637982E+03  0.00000000000E+00 0. -1.
          3    1    5    5  503    0 -0.11252537313E+02  0.38309439144E+01 -0.16107912729E+02  0.20019005463E+02  0.00000000000E+00 0. -1.
         -4    1    5    5    0  503  0.12901900833E+03  0.51631584735E+01 -0.28396693269E+03  0.31194515797E+03  0.00000000000E+00 0.  1.
         -1    1    6    6    0  502 -0.48470429979E+03  0.40767526097E+03 -0.20654105077E+03  0.66618059285E+03  0.00000000000E+00 0.  1.
<mgrwt>
<rscale>  0 0.26169232E+04</rscale>
<asrwt>0</asrwt>
<pdfrwt beam="1">  1        2 0.34160718E+00 0.26169232E+04</pdfrwt>
<pdfrwt beam="2">  1       -2 0.11862282E+00 0.26169232E+04</pdfrwt>
<totfact> 0.24270493E+00</totfact>
</mgrwt>
</event>
<event>
12    1  0.1114484E-007  0.2264936E+04  0.7818608E-02  0.8491876E-01
         -2   -1    0    0    0  501 -0.00000000000E+00  0.00000000000E+00  0.42676101406E+03  0.42676101406E+03  0.00000000000E+00 0.  1.
          2   -1    0    0  501    0  0.00000000000E+00 -0.00000000000E+00 -0.30051560260E+04  0.30051560260E+04  0.00000000000E+00 0. -1.
         23    2    1    2    0    0  0.82694022865E+03  0.21634773567E+03 -0.45231266020E+03  0.97072596154E+03  0.84176394223E+02 0.  0.
        254    2    1    2    0    0 -0.82694022865E+03 -0.21634773567E+03 -0.21260823517E+04  0.24611910785E+04  0.89810849795E+03 0.  0.
        -24    2    4    4    0    0 -0.11629155673E+03  0.11860888457E+03 -0.13191364651E+04  0.13319578888E+04  0.79993814098E+02 0.  0.
         24    2    4    4    0    0 -0.71064867192E+03 -0.33495662024E+03 -0.80694588663E+03  0.11292331897E+04  0.82392114071E+02 0.  0.
         11    1    3    3    0    0  0.46812231505E+03  0.10091640735E+03 -0.21197357372E+03  0.52369401283E+03  0.00000000000E+00 0. -1.
        -11    1    3    3    0    0  0.35881791360E+03  0.11543132832E+03 -0.24033908647E+03  0.44703194870E+03  0.00000000000E+00 0.  1.
          2    1    6    6  502    0 -0.10374841479E+01 -0.11118915356E+01 -0.13679694836E+02  0.13763964797E+02  0.00000000000E+00 0. -1.
          1    1    5    5  503    0 -0.41428763978E+02  0.62702646484E+02 -0.86800858577E+03  0.87125591495E+03  0.00000000000E+00 0. -1.
         -2    1    5    5    0  503 -0.74862792751E+02  0.55906238088E+02 -0.45112787932E+03  0.46070197384E+03  0.00000000000E+00 0.  1.
         -1    1    6    6    0  502 -0.70961118777E+03 -0.33384472870E+03 -0.79326619180E+03  0.11154692249E+04  0.00000000000E+00 0.  1.
<mgrwt>
<rscale>  0 0.22649357E+04</rscale>
<asrwt>0</asrwt>
<pdfrwt beam="1">  1        2 0.46233169E+00 0.22649357E+04</pdfrwt>
<pdfrwt beam="2">  1       -2 0.65655542E-01 0.22649357E+04</pdfrwt>
<totfact> 0.33602685E+00</totfact>
</mgrwt>
</event>
<event>
12    1  0.1114484E-007  0.1560271E+04  0.7818608E-02  0.8845334E-01
         -1   -1    0    0    0  501 -0.00000000000E+00  0.00000000000E+00  0.12616829860E+04  0.12616829860E+04  0.00000000000E+00 0.  1.
          1   -1    0    0  501    0  0.00000000000E+00 -0.00000000000E+00 -0.48238044753E+03  0.48238044753E+03  0.00000000000E+00 0. -1.
         23    2    1    2    0    0 -0.89610307785E+02 -0.47325955974E+03  0.59466233981E+02  0.49360899990E+03  0.90049950892E+02 0.  0.
        254    2    1    2    0    0  0.89610307785E+02  0.47325955974E+03  0.71983630453E+03  0.12504544337E+04  0.90192425803E+03 0.  0.
        -24    2    4    4    0    0 -0.18887582022E+03  0.63302533177E+03  0.34143108870E+03  0.74785446516E+03  0.79473055827E+02 0.  0.
         24    2    4    4    0    0  0.27848612801E+03 -0.15976577203E+03  0.37840521583E+03  0.50259996851E+03  0.79602735977E+02 0.  0.
         13    1    3    3    0    0 -0.31842986791E+02 -0.70716587358E+02  0.38029938048E+02  0.86377588085E+02  0.00000000000E+00 0. -1.
        -13    1    3    3    0    0 -0.57767320994E+02 -0.40254297238E+03  0.21436295932E+02  0.40723141182E+03  0.00000000000E+00 0.  1.
          2    1    6    6  502    0  0.16807640677E+03 -0.59156560909E+02  0.17065043461E+03  0.24671997901E+03  0.00000000000E+00 0. -1.
          1    1    5    5  503    0 -0.78052692139E+02  0.15001009766E+03  0.10196439229E+03  0.19746389402E+03  0.00000000000E+00 0. -1.
         -2    1    5    5    0  503 -0.11082312808E+03  0.48301523411E+03  0.23946669641E+03  0.55039057114E+03  0.00000000000E+00 0.  1.
         -1    1    6    6    0  502  0.11040972124E+03 -0.10060921112E+03  0.20775478122E+03  0.25587998950E+03  0.00000000000E+00 0.  1.
<mgrwt>
<rscale>  0 0.15602708E+04</rscale>
<asrwt>0</asrwt>
<pdfrwt beam="1">  1        1 0.74212377E-01 0.15602708E+04</pdfrwt>
<pdfrwt beam="2">  1       -1 0.19410507E+00 0.15602708E+04</pdfrwt>
<totfact> 0.74125715E+00</totfact>
</mgrwt>
</event>
<event>
12    1  0.1114484E-007  0.1707445E+04  0.7818608E-02  0.8757129E-01
         -2   -1    0    0    0  501 -0.00000000000E+00  0.00000000000E+00  0.29422171433E+03  0.29422171433E+03  0.00000000000E+00 0.  1.
          2   -1    0    0  501    0  0.00000000000E+00 -0.00000000000E+00 -0.24771878813E+04  0.24771878813E+04  0.00000000000E+00 0. -1.
         23    2    1    2    0    0 -0.49504201157E+03  0.88758864521E+02 -0.23113727940E+03  0.56130312572E+03  0.93231045092E+02 0.  0.
        254    2    1    2    0    0  0.49504201157E+03 -0.88758864521E+02 -0.19518288876E+04  0.22101064699E+04  0.90663657146E+03 0.  0.
        -24    2    4    4    0    0 -0.60478754314E+02  0.86916858136E+02 -0.13906190656E+04  0.13970075637E+04  0.81219009922E+02 0.  0.
         24    2    4    4    0    0  0.55552076588E+03 -0.17567572266E+03 -0.56120982202E+03  0.81309890622E+03  0.81902906564E+02 0.  0.
         13    1    3    3    0    0 -0.19862316457E+03  0.82339824746E+02 -0.97952829273E+02  0.23627476591E+03  0.00000000000E+00 0. -1.
        -13    1    3    3    0    0 -0.29641884699E+03  0.64190397749E+01 -0.13318445013E+03  0.32502835981E+03  0.00000000000E+00 0.  1.
          4    1    6    6  502    0  0.33743603020E+03 -0.12390637201E+03 -0.39481455024E+03  0.53394231204E+03  0.00000000000E+00 0. -1.
          3    1    5    5  503    0 -0.50400141680E+02  0.16311100056E+02 -0.35443835090E+03  0.35837518170E+03  0.00000000000E+00 0. -1.
         -4    1    5    5    0  503 -0.10078612634E+02  0.70605758080E+02 -0.10361807147E+04  0.10386323820E+04  0.00000000000E+00 0.  1.
         -3    1    6    6    0  502  0.21808473568E+03 -0.51769350646E+02 -0.16639527178E+03  0.27915659418E+03  0.00000000000E+00 0.  1.
<mgrwt>
<rscale>  0 0.17074454E+04</rscale>
<asrwt>0</asrwt>
<pdfrwt beam="1">  1        2 0.38110583E+00 0.17074454E+04</pdfrwt>
<pdfrwt beam="2">  1       -2 0.45264879E-01 0.17074454E+04</pdfrwt>
<totfact> 0.15819578E+01</totfact>
</mgrwt>
</event>
<event>
12    1  0.1114484E-007  0.1629284E+04  0.7818608E-02  0.8802757E-01
          2   -1    0    0  501    0  0.00000000000E+00  0.00000000000E+00  0.22557426486E+04  0.22557426486E+04  0.00000000000E+00 0. -1.
         -2   -1    0    0    0  501 -0.00000000000E+00 -0.00000000000E+00 -0.29420078512E+03  0.29420078512E+03  0.00000000000E+00 0.  1.
         23    2    1    2    0    0  0.36316592375E+03 -0.32202744053E+03  0.11278807609E+04  0.12313847971E+04  0.92748839802E+02 0.  0.
        254    2    1    2    0    0 -0.36316592375E+03  0.32202744053E+03  0.83366110260E+03  0.13185586366E+04  0.89889648093E+03 0.  0.
        -24    2    4    4    0    0 -0.34180735696E+03  0.48452880919E+03  0.93489011038E+03  0.11102260413E+04  0.83557812494E+02 0.  0.
         24    2    4    4    0    0 -0.21358566790E+02 -0.16250136865E+03 -0.10122900778E+03  0.20833259529E+03  0.79323861809E+02 0.  0.
         13    1    3    3    0    0  0.20824538665E+03 -0.24249008976E+03  0.70685465882E+03  0.77576484413E+03  0.00000000000E+00 0. -1.
        -13    1    3    3    0    0  0.15492053710E+03 -0.79537350773E+02  0.42102610203E+03  0.45561995300E+03  0.00000000000E+00 0.  1.
          4    1    6    6  502    0 -0.35236843830E+02 -0.13702644373E+03 -0.51128731223E+02  0.15043945161E+03  0.00000000000E+00 0. -1.
          3    1    5    5  503    0 -0.26815801335E+03  0.39888275158E+03  0.69424622788E+03  0.84438971723E+03  0.00000000000E+00 0. -1.
         -4    1    5    5    0  503 -0.73649343603E+02  0.85646057611E+02  0.24064388250E+03  0.26583632405E+03  0.00000000000E+00 0.  1.
         -3    1    6    6    0  502  0.13878277039E+02 -0.25474924925E+02 -0.50100276558E+02  0.57893143676E+02  0.00000000000E+00 0.  1.
<mgrwt>
<rscale>  0 0.16292836E+04</rscale>
<asrwt>0</asrwt>
<pdfrwt beam="1">  1        2 0.34703732E+00 0.16292836E+04</pdfrwt>
<pdfrwt beam="2">  1       -2 0.45261661E-01 0.16292836E+04</pdfrwt>
<totfact> 0.21291820E+01</totfact>
</mgrwt>
</event>
<event>
12    1  0.1114484E-007  0.1622166E+04  0.7818608E-02  0.8807045E-01
          1   -1    0    0  501    0  0.00000000000E+00  0.00000000000E+00  0.12544612288E+04  0.12544612288E+04  0.00000000000E+00 0. -1.
         -1   -1    0    0    0  501 -0.00000000000E+00 -0.00000000000E+00 -0.52441272582E+03  0.52441272582E+03  0.00000000000E+00 0.  1.
         23    2    1    2    0    0  0.47470063980E+03  0.28737922123E+03  0.22615556525E+03  0.60658150166E+03  0.94166152351E+02 0.  0.
        254    2    1    2    0    0 -0.47470063980E+03 -0.28737922123E+03  0.50389293775E+03  0.11722924530E+04  0.90135120147E+03 0.  0.
        -24    2    4    4    0    0 -0.45552281989E+03 -0.50893730429E+03  0.60419793466E+03  0.91544617393E+03  0.80425953414E+02 0.  0.
         24    2    4    4    0    0 -0.19177819909E+02  0.22155808307E+03 -0.10030499691E+03  0.25684627905E+03  0.80331473956E+02 0.  0.
         11    1    3    3    0    0  0.16173485658E+03  0.14711836229E+03  0.68454324654E+02  0.22910253364E+03  0.00000000000E+00 0. -1.
        -11    1    3    3    0    0  0.31296578321E+03  0.14026085893E+03  0.15770124060E+03  0.37747896802E+03  0.00000000000E+00 0.  1.
          2    1    6    6  502    0  0.27966203761E+02  0.12857981742E+03 -0.65147347783E+02  0.14683002051E+03  0.00000000000E+00 0. -1.
          1    1    5    5  503    0 -0.45607065191E+03 -0.50431254262E+03  0.60564457638E+03  0.91056956521E+03  0.00000000000E+00 0. -1.
         -2    1    5    5    0  503  0.54783202653E+00 -0.46247616692E+01 -0.14466417164E+01  0.48766087276E+01  0.00000000000E+00 0.  1.
         -1    1    6    6    0  502 -0.47144023670E+02  0.92978265647E+02 -0.35157649128E+02  0.11001625854E+03  0.00000000000E+00 0.  1.
<mgrwt>
<rscale>  0 0.16221658E+04</rscale>
<asrwt>0</asrwt>
<pdfrwt beam="1">  1        1 0.19299403E+00 0.16221658E+04</pdfrwt>
<pdfrwt beam="2">  1       -1 0.80678881E-01 0.16221658E+04</pdfrwt>
<totfact> 0.14313352E+01</totfact>
</mgrwt>
</event>
<event>
12    1  0.1114484E-007  0.2081430E+04  0.7818608E-02  0.8569468E-01
         -2   -1    0    0    0  501 -0.00000000000E+00  0.00000000000E+00  0.95686866154E+03  0.95686866154E+03  0.00000000000E+00 0.  1.
          2   -1    0    0  501    0  0.00000000000E+00 -0.00000000000E+00 -0.11319085855E+04  0.11319085855E+04  0.00000000000E+00 0. -1.
         23    2    1    2    0    0 -0.83401749828E+02  0.80370313853E+03 -0.96352865332E+01  0.81332606773E+03  0.92259779723E+02 0.  0.
        254    2    1    2    0    0  0.83401749828E+02 -0.80370313853E+03 -0.16540463744E+03  0.12754511793E+04  0.97289384313E+03 0.  0.
        -24    2    4    4    0    0  0.28599265162E+03 -0.72330339544E+03  0.23141612783E+03  0.81539917530E+03  0.79767112474E+02 0.  0.
         24    2    4    4    0    0 -0.20259090179E+03 -0.80399743089E+02 -0.39682076527E+03  0.46005200402E+03  0.81694152037E+02 0.  0.
         11    1    3    3    0    0  0.93234724429E+01  0.21986130585E+03 -0.28306830609E+02  0.22187202980E+03  0.00000000000E+00 0.  1.
        -11    1    3    3    0    0 -0.92725222270E+02  0.58384183268E+03  0.18671544076E+02  0.59145403793E+03  0.00000000000E+00 0. -1.
          4    1    6    6  502    0 -0.19890720659E+03 -0.84969019124E+02 -0.34026404661E+03  0.40319155802E+03  0.00000000000E+00 0. -1.
          3    1    5    5  503    0  0.20039761830E+03 -0.41007525697E+03  0.11774272542E+03  0.47136426592E+03  0.00000000000E+00 0. -1.
         -4    1    5    5    0  503  0.85595033320E+02 -0.31322813847E+03  0.11367340241E+03  0.34403490938E+03  0.00000000000E+00 0.  1.
         -3    1    6    6    0  502 -0.36836952047E+01  0.45692760350E+01 -0.56556718663E+02  0.56860446004E+02  0.00000000000E+00 0.  1.
<mgrwt>
<rscale>  0 0.20814301E+04</rscale>
<asrwt>0</asrwt>
<pdfrwt beam="1">  1        2 0.17413978E+00 0.20814301E+04</pdfrwt>
<pdfrwt beam="2">  1       -2 0.14721056E+00 0.20814301E+04</pdfrwt>
<totfact> 0.60521081E+00</totfact>
</mgrwt>
</event>
<event>
12    1  0.1114484E-007  0.1122994E+04  0.7818608E-02  0.9183065E-01
         -2   -1    0    0    0  501 -0.00000000000E+00  0.00000000000E+00  0.21938933672E+03  0.21938933672E+03  0.00000000000E+00 0. -1.
          2   -1    0    0  501    0  0.00000000000E+00 -0.00000000000E+00 -0.14370759508E+04  0.14370759508E+04  0.00000000000E+00 0.  1.
         23    2    1    2    0    0  0.42259696653E+02 -0.16135330957E+03 -0.26892071942E+03  0.32967179798E+03  0.92435753798E+02 0.  0.
        254    2    1    2    0    0 -0.42259696653E+02  0.16135330957E+03 -0.94876589467E+03  0.13267934896E+04  0.91236147911E+03 0.  0.
        -24    2    4    4    0    0 -0.37464122904E+03 -0.91797171030E+01 -0.85205356053E+03  0.93428241308E+03  0.80299686671E+02 0.  0.
         24    2    4    4    0    0  0.33238153239E+03  0.17053302667E+03 -0.96712334141E+02  0.39251107647E+03  0.71782123976E+02 0.  0.
         13    1    3    3    0    0 -0.17775891360E+02 -0.35624478829E+02 -0.11675038913E+03  0.12335209430E+03  0.00000000000E+00 0.  1.
        -13    1    3    3    0    0  0.60035588013E+02 -0.12572883074E+03 -0.15217033028E+03  0.20631970368E+03  0.00000000000E+00 0. -1.
          4    1    6    6  502    0  0.26973499718E+03  0.12233236807E+03 -0.10210129871E+03  0.31328398009E+03  0.00000000000E+00 0. -1.
          3    1    5    5  503    0 -0.28341751617E+03 -0.40970276123E+02 -0.65264770623E+03  0.71270827163E+03  0.00000000000E+00 0. -1.
         -4    1    5    5    0  503 -0.91223712867E+02  0.31790559020E+02 -0.19940585430E+03  0.22157414146E+03  0.00000000000E+00 0.  1.
         -3    1    6    6    0  502  0.62646535206E+02  0.48200658595E+02  0.53889645674E+01  0.79227096384E+02  0.00000000000E+00 0.  1.
<mgrwt>
<rscale>  0 0.11229945E+04</rscale>
<asrwt>0</asrwt>
<pdfrwt beam="1">  1        2 0.22108861E+00 0.11229945E+04</pdfrwt>
<pdfrwt beam="2">  1       -2 0.33752205E-01 0.11229945E+04</pdfrwt>
<totfact> 0.11210569E+02</totfact>
</mgrwt>
</event>
<event>
12    1  0.1114484E-007  0.1565138E+04  0.7818608E-02  0.8842256E-01
         -1   -1    0    0    0  501 -0.00000000000E+00  0.00000000000E+00  0.83803863925E+03  0.83803863925E+03  0.00000000000E+00 0.  1.
          1   -1    0    0  501    0  0.00000000000E+00 -0.00000000000E+00 -0.73077098009E+03  0.73077098009E+03  0.00000000000E+00 0. -1.
         23    2    1    2    0    0  0.93037651996E+02  0.36207552492E+03 -0.32225980184E+03  0.50185638660E+03  0.90850219918E+02 0.  0.
        254    2    1    2    0    0 -0.93037651996E+02 -0.36207552492E+03  0.42952746099E+03  0.10669532327E+04  0.90229744025E+03 0.  0.
        -24    2    4    4    0    0  0.37574313529E+03 -0.24018666440E+03  0.70816244195E+02  0.45857812794E+03  0.80040124387E+02 0.  0.
         24    2    4    4    0    0 -0.46878078729E+03 -0.12188886052E+03  0.35871121680E+03  0.60837510480E+03  0.82669282262E+02 0.  0.
         11    1    3    3    0    0  0.98702194915E+02  0.36429373425E+03 -0.32136192015E+03  0.49570710285E+03  0.00000000000E+00 0. -1.
        -11    1    3    3    0    0 -0.56645429188E+01 -0.22182093322E+01 -0.89788168788E+00  0.61492837506E+01  0.00000000000E+00 0.  1.
          4    1    6    6  502    0 -0.29584694170E+03 -0.11626202200E+03  0.21939351749E+03  0.38623281346E+03  0.00000000000E+00 0. -1.
          3    1    5    5  503    0  0.36066023773E+03 -0.23813074891E+03  0.53435499157E+02  0.43547378018E+03  0.00000000000E+00 0. -1.
         -4    1    5    5    0  503  0.15082897570E+02 -0.20559154852E+01  0.17380745038E+02  0.23104347766E+02  0.00000000000E+00 0.  1.
         -3    1    6    6    0  502 -0.17293384559E+03 -0.56268385177E+01  0.13931769931E+03  0.22214229134E+03  0.00000000000E+00 0.  1.
<mgrwt>
<rscale>  0 0.15651381E+04</rscale>
<asrwt>0</asrwt>
<pdfrwt beam="1">  1        1 0.11242630E+00 0.15651381E+04</pdfrwt>
<pdfrwt beam="2">  1       -1 0.12892902E+00 0.15651381E+04</pdfrwt>
<totfact> 0.12711199E+01</totfact>
</mgrwt>
</event>
<event>
12    1  0.1114484E-007  0.2104265E+04  0.7818608E-02  0.8559367E-01
          1   -1    0    0  501    0  0.00000000000E+00  0.00000000000E+00  0.13786284868E+04  0.13786284868E+04  0.00000000000E+00 0. -1.
         -1   -1    0    0    0  501 -0.00000000000E+00 -0.00000000000E+00 -0.80295953883E+03  0.80295953883E+03  0.00000000000E+00 0.  1.
         23    2    1    2    0    0 -0.11689010692E+03  0.53969811099E+03 -0.44485167481E+03  0.71500323148E+03  0.91647478653E+02 0.  0.
        254    2    1    2    0    0  0.11689010692E+03 -0.53969811099E+03  0.10205206227E+04  0.14665847941E+04  0.89692322345E+03 0.  0.
        -24    2    4    4    0    0 -0.27700329885E+03 -0.39717297297E+03  0.89690819296E+03  0.10223903817E+04  0.79753294891E+02 0.  0.
         24    2    4    4    0    0  0.39389340577E+03 -0.14252513802E+03  0.12361242978E+03  0.44419441237E+03  0.81013659992E+02 0.  0.
         13    1    3    3    0    0  0.14549601555E+02  0.59760984340E+02 -0.60117569293E+02  0.86006908399E+02  0.00000000000E+00 0. -1.
        -13    1    3    3    0    0 -0.13143970848E+03  0.47993712665E+03 -0.38473410551E+03  0.62899632308E+03  0.00000000000E+00 0.  1.
          4    1    6    6  502    0  0.89166156380E+02 -0.65848221630E+01  0.32256548071E+01  0.89467134611E+02  0.00000000000E+00 0. -1.
          1    1    5    5  503    0 -0.13270429664E+03 -0.23167542361E+03  0.42506845175E+03  0.50196326651E+03  0.00000000000E+00 0. -1.
         -2    1    5    5    0  503 -0.14429900221E+03 -0.16549754935E+03  0.47183974120E+03  0.52042711522E+03  0.00000000000E+00 0.  1.
         -3    1    6    6    0  502  0.30472724939E+03 -0.13594031586E+03  0.12038677497E+03  0.35472727775E+03  0.00000000000E+00 0.  1.
<mgrwt>
<rscale>  0 0.21042651E+04</rscale>
<asrwt>0</asrwt>
<pdfrwt beam="1">  1        1 0.21209669E+00 0.21042651E+04</pdfrwt>
<pdfrwt beam="2">  1       -1 0.12353224E+00 0.21042651E+04</pdfrwt>
<totfact> 0.42143068E+00</totfact>
</mgrwt>
</event>
<event>
12    1  0.1114484E-007  0.2080237E+04  0.7818608E-02  0.8569999E-01
          1   -1    0    0  501    0  0.00000000000E+00  0.00000000000E+00  0.86626755344E+03  0.86626755344E+03  0.00000000000E+00 0. -1.
         -1   -1    0    0    0  501 -0.00000000000E+00 -0.00000000000E+00 -0.12488596777E+04  0.12488596777E+04  0.00000000000E+00 0.  1.
         23    2    1    2    0    0 -0.23489590768E+03  0.40691866438E+03  0.55383900606E+03  0.73394285046E+03  0.10571459808E+03 0.  0.
        254    2    1    2    0    0  0.23489590768E+03 -0.40691866438E+03 -0.93643113036E+03  0.13811843807E+04  0.90000452487E+03 0.  0.
        -24    2    4    4    0    0  0.41506841625E+02  0.14789852854E+03  0.91696016511E+02  0.19434126510E+03  0.75918214093E+02 0.  0.
         24    2    4    4    0    0  0.19338906606E+03 -0.55481719292E+03 -0.10281271469E+04  0.11868431156E+04  0.79559427659E+02 0.  0.
         11    1    3    3    0    0 -0.14766230384E+03  0.15241798598E+03  0.23049139612E+03  0.31330764771E+03  0.00000000000E+00 0. -1.
        -11    1    3    3    0    0 -0.87233603839E+02  0.25450067840E+03  0.32334760994E+03  0.42063520275E+03  0.00000000000E+00 0.  1.
          4    1    6    6  502    0  0.17720924063E+03 -0.40394710702E+03 -0.75672838006E+03  0.87590765576E+03  0.00000000000E+00 0. -1.
          3    1    5    5  503    0  0.42553441697E+02  0.10634463586E+03  0.27392119202E+02  0.11777225977E+03  0.00000000000E+00 0. -1.
         -4    1    5    5    0  503 -0.10466000716E+01  0.41553892682E+02  0.64303897309E+02  0.76569005334E+02  0.00000000000E+00 0.  1.
         -3    1    6    6    0  502  0.16179825431E+02 -0.15087008590E+03 -0.27139876681E+03  0.31093545985E+03  0.00000000000E+00 0.  1.
<mgrwt>
<rscale>  0 0.20802371E+04</rscale>
<asrwt>0</asrwt>
<pdfrwt beam="1">  1        1 0.13327193E+00 0.20802371E+04</pdfrwt>
<pdfrwt beam="2">  1       -1 0.19213226E+00 0.20802371E+04</pdfrwt>
<totfact> 0.30520064E+00</totfact>
</mgrwt>
</event>
<event>
12    1  0.1114484E-007  0.3015479E+04  0.7818608E-02  0.8239325E-01
         -1   -1    0    0    0  501 -0.00000000000E+00  0.00000000000E+00  0.12358474875E+04  0.12358474875E+04  0.00000000000E+00 0.  1.
          1   -1    0    0  501    0  0.00000000000E+00 -0.00000000000E+00 -0.18394486051E+04  0.18394486051E+04  0.00000000000E+00 0. -1.
         23    2    1    2    0    0 -0.14640562966E+03 -0.63550163058E+03  0.95448670098E+03  0.11594373955E+04  0.89181169017E+02 0.  0.
        254    2    1    2    0    0  0.14640562966E+03  0.63550163058E+03 -0.15580878185E+04  0.19158586971E+04  0.90420128632E+03 0.  0.
        -24    2    4    4    0    0 -0.36346936856E+03  0.36053899375E+03 -0.59126488474E+03  0.78613650264E+03  0.79486407394E+02 0.  0.
         24    2    4    4    0    0  0.50987499822E+03  0.27496263683E+03 -0.96682293376E+03  0.11297221944E+04  0.77127724751E+02 0.  0.
         13    1    3    3    0    0 -0.14959231130E+03 -0.58934691325E+03  0.91504401174E+03  0.10986415190E+04  0.00000000000E+00 0.  1.
        -13    1    3    3    0    0  0.31866816457E+01 -0.46154717330E+02  0.39442689233E+02  0.60795876551E+02  0.00000000000E+00 0. -1.
          4    1    6    6  502    0  0.61125439965E+01 -0.31234652631E+01 -0.37005096788E+01  0.77982691183E+01  0.00000000000E+00 0. -1.
          1    1    5    5  503    0 -0.95183013761E+02  0.76775065427E+02 -0.19207419650E+03  0.22769873461E+03  0.00000000000E+00 0. -1.
         -2    1    5    5    0  503 -0.26828635480E+03  0.28376392833E+03 -0.39919068824E+03  0.55843776803E+03  0.00000000000E+00 0.  1.
         -3    1    6    6    0  502  0.50376245422E+03  0.27808610209E+03 -0.96312242408E+03  0.11219239253E+04  0.00000000000E+00 0.  1.
<mgrwt>
<rscale>  0 0.30154787E+04</rscale>
<asrwt>0</asrwt>
<pdfrwt beam="1">  1        1 0.28299209E+00 0.30154787E+04</pdfrwt>
<pdfrwt beam="2">  1       -1 0.19013038E+00 0.30154787E+04</pdfrwt>
<totfact> 0.57402671E-01</totfact>
</mgrwt>
</event>
<event>
12    1  0.1365984E-007  0.1533773E+04  0.7818608E-02  0.8862300E-01
         -2   -1    0    0    0  501 -0.00000000000E+00  0.00000000000E+00  0.69196824532E+03  0.69196824532E+03  0.00000000000E+00 0.  1.
          2   -1    0    0  501    0  0.00000000000E+00 -0.00000000000E+00 -0.84991587035E+03  0.84991587035E+03  0.00000000000E+00 0. -1.
         23    2    1    2    0    0 -0.13638134464E+03  0.33016092825E+03 -0.39876140809E+03  0.54213862437E+03  0.85425509905E+02 0.  0.
        254    2    1    2    0    0  0.13638134464E+03 -0.33016092825E+03  0.24081378306E+03  0.99974549131E+03  0.90216055088E+03 0.  0.
        -24    2    4    4    0    0  0.24031484265E+03  0.24134594340E+03  0.21903333432E+03  0.41301941521E+03  0.81304045445E+02 0.  0.
         24    2    4    4    0    0 -0.10393349801E+03 -0.57150687165E+03  0.21780448732E+02  0.58672607610E+03  0.79692057766E+02 0.  0.
         13    1    3    3    0    0 -0.14181959353E+03  0.28388320844E+03 -0.32028606771E+03  0.45087208642E+03  0.00000000000E+00 0. -1.
        -13    1    3    3    0    0  0.54382488902E+01  0.46277719812E+02 -0.78475340372E+02  0.91266537945E+02  0.00000000000E+00 0.  1.
          2    1    6    6  502    0 -0.91161000119E+02 -0.51516471985E+03  0.43575456582E+02  0.52497984431E+03  0.00000000000E+00 0. -1.
          1    1    5    5  503    0  0.19967153507E+03  0.20603332540E+03  0.14497921841E+03  0.32146139249E+03  0.00000000000E+00 0. -1.
         -2    1    5    5    0  503  0.40643307575E+02  0.35312618002E+02  0.74054115912E+02  0.91558022719E+02  0.00000000000E+00 0.  1.
         -1    1    6    6    0  502 -0.12772497887E+02 -0.56342151803E+02 -0.21795007851E+02  0.61746231782E+02  0.00000000000E+00 0.  1.
<mgrwt>
<rscale>  0 0.15337729E+04</rscale>
<asrwt>0</asrwt>
<pdfrwt beam="1">  1        2 0.13075629E+00 0.15337729E+04</pdfrwt>
<pdfrwt beam="2">  1       -2 0.10645665E+00 0.15337729E+04</pdfrwt>
<totfact> 0.21757897E+01</totfact>
</mgrwt>
</event>
<event>
12    1  0.1114484E-007  0.3083664E+04  0.7818608E-02  0.8220236E-01
         -1   -1    0    0    0  501 -0.00000000000E+00  0.00000000000E+00  0.82036617973E+03  0.82036617973E+03  0.00000000000E+00 0.  1.
          1   -1    0    0  501    0  0.00000000000E+00 -0.00000000000E+00 -0.28977855150E+04  0.28977855150E+04  0.00000000000E+00 0. -1.
         23    2    1    2    0    0 -0.83924214828E+03 -0.86528023853E+03 -0.17881960439E+04  0.21584602745E+04  0.90930690795E+02 0.  0.
        254    2    1    2    0    0  0.83924214828E+03  0.86528023853E+03 -0.28922329130E+03  0.15596914202E+04  0.94654632179E+03 0.  0.
        -24    2    4    4    0    0  0.23686583601E+03 -0.16377845893E+03  0.79780977425E+02  0.30903952335E+03  0.78813797996E+02 0.  0.
         24    2    4    4    0    0  0.60237631227E+03  0.10290586975E+04 -0.36900426872E+03  0.12506518968E+04  0.78402756868E+02 0.  0.
         11    1    3    3    0    0 -0.41479808175E+03 -0.46505693009E+03 -0.85696542295E+03  0.10595872465E+04  0.00000000000E+00 0. -1.
        -11    1    3    3    0    0 -0.42444406652E+03 -0.40022330845E+03 -0.93123062099E+03  0.10988730280E+04  0.00000000000E+00 0.  1.
          2    1    6    6  502    0  0.43267278627E+02  0.11095289939E+03 -0.51859842629E+02  0.12989244227E+03  0.00000000000E+00 0. -1.
          1    1    5    5  503    0  0.85726452416E+02 -0.33824179509E+02  0.57130742471E+02  0.10842979986E+03  0.00000000000E+00 0. -1.
         -2    1    5    5    0  503  0.15113938360E+03 -0.12995427942E+03  0.22650234954E+02  0.20060972349E+03  0.00000000000E+00 0.  1.
         -1    1    6    6    0  502  0.55910903364E+03  0.91810579808E+03 -0.31714442609E+03  0.11207594545E+04  0.00000000000E+00 0.  1.
<mgrwt>
<rscale>  0 0.30836636E+04</rscale>
<asrwt>0</asrwt>
<pdfrwt beam="1">  1        1 0.44581315E+00 0.30836636E+04</pdfrwt>
<pdfrwt beam="2">  1       -1 0.12621018E+00 0.30836636E+04</pdfrwt>
<totfact> 0.32711206E-01</totfact>
</mgrwt>
</event>
<event>
12    1  0.1114484E-007  0.1567881E+04  0.7818608E-02  0.8840527E-01
         -2   -1    0    0    0  501 -0.00000000000E+00  0.00000000000E+00  0.42601887402E+03  0.42601887402E+03  0.00000000000E+00 0.  1.
          2   -1    0    0  501    0  0.00000000000E+00 -0.00000000000E+00 -0.14425716540E+04  0.14425716540E+04  0.00000000000E+00 0. -1.
         23    2    1    2    0    0 -0.24198097707E+03 -0.18304977194E+03 -0.85814717313E+03  0.91513170289E+03  0.94802165658E+02 0.  0.
        254    2    1    2    0    0  0.24198097707E+03  0.18304977194E+03 -0.15840560686E+03  0.95345882513E+03  0.88990414240E+03 0.  0.
        -24    2    4    4    0    0 -0.22329678036E+02  0.51486609037E+02  0.34833050426E+03  0.36153242589E+03  0.78880094693E+02 0.  0.
         24    2    4    4    0    0  0.26431065511E+03  0.13156316291E+03 -0.50673611112E+03  0.59192639924E+03  0.80164752677E+02 0.  0.
         11    1    3    3    0    0 -0.13012690702E+03 -0.52267348415E+02 -0.47159843912E+03  0.49200607255E+03  0.00000000000E+00 0.  1.
        -11    1    3    3    0    0 -0.11185407005E+03 -0.13078242353E+03 -0.38654873400E+03  0.42312563034E+03  0.00000000000E+00 0. -1.
          4    1    6    6  502    0  0.13359028322E+03  0.11024921628E+03 -0.29960474342E+03  0.34606972670E+03  0.00000000000E+00 0. -1.
          3    1    5    5  503    0 -0.24888567233E+02  0.45170323726E+02  0.94884015421E+02  0.10799432998E+03  0.00000000000E+00 0. -1.
         -4    1    5    5    0  503  0.25588891969E+01  0.63162853113E+01  0.25344648884E+03  0.25353809591E+03  0.00000000000E+00 0.  1.
         -3    1    6    6    0  502  0.13072037189E+03  0.21313946628E+02 -0.20713136770E+03  0.24585667254E+03  0.00000000000E+00 0.  1.
<mgrwt>
<rscale>  0 0.15678811E+04</rscale>
<asrwt>0</asrwt>
<pdfrwt beam="1">  1        2 0.22193410E+00 0.15678811E+04</pdfrwt>
<pdfrwt beam="2">  1       -2 0.65541365E-01 0.15678811E+04</pdfrwt>
<totfact> 0.28203864E+01</totfact>
</mgrwt>
</event>
<event>
12    1  0.1114484E-007  0.1833185E+04  0.7818608E-02  0.8688848E-01
          1   -1    0    0  501    0  0.00000000000E+00  0.00000000000E+00  0.31734199174E+04  0.31734199174E+04  0.00000000000E+00 0. -1.
         -1   -1    0    0    0  501 -0.00000000000E+00 -0.00000000000E+00 -0.26474339109E+03  0.26474339109E+03  0.00000000000E+00 0.  1.
         23    2    1    2    0    0  0.44777339225E+03 -0.41577316248E+03  0.50789401216E+03  0.79956992924E+03  0.89372315074E+02 0.  0.
        254    2    1    2    0    0 -0.44777339225E+03  0.41577316248E+03  0.24007825141E+04  0.26385933792E+04  0.90832263392E+03 0.  0.
        -24    2    4    4    0    0  0.95823095316E+02  0.25204844064E+03  0.15548034508E+03  0.32141146797E+03  0.80129345500E+02 0.  0.
         24    2    4    4    0    0 -0.54359648757E+03  0.16372472184E+03  0.22453021691E+04  0.23171819113E+04  0.75148211294E+02 0.  0.
         11    1    3    3    0    0  0.14309052711E+00 -0.43725046553E+01  0.18765315231E+02  0.19268532056E+02  0.00000000000E+00 0. -1.
        -11    1    3    3    0    0  0.44763030173E+03 -0.41140065783E+03  0.48912869693E+03  0.78030139718E+03  0.00000000000E+00 0.  1.
          4    1    6    6  502    0 -0.45119272843E+03  0.16336285191E+03  0.19138763910E+04  0.19731155920E+04  0.00000000000E+00 0. -1.
          3    1    5    5  503    0  0.69760188885E+02  0.77752042041E+02  0.47732217015E+02  0.11484872022E+03  0.00000000000E+00 0. -1.
         -4    1    5    5    0  503  0.26062906431E+02  0.17429639860E+03  0.10774812806E+03  0.20656274775E+03  0.00000000000E+00 0.  1.
         -3    1    6    6    0  502 -0.92403759137E+02  0.36186992938E+00  0.33142577809E+03  0.34406631924E+03  0.00000000000E+00 0.  1.
<mgrwt>
<rscale>  0 0.18331852E+04</rscale>
<asrwt>0</asrwt>
<pdfrwt beam="1">  1        1 0.48821842E+00 0.18331852E+04</pdfrwt>
<pdfrwt beam="2">  1       -1 0.40729755E-01 0.18331852E+04</pdfrwt>
<totfact> 0.24767537E+00</totfact>
</mgrwt>
</event>
<event>
12    1  0.1114484E-007  0.3246380E+04  0.7818608E-02  0.8176675E-01
          1   -1    0    0  501    0  0.00000000000E+00  0.00000000000E+00  0.28313420113E+04  0.28313420113E+04  0.00000000000E+00 0. -1.
         -1   -1    0    0    0  501 -0.00000000000E+00 -0.00000000000E+00 -0.93056402493E+03  0.93056402493E+03  0.00000000000E+00 0.  1.
         23    2    1    2    0    0 -0.13520263623E+04 -0.37899534264E+03  0.28162274132E+03  0.14350902953E+04  0.92520446174E+02 0.  0.
        254    2    1    2    0    0  0.13520263623E+04  0.37899534264E+03  0.16191552450E+04  0.23268157409E+04  0.90597738976E+03 0.  0.
        -24    2    4    4    0    0  0.11340819054E+04  0.50863090956E+03  0.16400926408E+04  0.20596673430E+04  0.86478453479E+02 0.  0.
         24    2    4    4    0    0  0.21794445689E+03 -0.12963556692E+03 -0.20937395811E+02  0.26714839796E+03  0.81392416674E+02 0.  0.
         13    1    3    3    0    0 -0.76411488700E+03 -0.19395263888E+03  0.20038761804E+03  0.81341525934E+03  0.00000000000E+00 0.  1.
        -13    1    3    3    0    0 -0.58791147531E+03 -0.18504270376E+03  0.81235123282E+02  0.62167503591E+03  0.00000000000E+00 0. -1.
          4    1    6    6  502    0  0.84321435009E+02 -0.24368762470E+02  0.24406330101E+02  0.91102195008E+02  0.00000000000E+00 0. -1.
          1    1    5    5  503    0  0.81715524880E+01  0.69516594922E+01  0.45469616024E+01  0.11652240110E+02  0.00000000000E+00 0. -1.
         -2    1    5    5    0  503  0.11259103529E+04  0.50167925007E+03  0.16355456792E+04  0.20480151029E+04  0.00000000000E+00 0.  1.
         -3    1    6    6    0  502  0.13362302188E+03 -0.10526680445E+03 -0.45343725913E+02  0.17604620296E+03  0.00000000000E+00 0.  1.
<mgrwt>
<rscale>  0 0.32463795E+04</rscale>
<asrwt>0</asrwt>
<pdfrwt beam="1">  1        1 0.43559108E+00 0.32463795E+04</pdfrwt>
<pdfrwt beam="2">  1       -1 0.14316370E+00 0.32463795E+04</pdfrwt>
<totfact> 0.26051441E-01</totfact>
</mgrwt>
</event>
<event>
12    1  0.1114484E-007  0.2082027E+04  0.7818608E-02  0.8569202E-01
          2   -1    0    0  501    0  0.00000000000E+00  0.00000000000E+00  0.72713460507E+03  0.72713460507E+03  0.00000000000E+00 0. -1.
         -2   -1    0    0    0  501 -0.00000000000E+00 -0.00000000000E+00 -0.14903836678E+04  0.14903836678E+04  0.00000000000E+00 0.  1.
         23    2    1    2    0    0 -0.25967324201E+02 -0.36908934594E+03 -0.11228072723E+04  0.11856831574E+04  0.90813720896E+02 0.  0.
        254    2    1    2    0    0  0.25967324201E+02  0.36908934594E+03  0.35955820954E+03  0.10318351154E+04  0.89358846916E+03 0.  0.
        -24    2    4    4    0    0  0.29075271603E+03  0.39586467726E+03  0.51251338927E+03  0.71450455744E+03  0.81245331182E+02 0.  0.
         24    2    4    4    0    0 -0.26478539183E+03 -0.26775331323E+02 -0.15295517973E+03  0.31733055801E+03  0.80468465531E+02 0.  0.
         11    1    3    3    0    0 -0.32547665886E+02 -0.42925484617E+02 -0.18920798314E+03  0.19672724435E+03  0.00000000000E+00 0.  1.
        -11    1    3    3    0    0  0.65803416850E+01 -0.32616386132E+03 -0.93359928916E+03  0.98895591309E+03  0.00000000000E+00 0. -1.
          4    1    6    6  502    0 -0.20533608515E+02  0.16276190256E+02 -0.32096715473E+02  0.41433592556E+02  0.00000000000E+00 0. -1.
          3    1    5    5  503    0  0.20492635276E+03  0.28566674799E+03  0.41633085586E+03  0.54491438089E+03  0.00000000000E+00 0. -1.
         -4    1    5    5    0  503  0.85826363275E+02  0.11019792927E+03  0.96182533412E+02  0.16959017655E+03  0.00000000000E+00 0.  1.
         -3    1    6    6    0  502 -0.24425178332E+03 -0.43051521579E+02 -0.12085846426E+03  0.27589696545E+03  0.00000000000E+00 0.  1.
<mgrwt>
<rscale>  0 0.20820274E+04</rscale>
<asrwt>0</asrwt>
<pdfrwt beam="1">  1        2 0.11186686E+00 0.20820274E+04</pdfrwt>
<pdfrwt beam="2">  1       -2 0.22928979E+00 0.20820274E+04</pdfrwt>
<totfact> 0.31102235E+00</totfact>
</mgrwt>
</event>
<event>
12    1  0.1114484E-007  0.2972056E+04  0.7818608E-02  0.8251756E-01
         -2   -1    0    0    0  501 -0.00000000000E+00  0.00000000000E+00  0.18653125201E+04  0.18653125201E+04  0.00000000000E+00 0.  1.
          2   -1    0    0  501    0  0.00000000000E+00 -0.00000000000E+00 -0.11838653958E+04  0.11838653958E+04  0.00000000000E+00 0. -1.
         23    2    1    2    0    0 -0.85407813128E+03  0.90560646953E+03 -0.22147115658E+03  0.12676217811E+04  0.90790829649E+02 0.  0.
        254    2    1    2    0    0  0.85407813128E+03 -0.90560646953E+03  0.90291828087E+03  0.17815561349E+04  0.89950447900E+03 0.  0.
        -24    2    4    4    0    0  0.17435610456E+03 -0.30138642348E+03  0.78300119266E+03  0.86080632712E+03  0.81626206943E+02 0.  0.
         24    2    4    4    0    0  0.67972202672E+03 -0.60422004605E+03  0.11991708822E+03  0.92074980774E+03  0.79348615267E+02 0.  0.
         13    1    3    3    0    0 -0.73944297112E+03  0.73545958248E+03 -0.18909507678E+03  0.10599215316E+04  0.00000000000E+00 0. -1.
        -13    1    3    3    0    0 -0.11463516015E+03  0.17014688705E+03 -0.32376079803E+02  0.20770024954E+03  0.00000000000E+00 0.  1.
          2    1    6    6  502    0  0.21248439583E+03 -0.15998016843E+03  0.59855980210E+01  0.26604341778E+03  0.00000000000E+00 0. -1.
          1    1    5    5  503    0  0.16715789104E+03 -0.25420128125E+03  0.72099990443E+03  0.78256048591E+03  0.00000000000E+00 0. -1.
         -2    1    5    5    0  503  0.71982135204E+01 -0.47185142226E+02  0.62001288231E+02  0.78245841213E+02  0.00000000000E+00 0.  1.
         -1    1    6    6    0  502  0.46723763089E+03 -0.44423987763E+03  0.11393149020E+03  0.65470638995E+03  0.00000000000E+00 0.  1.
<mgrwt>
<rscale>  0 0.29720558E+04</rscale>
<asrwt>0</asrwt>
<pdfrwt beam="1">  1        2 0.18213314E+00 0.29720558E+04</pdfrwt>
<pdfrwt beam="2">  1       -2 0.28697116E+00 0.29720558E+04</pdfrwt>
<totfact> 0.63445508E-01</totfact>
</mgrwt>
</event>
<event>
12    1  0.1114484E-007  0.1429916E+04  0.7818608E-02  0.8932444E-01
         -2   -1    0    0    0  501 -0.00000000000E+00  0.00000000000E+00  0.51994851504E+03  0.51994851504E+03  0.00000000000E+00 0.  1.
          2   -1    0    0  501    0  0.00000000000E+00 -0.00000000000E+00 -0.98310691677E+03  0.98310691677E+03  0.00000000000E+00 0. -1.
         23    2    1    2    0    0 -0.97194681080E+02  0.36035654514E+03 -0.37526671176E+03  0.53688148604E+03  0.90072079128E+02 0.  0.
        254    2    1    2    0    0  0.97194681080E+02 -0.36035654514E+03 -0.87891689969E+02  0.96617394577E+03  0.88682777283E+03 0.  0.
        -24    2    4    4    0    0  0.20822401390E+02 -0.37584789692E+03 -0.44759820274E+03  0.59016068575E+03  0.79058648407E+02 0.  0.
         24    2    4    4    0    0  0.76372279689E+02  0.15491351775E+02  0.35970651277E+03  0.37601326003E+03  0.76970704171E+02 0.  0.
         11    1    3    3    0    0 -0.63416863930E+02  0.33629584850E+03 -0.32843630520E+03  0.47432794870E+03  0.00000000000E+00 0. -1.
        -11    1    3    3    0    0 -0.33777817150E+02  0.24060696641E+02 -0.46830406559E+02  0.62553537332E+02  0.00000000000E+00 0.  1.
          4    1    6    6  502    0  0.84269076587E+02 -0.78805720335E+01  0.26803844990E+03  0.28108360199E+03  0.00000000000E+00 0. -1.
          1    1    5    5  503    0  0.55026869845E+01 -0.22795361007E+03 -0.32733980406E+03  0.39892916066E+03  0.00000000000E+00 0. -1.
         -2    1    5    5    0  503  0.15319714406E+02 -0.14789428685E+03 -0.12025839868E+03  0.19123152508E+03  0.00000000000E+00 0.  1.
         -3    1    6    6    0  502 -0.78967968977E+01  0.23371923809E+02  0.91668062872E+02  0.94929658034E+02  0.00000000000E+00 0.  1.
<mgrwt>
<rscale>  0 0.14299161E+04</rscale>
<asrwt>0</asrwt>
<pdfrwt beam="1">  1        2 0.15124722E+00 0.14299161E+04</pdfrwt>
<pdfrwt beam="2">  1       -2 0.79992080E-01 0.14299161E+04</pdfrwt>
<totfact> 0.34692961E+01</totfact>
</mgrwt>
</event>
<event>
12    1  0.1114484E-007  0.1680240E+04  0.7818608E-02  0.8772715E-01
         -2   -1    0    0    0  501 -0.00000000000E+00  0.00000000000E+00  0.24126853902E+03  0.24126853902E+03  0.00000000000E+00 0.  1.
          2   -1    0    0  501    0  0.00000000000E+00 -0.00000000000E+00 -0.29253779480E+04  0.29253779480E+04  0.00000000000E+00 0. -1.
         23    2    1    2    0    0 -0.19766102043E+03 -0.55336563927E+03 -0.88902796149E+03  0.10696691193E+04  0.92400750726E+02 0.  0.
        254    2    1    2    0    0  0.19766102043E+03  0.55336563927E+03 -0.17950814475E+04  0.20969773677E+04  0.91088597962E+03 0.  0.
        -24    2    4    4    0    0  0.43468074346E+03  0.40301278186E+03 -0.16796061603E+04  0.17829256281E+04  0.79876721218E+02 0.  0.
         24    2    4    4    0    0 -0.23701972303E+03  0.15035285741E+03 -0.11547528721E+03  0.31405173962E+03  0.80682230794E+02 0.  0.
         13    1    3    3    0    0 -0.12409803808E+03 -0.32156846808E+03 -0.43911852653E+03  0.55823980785E+03  0.00000000000E+00 0.  1.
        -13    1    3    3    0    0 -0.73562982349E+02 -0.23179717119E+03 -0.44990943495E+03  0.51142931144E+03  0.00000000000E+00 0. -1.
          2    1    6    6  502    0 -0.20556305020E+03  0.11619641531E+03 -0.12420347427E+03  0.26680381848E+03  0.00000000000E+00 0. -1.
          3    1    5    5  503    0  0.43694208450E+03  0.39243283631E+03 -0.16493285296E+04  0.17507731191E+04  0.00000000000E+00 0. -1.
         -4    1    5    5    0  503 -0.22613410434E+01  0.10579945557E+02 -0.30277630717E+02  0.32152508971E+02  0.00000000000E+00 0.  1.
         -1    1    6    6    0  502 -0.31456672835E+02  0.34156442098E+02  0.87281870556E+01  0.47247921138E+02  0.00000000000E+00 0.  1.
<mgrwt>
<rscale>  0 0.16802401E+04</rscale>
<asrwt>0</asrwt>
<pdfrwt beam="1">  1        2 0.45005815E+00 0.16802401E+04</pdfrwt>
<pdfrwt beam="2">  1       -2 0.37118237E-01 0.16802401E+04</pdfrwt>
<totfact> 0.12691158E+01</totfact>
</mgrwt>
</event>
<event>
12    1  0.1114484E-007  0.2125365E+04  0.7818608E-02  0.8550152E-01
          2   -1    0    0  501    0  0.00000000000E+00  0.00000000000E+00  0.24905937237E+04  0.24905937237E+04  0.00000000000E+00 0. -1.
         -2   -1    0    0    0  501 -0.00000000000E+00 -0.00000000000E+00 -0.45342355504E+03  0.45342355504E+03  0.00000000000E+00 0.  1.
         23    2    1    2    0    0  0.79085178134E+03 -0.36648757306E+03  0.86385741483E+03  0.12312349074E+04  0.99649800424E+02 0.  0.
        254    2    1    2    0    0 -0.79085178134E+03  0.36648757306E+03  0.11733127538E+04  0.17127823714E+04  0.89286110463E+03 0.  0.
        -24    2    4    4    0    0 -0.45879584846E+03  0.60415145446E+03  0.46820823873E+03  0.89437631802E+03  0.72093223986E+02 0.  0.
         24    2    4    4    0    0 -0.33205593288E+03 -0.23766388140E+03  0.70510451511E+03  0.81840605336E+03  0.76621327742E+02 0.  0.
         13    1    3    3    0    0  0.75345012310E+03 -0.36888736232E+03  0.81451948578E+03  0.11692762577E+04  0.00000000000E+00 0.  1.
        -13    1    3    3    0    0  0.37401658240E+02  0.23997892681E+01  0.49337929051E+02  0.61958649684E+02  0.00000000000E+00 0. -1.
          4    1    6    6  502    0 -0.18503019628E+03 -0.99190117776E+02  0.30580226952E+03  0.37093110013E+03  0.00000000000E+00 0. -1.
          1    1    5    5  503    0 -0.13295624689E+03  0.18135937392E+03  0.17804069586E+03  0.28682237619E+03  0.00000000000E+00 0. -1.
         -4    1    5    5    0  503 -0.32583960156E+03  0.42279208053E+03  0.29016754286E+03  0.60755394184E+03  0.00000000000E+00 0.  1.
         -3    1    6    6    0  502 -0.14702573660E+03 -0.13847376362E+03  0.39930224559E+03  0.44747495323E+03  0.00000000000E+00 0.  1.
<mgrwt>
<rscale>  0 0.21253648E+04</rscale>
<asrwt>0</asrwt>
<pdfrwt beam="1">  1        2 0.38316826E+00 0.21253648E+04</pdfrwt>
<pdfrwt beam="2">  1       -2 0.69757472E-01 0.21253648E+04</pdfrwt>
<totfact> 0.60736450E+00</totfact>
</mgrwt>
</event>
<event>
12    1  0.1114484E-007  0.1388301E+04  0.7818608E-02  0.8962331E-01
         -2   -1    0    0    0  501 -0.00000000000E+00  0.00000000000E+00  0.38090863952E+03  0.38090863952E+03  0.00000000000E+00 0.  1.
          2   -1    0    0  501    0  0.00000000000E+00 -0.00000000000E+00 -0.12649876797E+04  0.12649876797E+04  0.00000000000E+00 0. -1.
         23    2    1    2    0    0 -0.37913798206E+03 -0.46441125879E+01 -0.36407937598E+03  0.53333910401E+03  0.90164464376E+02 0.  0.
        254    2    1    2    0    0  0.37913798206E+03  0.46441125879E+01 -0.51999966416E+03  0.11125572152E+04  0.90753332119E+03 0.  0.
        -24    2    4    4    0    0  0.59400778024E+03  0.11282018323E+03 -0.59184570053E+03  0.84950870298E+03  0.76223792051E+02 0.  0.
         24    2    4    4    0    0 -0.21486979819E+03 -0.10817607065E+03  0.71846036369E+02  0.26304851218E+03  0.78495696593E+02 0.  0.
         11    1    3    3    0    0 -0.76480907353E+02 -0.14765576615E+02 -0.32828195713E+02  0.84528349541E+02  0.00000000000E+00 0.  1.
        -11    1    3    3    0    0 -0.30265707470E+03  0.10121464027E+02 -0.33125118027E+03  0.44881075447E+03  0.00000000000E+00 0. -1.
          4    1    6    6  502    0 -0.14459683402E+03 -0.47276915311E+02  0.12295619594E+02  0.15262546770E+03  0.00000000000E+00 0. -1.
          1    1    5    5  503    0  0.42680414357E+03  0.94726452189E+02 -0.38185439750E+03  0.58047192749E+03  0.00000000000E+00 0. -1.
         -2    1    5    5    0  503  0.16720363667E+03  0.18093731046E+02 -0.20999130303E+03  0.26903677549E+03  0.00000000000E+00 0.  1.
         -3    1    6    6    0  502 -0.70272964169E+02 -0.60899155336E+02  0.59550416775E+02  0.11042304448E+03  0.00000000000E+00 0.  1.
<mgrwt>
<rscale>  0 0.13883007E+04</rscale>
<asrwt>0</asrwt>
<pdfrwt beam="1">  1        2 0.19461349E+00 0.13883007E+04</pdfrwt>
<pdfrwt beam="2">  1       -2 0.58601330E-01 0.13883007E+04</pdfrwt>
<totfact> 0.45956313E+01</totfact>
</mgrwt>
</event>
<event>
12    1  0.1114484E-007  0.1621255E+04  0.7818608E-02  0.8807596E-01
          1   -1    0    0  501    0  0.00000000000E+00  0.00000000000E+00  0.17299597287E+04  0.17299597287E+04  0.00000000000E+00 0. -1.
         -1   -1    0    0    0  501 -0.00000000000E+00 -0.00000000000E+00 -0.37984514054E+03  0.37984514054E+03  0.00000000000E+00 0.  1.
         23    2    1    2    0    0 -0.39429725410E+03 -0.12768899626E+03 -0.15276229881E+02  0.42419076650E+03  0.89048519491E+02 0.  0.
        254    2    1    2    0    0  0.39429725410E+03  0.12768899626E+03  0.13653908180E+04  0.16856141027E+04  0.89734497993E+03 0.  0.
        -24    2    4    4    0    0 -0.27711979099E+03  0.11182538522E+03  0.37187596876E+03  0.48377286745E+03  0.80275499373E+02 0.  0.
         24    2    4    4    0    0  0.67141704509E+03  0.15863611041E+02  0.99351484923E+03  0.12018412353E+04  0.79360547646E+02 0.  0.
         13    1    3    3    0    0 -0.15471398676E+03 -0.78803333942E+02 -0.40757769517E+02  0.17834679396E+03  0.00000000000E+00 0. -1.
        -13    1    3    3    0    0 -0.23958326735E+03 -0.48885662316E+02  0.25481539636E+02  0.24584397254E+03  0.00000000000E+00 0.  1.
          2    1    6    6  502    0  0.38665334451E+03  0.43560052312E+02  0.53889005655E+03  0.66468096108E+03  0.00000000000E+00 0. -1.
          3    1    5    5  503    0 -0.17127679340E+03  0.32371931876E+02  0.24292528238E+03  0.29899226537E+03  0.00000000000E+00 0. -1.
         -4    1    5    5    0  503 -0.10584299759E+03  0.79453453340E+02  0.12895068638E+03  0.18478060208E+03  0.00000000000E+00 0.  1.
         -1    1    6    6    0  502  0.28476370058E+03 -0.27696441271E+02  0.45462479269E+03  0.53716027417E+03  0.00000000000E+00 0.  1.
<mgrwt>
<rscale>  0 0.16212548E+04</rscale>
<asrwt>0</asrwt>
<pdfrwt beam="1">  1        1 0.26614765E+00 0.16212548E+04</pdfrwt>
<pdfrwt beam="2">  1       -1 0.58437715E-01 0.16212548E+04</pdfrwt>
<totfact> 0.12923793E+01</totfact>
</mgrwt>
</event>
<event>
12    1  0.1114484E-007  0.1967737E+04  0.7818608E-02  0.8621855E-01
          1   -1    0    0  501    0  0.00000000000E+00  0.00000000000E+00  0.11237925541E+04  0.11237925541E+04  0.00000000000E+00 0. -1.
         -1   -1    0    0    0  501 -0.00000000000E+00 -0.00000000000E+00 -0.86136660822E+03  0.86136660822E+03  0.00000000000E+00 0.  1.
         23    2    1    2    0    0 -0.17379505907E+03 -0.41801013005E+03 -0.53110435179E+03  0.70347986191E+03  0.88740589580E+02 0.  0.
        254    2    1    2    0    0  0.17379505907E+03  0.41801013005E+03  0.79353029762E+03  0.12816793004E+04  0.89892953248E+03 0.  0.
        -24    2    4    4    0    0 -0.18341711036E+03  0.21604118210E+03 -0.85691313888E+02  0.30806297023E+03  0.85112652512E+02 0.  0.
         24    2    4    4    0    0  0.35721216943E+03  0.20196894795E+03  0.87922161151E+03  0.97361633013E+03  0.80660561815E+02 0.  0.
         11    1    3    3    0    0 -0.27189402277E+02 -0.68297396318E+02 -0.42222646208E+02  0.84773520588E+02  0.00000000000E+00 0. -1.
        -11    1    3    3    0    0 -0.14660565679E+03 -0.34971273373E+03 -0.48888170558E+03  0.61870634132E+03  0.00000000000E+00 0.  1.
          2    1    6    6  502    0  0.23944326376E+03  0.15170163727E+03  0.68095928276E+03  0.73759881243E+03  0.00000000000E+00 0. -1.
          3    1    5    5  503    0 -0.88830448973E+02  0.12886006788E+03 -0.87707770178E+02  0.17941131154E+03  0.00000000000E+00 0. -1.
         -4    1    5    5    0  503 -0.94586661385E+02  0.87181114227E+02  0.20164562906E+01  0.12865165870E+03  0.00000000000E+00 0.  1.
         -1    1    6    6    0  502  0.11776890566E+03  0.50267310673E+02  0.19826232875E+03  0.23601751771E+03  0.00000000000E+00 0.  1.
<mgrwt>
<rscale>  0 0.19677372E+04</rscale>
<asrwt>0</asrwt>
<pdfrwt beam="1">  1        1 0.17289116E+00 0.19677372E+04</pdfrwt>
<pdfrwt beam="2">  1       -1 0.13251794E+00 0.19677372E+04</pdfrwt>
<totfact> 0.54678048E+00</totfact>
</mgrwt>
</event>
<event>
12    1  0.1114484E-007  0.2864755E+04  0.7818608E-02  0.8283442E-01
         -2   -1    0    0    0  501 -0.00000000000E+00  0.00000000000E+00  0.66520089046E+03  0.66520089046E+03  0.00000000000E+00 0.  1.
          2   -1    0    0  501    0  0.00000000000E+00 -0.00000000000E+00 -0.30843402038E+04  0.30843402038E+04  0.00000000000E+00 0. -1.
         23    2    1    2    0    0 -0.30070754980E+03 -0.12190599542E+04 -0.72467608746E+03  0.14523905223E+04  0.88037464093E+02 0.  0.
        254    2    1    2    0    0  0.30070754980E+03  0.12190599542E+04 -0.16944632258E+04  0.22971505719E+04  0.91058383675E+03 0.  0.
        -24    2    4    4    0    0  0.46994831325E+03  0.23735325371E+03 -0.42640024972E+03  0.68251770695E+03  0.82615150914E+02 0.  0.
         24    2    4    4    0    0 -0.16924076345E+03  0.98170670051E+03 -0.12680629761E+04  0.16146328650E+04  0.81640035096E+02 0.  0.
         13    1    3    3    0    0 -0.15959135399E+03 -0.47763579445E+03 -0.30699518134E+03  0.58978927913E+03  0.00000000000E+00 0.  1.
        -13    1    3    3    0    0 -0.14111619581E+03 -0.74142415977E+03 -0.41768090612E+03  0.86260124318E+03  0.00000000000E+00 0. -1.
          4    1    6    6  502    0 -0.15911595352E+03  0.71847460737E+03 -0.91880067310E+03  0.11771653771E+04  0.00000000000E+00 0. -1.
          1    1    5    5  503    0  0.27074503145E+03  0.14683037824E+03 -0.29933536076E+03  0.42949236341E+03  0.00000000000E+00 0. -1.
         -2    1    5    5    0  503  0.19920328180E+03  0.90522875468E+02 -0.12706488896E+03  0.25302534353E+03  0.00000000000E+00 0.  1.
         -3    1    6    6    0  502 -0.10124809931E+02  0.26323209315E+03 -0.34926230302E+03  0.43746748788E+03  0.00000000000E+00 0.  1.
<mgrwt>
<rscale>  0 0.28647554E+04</rscale>
<asrwt>0</asrwt>
<pdfrwt beam="1">  1        2 0.47451389E+00 0.28647554E+04</pdfrwt>
<pdfrwt beam="2">  1       -2 0.10233860E+00 0.28647554E+04</pdfrwt>
<totfact> 0.10414326E+00</totfact>
</mgrwt>
</event>
<event>
12    1  0.1114484E-007  0.2862455E+04  0.7818608E-02  0.8284137E-01
         -1   -1    0    0    0  501 -0.00000000000E+00  0.00000000000E+00  0.92360146629E+03  0.92360146629E+03  0.00000000000E+00 0.  1.
          1   -1    0    0  501    0  0.00000000000E+00 -0.00000000000E+00 -0.22178532117E+04  0.22178532117E+04  0.00000000000E+00 0. -1.
         23    2    1    2    0    0 -0.55107986972E+03 -0.44032108526E+03 -0.17648669687E+04  0.19027737395E+04  0.90668659786E+02 0.  0.
        254    2    1    2    0    0  0.55107986972E+03  0.44032108526E+03  0.47061522322E+03  0.12386809385E+04  0.90292862293E+03 0.  0.
        -24    2    4    4    0    0 -0.69043789900E+00  0.50765271729E+03  0.12688991121E+02  0.51406444938E+03  0.79934282669E+02 0.  0.
         24    2    4    4    0    0  0.55177030762E+03 -0.67331632030E+02  0.45792623210E+03  0.72461648911E+03  0.79928725755E+02 0.  0.
         13    1    3    3    0    0 -0.53871167390E+03 -0.40732075674E+03 -0.16928079801E+04  0.18225584556E+04  0.00000000000E+00 0. -1.
        -13    1    3    3    0    0 -0.12368195824E+02 -0.33000328513E+02 -0.72058988541E+02  0.80215283951E+02  0.00000000000E+00 0.  1.
          4    1    6    6  502    0  0.35272695539E+02  0.81471650954E+01  0.12141882584E+02  0.38183303450E+02  0.00000000000E+00 0. -1.
          3    1    5    5  503    0 -0.35622144261E+02  0.22322582345E+03  0.23698782665E+02  0.22728910603E+03  0.00000000000E+00 0. -1.
         -4    1    5    5    0  503  0.34931706362E+02  0.28442689383E+03 -0.11009791544E+02  0.28677534335E+03  0.00000000000E+00 0.  1.
         -3    1    6    6    0  502  0.51649761208E+03 -0.75478797125E+02  0.44578434951E+03  0.68643318566E+03  0.00000000000E+00 0.  1.
<mgrwt>
<rscale>  0 0.28624552E+04</rscale>
<asrwt>0</asrwt>
<pdfrwt beam="1">  1        1 0.34120818E+00 0.28624552E+04</pdfrwt>
<pdfrwt beam="2">  1       -1 0.14209253E+00 0.28624552E+04</pdfrwt>
<totfact> 0.73518175E-01</totfact>
</mgrwt>
</event>
<event>
12    1  0.1114484E-007  0.1190019E+04  0.7818608E-02  0.9121638E-01
         -1   -1    0    0    0  501 -0.00000000000E+00  0.00000000000E+00  0.16732200507E+03  0.16732200507E+03  0.00000000000E+00 0.  1.
          1   -1    0    0  501    0  0.00000000000E+00 -0.00000000000E+00 -0.21158976804E+04  0.21158976804E+04  0.00000000000E+00 0. -1.
         23    2    1    2    0    0  0.19808739388E+03 -0.84470847912E+02 -0.63658655078E+03  0.67813843124E+03  0.90858987047E+02 0.  0.
        254    2    1    2    0    0 -0.19808739388E+03  0.84470847912E+02 -0.13119891246E+04  0.16050812543E+04  0.89921990081E+03 0.  0.
        -24    2    4    4    0    0 -0.37964891194E+03 -0.28790322926E+02 -0.13203092074E+04  0.13766709150E+04  0.83929887220E+02 0.  0.
         24    2    4    4    0    0  0.18156151806E+03  0.11326117084E+03  0.83200828014E+01  0.22841033930E+03  0.79431616278E+02 0.  0.
         11    1    3    3    0    0  0.18796224419E+03 -0.48752086470E+02 -0.49390621745E+03  0.53070700279E+03  0.00000000000E+00 0. -1.
        -11    1    3    3    0    0  0.10125149696E+02 -0.35718761441E+02 -0.14268033333E+03  0.14743142845E+03  0.00000000000E+00 0.  1.
          2    1    6    6  502    0  0.77287973633E+02  0.61826814879E+02  0.41766446104E+02  0.10742635583E+03  0.00000000000E+00 0. -1.
          1    1    5    5  503    0 -0.30882196663E+03 -0.46476064184E+02 -0.11436212350E+04  0.11854959134E+04  0.00000000000E+00 0. -1.
         -4    1    5    5    0  503 -0.70826945309E+02  0.17685741258E+02 -0.17668797237E+03  0.19117500152E+03  0.00000000000E+00 0.  1.
         -1    1    6    6    0  502  0.10427354442E+03  0.51434355959E+02 -0.33446363302E+02  0.12098398347E+03  0.00000000000E+00 0.  1.
<mgrwt>
<rscale>  0 0.11900189E+04</rscale>
<asrwt>0</asrwt>
<pdfrwt beam="1">  1        1 0.32552272E+00 0.11900189E+04</pdfrwt>
<pdfrwt beam="2">  1       -1 0.25741847E-01 0.11900189E+04</pdfrwt>
<totfact> 0.32885771E+01</totfact>
</mgrwt>
</event>
<event>
12    1  0.1114484E-007  0.2468312E+04  0.7818608E-02  0.8414362E-01
          2   -1    0    0  501    0  0.00000000000E+00  0.00000000000E+00  0.12307355195E+04  0.12307355195E+04  0.00000000000E+00 0. -1.
         -2   -1    0    0    0  501 -0.00000000000E+00 -0.00000000000E+00 -0.12375861603E+04  0.12375861603E+04  0.00000000000E+00 0.  1.
         23    2    1    2    0    0  0.55966259228E+03  0.79412708646E+03  0.43564689941E+03  0.10685623879E+04  0.90428475926E+02 0.  0.
        254    2    1    2    0    0 -0.55966259228E+03 -0.79412708646E+03 -0.44249754024E+03  0.13997592919E+04  0.90535184066E+03 0.  0.
        -24    2    4    4    0    0 -0.48318979553E+03 -0.80430771499E+03 -0.66379090852E+03  0.11521175753E+04  0.79832688577E+02 0.  0.
         24    2    4    4    0    0 -0.76472796758E+02  0.10180628529E+02  0.22129336827E+03  0.24764171657E+03  0.80024565636E+02 0.  0.
         11    1    3    3    0    0  0.55211314771E+03  0.77115386866E+03  0.43717571716E+03  0.10443322387E+04  0.00000000000E+00 0. -1.
        -11    1    3    3    0    0  0.75494445769E+01  0.22973217805E+02 -0.15288177535E+01  0.24230149266E+02  0.00000000000E+00 0.  1.
          4    1    6    6  502    0 -0.25786328374E+01  0.11014351864E+02 -0.28205216512E+01  0.11658500619E+02  0.00000000000E+00 0. -1.
          3    1    5    5  503    0 -0.94599494146E+02 -0.21267466376E+03 -0.18842022347E+03  0.29946912614E+03  0.00000000000E+00 0. -1.
         -4    1    5    5    0  503 -0.38859030138E+03 -0.59163305123E+03 -0.47537068505E+03  0.85264844915E+03  0.00000000000E+00 0.  1.
         -3    1    6    6    0  502 -0.73894163920E+02 -0.83372333512E+00  0.22411388992E+03  0.23598321596E+03  0.00000000000E+00 0.  1.
<mgrwt>
<rscale>  0 0.24683122E+04</rscale>
<asrwt>0</asrwt>
<pdfrwt beam="1">  1        2 0.18934393E+00 0.24683122E+04</pdfrwt>
<pdfrwt beam="2">  1       -2 0.19039787E+00 0.24683122E+04</pdfrwt>
<totfact> 0.25013885E+00</totfact>
</mgrwt>
</event>
<event>
12    1  0.1114484E-007  0.3408281E+04  0.7818608E-02  0.8135877E-01
         -2   -1    0    0    0  501 -0.00000000000E+00  0.00000000000E+00  0.14806516600E+04  0.14806516600E+04  0.00000000000E+00 0.  1.
          2   -1    0    0  501    0  0.00000000000E+00 -0.00000000000E+00 -0.19613624843E+04  0.19613624843E+04  0.00000000000E+00 0. -1.
         23    2    1    2    0    0  0.85128574539E+03 -0.32811705224E+03 -0.15311068126E+04  0.17846000774E+04  0.90339053552E+02 0.  0.
        254    2    1    2    0    0 -0.85128574539E+03  0.32811705224E+03  0.10503959883E+04  0.16574140669E+04  0.90074493420E+03 0.  0.
        -24    2    4    4    0    0 -0.50632768747E+03 -0.16590602080E+03  0.13072137232E+03  0.55492311383E+03  0.83420922058E+02 0.  0.
         24    2    4    4    0    0 -0.34495805791E+03  0.49402307304E+03  0.91967461602E+03  0.11024909530E+04  0.81425080809E+02 0.  0.
         11    1    3    3    0    0  0.50611647116E+03 -0.24216589554E+03 -0.94190989950E+03  0.10963541682E+04  0.00000000000E+00 0. -1.
        -11    1    3    3    0    0  0.34516927423E+03 -0.85951156700E+02 -0.58919691309E+03  0.68824590925E+03  0.00000000000E+00 0.  1.
          4    1    6    6  502    0 -0.21212239220E+02  0.37822594070E+02  0.34704841873E+02  0.55542180047E+02  0.00000000000E+00 0. -1.
          3    1    5    5  503    0 -0.18508453479E+03 -0.10343994487E+03  0.49185911383E+02  0.21765881809E+03  0.00000000000E+00 0. -1.
         -4    1    5    5    0  503 -0.32124315269E+03 -0.62466075927E+02  0.81535460934E+02  0.33726429574E+03  0.00000000000E+00 0.  1.
         -3    1    6    6    0  502 -0.32374581869E+03  0.45620047897E+03  0.88496977415E+03  0.10469487730E+04  0.00000000000E+00 0.  1.
<mgrwt>
<rscale>  0 0.34082809E+04</rscale>
<asrwt>0</asrwt>
<pdfrwt beam="1">  1        2 0.30174807E+00 0.34082809E+04</pdfrwt>
<pdfrwt beam="2">  1       -2 0.22779256E+00 0.34082809E+04</pdfrwt>
<totfact> 0.51302808E-01</totfact>
</mgrwt>
</event>
<event>
12    1  0.1114484E-007  0.1587579E+04  0.7818608E-02  0.8828216E-01
         -2   -1    0    0    0  501 -0.00000000000E+00  0.00000000000E+00  0.14092584063E+03  0.14092584063E+03  0.00000000000E+00 0. -1.
          2   -1    0    0  501    0  0.00000000000E+00 -0.00000000000E+00 -0.44711556904E+04  0.44711556904E+04  0.00000000000E+00 0.  1.
         23    2    1    2    0    0 -0.30218822955E+03 -0.49297382613E+01 -0.27588936502E+04  0.27767610838E+04  0.86982266469E+02 0.  0.
        254    2    1    2    0    0  0.30218822955E+03  0.49297382613E+01 -0.15713361995E+04  0.18353204472E+04  0.89886687763E+03 0.  0.
        -24    2    4    4    0    0  0.34078084247E+03  0.12682431374E+03 -0.14366067341E+03  0.39967797662E+03  0.82994618895E+02 0.  0.
         24    2    4    4    0    0 -0.38592612917E+02 -0.12189457548E+03 -0.14276755261E+04  0.14356424706E+04  0.80400362300E+02 0.  0.
         11    1    3    3    0    0 -0.40588224741E+02  0.89938387213E+01 -0.18729587778E+03  0.19185421277E+03  0.00000000000E+00 0. -1.
        -11    1    3    3    0    0 -0.26160000481E+03 -0.13923576983E+02 -0.25715977725E+04  0.25849068710E+04  0.00000000000E+00 0.  1.
          4    1    6    6  502    0 -0.16498148237E+02 -0.10081992628E+03 -0.13131023473E+04  0.13170704692E+04  0.00000000000E+00 0. -1.
          1    1    5    5  503    0  0.34271444539E+03  0.12383700952E+03 -0.13214066290E+03  0.38762088540E+03  0.00000000000E+00 0. -1.
         -2    1    5    5    0  503 -0.19336029187E+01  0.29873042175E+01 -0.11520010509E+02  0.12057091228E+02  0.00000000000E+00 0.  1.
         -3    1    6    6    0  502 -0.22094464680E+02 -0.21074649198E+02 -0.11457317879E+03  0.11857200136E+03  0.00000000000E+00 0.  1.
<mgrwt>
<rscale>  0 0.15875785E+04</rscale>
<asrwt>0</asrwt>
<pdfrwt beam="1">  1        2 0.68787013E+00 0.15875785E+04</pdfrwt>
<pdfrwt beam="2">  1       -2 0.21680898E-01 0.15875785E+04</pdfrwt>
<totfact> 0.24078385E+00</totfact>
</mgrwt>
</event>
<event>
12    1  0.1114484E-007  0.1536443E+04  0.7818608E-02  0.8860574E-01
          1   -1    0    0  501    0  0.00000000000E+00  0.00000000000E+00  0.12905708389E+04  0.12905708389E+04  0.00000000000E+00 0. -1.
         -1   -1    0    0    0  501 -0.00000000000E+00 -0.00000000000E+00 -0.45728953670E+03  0.45728953670E+03  0.00000000000E+00 0.  1.
         23    2    1    2    0    0 -0.28893361277E+03 -0.25337758323E+03  0.68953290009E+03  0.79463875957E+03  0.91171846729E+02 0.  0.
        254    2    1    2    0    0  0.28893361277E+03  0.25337758323E+03  0.14374840209E+03  0.95322161602E+03  0.86039817170E+03 0.  0.
        -24    2    4    4    0    0  0.32556127100E+03  0.42046630928E+02 -0.30125955433E+03  0.45264612057E+03  0.79831892387E+02 0.  0.
         24    2    4    4    0    0 -0.36627658236E+02  0.21133095230E+03  0.44500795643E+03  0.50057549544E+03  0.80878851420E+02 0.  0.
         13    1    3    3    0    0 -0.27810203771E+03 -0.23340518250E+03  0.67815455961E+03  0.76922839867E+03  0.00000000000E+00 0. -1.
        -13    1    3    3    0    0 -0.10831575057E+02 -0.19972400732E+02  0.11378340480E+02  0.25410360905E+02  0.00000000000E+00 0.  1.
          4    1    6    6  502    0 -0.42080454511E+02  0.20815624397E+03  0.44619457949E+03  0.49415522796E+03  0.00000000000E+00 0. -1.
          1    1    5    5  503    0  0.32118190270E+03  0.27911836031E+02 -0.29328754345E+03  0.43583766285E+03  0.00000000000E+00 0. -1.
         -2    1    5    5    0  503  0.43793683002E+01  0.14134794897E+02 -0.79720108816E+01  0.16808457722E+02  0.00000000000E+00 0.  1.
         -1    1    6    6    0  502  0.54527962751E+01  0.31747083355E+01 -0.11866230657E+01  0.64202674814E+01  0.00000000000E+00 0.  1.
<mgrwt>
<rscale>  0 0.15364433E+04</rscale>
<asrwt>0</asrwt>
<pdfrwt beam="1">  1        1 0.19854936E+00 0.15364433E+04</pdfrwt>
<pdfrwt beam="2">  1       -1 0.70352237E-01 0.15364433E+04</pdfrwt>
<totfact> 0.18095123E+01</totfact>
</mgrwt>
</event>
<event>
12    1  0.1114484E-007  0.1032949E+04  0.7818608E-02  0.9273127E-01
          2   -1    0    0  501    0  0.00000000000E+00  0.00000000000E+00  0.23427771532E+04  0.23427771532E+04  0.00000000000E+00 0.  1.
         -2   -1    0    0    0  501 -0.00000000000E+00 -0.00000000000E+00 -0.11385883721E+03  0.11385883721E+03  0.00000000000E+00 0. -1.
         23    2    1    2    0    0  0.88369911587E+02 -0.19399191626E+02  0.17248314346E+03  0.21361165219E+03  0.87715068621E+02 0.  0.
        254    2    1    2    0    0 -0.88369911587E+02  0.19399191626E+02  0.20564351725E+04  0.22430243382E+04  0.89109314503E+03 0.  0.
        -24    2    4    4    0    0  0.12596788407E+03  0.38608657912E+03  0.13772759971E+04  0.14380279262E+04  0.78130595383E+02 0.  0.
         24    2    4    4    0    0 -0.21433779565E+03 -0.36668738750E+03  0.67915917547E+03  0.80499641206E+03  0.79760309737E+02 0.  0.
         13    1    3    3    0    0  0.95564816524E+02 -0.17838232693E+02  0.95494945923E+02  0.13627223268E+03  0.00000000000E+00 0. -1.
        -13    1    3    3    0    0 -0.71949049371E+01 -0.15609589330E+01  0.76988197538E+02  0.77339419509E+02  0.00000000000E+00 0.  1.
          4    1    6    6  502    0 -0.21468283198E+03 -0.37038045880E+03  0.67584095774E+03  0.80001962649E+03  0.00000000000E+00 0. -1.
          3    1    5    5  503    0  0.19793512367E+02  0.16821641865E+03  0.50126558884E+03  0.52910843614E+03  0.00000000000E+00 0. -1.
         -4    1    5    5    0  503  0.10617437170E+03  0.21787016048E+03  0.87601040823E+03  0.90891949003E+03  0.00000000000E+00 0.  1.
         -3    1    6    6    0  502  0.34503632900E+00  0.36930713034E+01  0.33182177346E+01  0.49767855745E+01  0.00000000000E+00 0.  1.
<mgrwt>
<rscale>  0 0.10329489E+04</rscale>
<asrwt>0</asrwt>
<pdfrwt beam="1">  1        2 0.36042722E+00 0.10329489E+04</pdfrwt>
<pdfrwt beam="2">  1       -2 0.17516746E-01 0.10329489E+04</pdfrwt>
<totfact> 0.11599295E+02</totfact>
</mgrwt>
</event>
<event>
12    1  0.1114484E-007  0.1587923E+04  0.7818608E-02  0.8828002E-01
          2   -1    0    0  501    0  0.00000000000E+00  0.00000000000E+00  0.15794247303E+04  0.15794247303E+04  0.00000000000E+00 0. -1.
         -2   -1    0    0    0  501 -0.00000000000E+00 -0.00000000000E+00 -0.39911651489E+03  0.39911651489E+03  0.00000000000E+00 0.  1.
         23    2    1    2    0    0 -0.51972988183E+03 -0.11978016225E+03  0.48519453392E+03  0.72653091346E+03  0.89258025614E+02 0.  0.
        254    2    1    2    0    0  0.51972988183E+03  0.11978016225E+03  0.69511368152E+03  0.12520103318E+04  0.89436033190E+03 0.  0.
        -24    2    4    4    0    0 -0.18900226151E+03  0.12219258130E+03  0.42829764045E+03  0.49048259665E+03  0.80507310357E+02 0.  0.
         24    2    4    4    0    0  0.70873214334E+03 -0.24124190473E+01  0.26681604107E+03  0.76152773511E+03  0.80166207368E+02 0.  0.
         13    1    3    3    0    0 -0.50663525137E+03 -0.10472843198E+03  0.48043473726E+03  0.70602043821E+03  0.00000000000E+00 0. -1.
        -13    1    3    3    0    0 -0.13094630451E+02 -0.15051730272E+02  0.47597966578E+01  0.20510475252E+02  0.00000000000E+00 0.  1.
          2    1    6    6  502    0  0.54089368453E+03 -0.69306763734E+01  0.16668225521E+03  0.56603620594E+03  0.00000000000E+00 0. -1.
          3    1    5    5  503    0 -0.87665967922E+02  0.76051087628E+02  0.29369782329E+03  0.31579661376E+03  0.00000000000E+00 0. -1.
         -4    1    5    5    0  503 -0.10133629359E+03  0.46141493670E+02  0.13459981717E+03  0.17468598289E+03  0.00000000000E+00 0.  1.
         -1    1    6    6    0  502  0.16783845881E+03  0.45182573260E+01  0.10013378586E+03  0.19549152917E+03  0.00000000000E+00 0.  1.
<mgrwt>
<rscale>  0 0.15879225E+04</rscale>
<asrwt>0</asrwt>
<pdfrwt beam="1">  1        2 0.24298842E+00 0.15879225E+04</pdfrwt>
<pdfrwt beam="2">  1       -2 0.61402542E-01 0.15879225E+04</pdfrwt>
<totfact> 0.27102321E+01</totfact>
</mgrwt>
</event>
<event>
12    1  0.1114484E-007  0.1206338E+04  0.7818608E-02  0.9107327E-01
          2   -1    0    0  501    0  0.00000000000E+00  0.00000000000E+00  0.24429460851E+04  0.24429460851E+04  0.00000000000E+00 0. -1.
         -2   -1    0    0    0  501 -0.00000000000E+00 -0.00000000000E+00 -0.14892387788E+03  0.14892387788E+03  0.00000000000E+00 0.  1.
         23    2    1    2    0    0  0.51957393951E+02  0.10498118210E+02  0.10537633222E+04  0.10594139745E+04  0.95556522304E+02 0.  0.
        254    2    1    2    0    0 -0.51957393951E+02 -0.10498118210E+02  0.12402588850E+04  0.15324559884E+04  0.89853740789E+03 0.  0.
        -24    2    4    4    0    0 -0.43705370243E+03 -0.16668241457E+03  0.70470208976E+03  0.84995938817E+03  0.83826965187E+02 0.  0.
         24    2    4    4    0    0  0.38509630848E+03  0.15618429636E+03  0.53555679524E+03  0.68249660026E+03  0.79295820815E+02 0.  0.
         11    1    3    3    0    0 -0.93852843997E+00  0.72800405207E+01  0.40881779376E+01  0.84019655120E+01  0.00000000000E+00 0.  1.
        -11    1    3    3    0    0  0.52895922391E+02  0.32180776892E+01  0.10496751442E+04  0.10510120090E+04  0.00000000000E+00 0. -1.
          2    1    6    6  502    0  0.89728890699E+02  0.70046528523E+02  0.17154063059E+03  0.20587369411E+03  0.00000000000E+00 0. -1.
          3    1    5    5  503    0 -0.53916502572E+02 -0.46076836859E+02  0.14044680969E+03  0.15733839485E+03  0.00000000000E+00 0. -1.
         -4    1    5    5    0  503 -0.38313719986E+03 -0.12060557771E+03  0.56425528008E+03  0.69262099332E+03  0.00000000000E+00 0.  1.
         -1    1    6    6    0  502  0.29536741778E+03  0.86137767837E+02  0.36401616466E+03  0.47662290615E+03  0.00000000000E+00 0.  1.
<mgrwt>
<rscale>  0 0.12063383E+04</rscale>
<asrwt>0</asrwt>
<pdfrwt beam="1">  1        2 0.37583783E+00 0.12063383E+04</pdfrwt>
<pdfrwt beam="2">  1       -2 0.22911368E-01 0.12063383E+04</pdfrwt>
<totfact> 0.62551693E+01</totfact>
</mgrwt>
</event>
<event>
12    1  0.1114484E-007  0.1707345E+04  0.7818608E-02  0.8757186E-01
         -1   -1    0    0    0  501 -0.00000000000E+00  0.00000000000E+00  0.85731810803E+03  0.85731810803E+03  0.00000000000E+00 0.  1.
          1   -1    0    0  501    0  0.00000000000E+00 -0.00000000000E+00 -0.85004285332E+03  0.85004285332E+03  0.00000000000E+00 0. -1.
         23    2    1    2    0    0 -0.36813906545E+03  0.48438334152E+03 -0.89508120329E+02  0.62177228879E+03  0.91844882537E+02 0.  0.
        254    2    1    2    0    0  0.36813906545E+03 -0.48438334152E+03  0.96783375032E+02  0.10855886726E+04  0.89385801515E+03 0.  0.
        -24    2    4    4    0    0  0.17415841600E+02 -0.55348396200E+03 -0.22027743034E+03  0.60129497868E+03  0.79910558400E+02 0.  0.
         24    2    4    4    0    0  0.35072322385E+03  0.69100620474E+02  0.31706080537E+03  0.48429369388E+03  0.78937647101E+02 0.  0.
         13    1    3    3    0    0 -0.71706134494E+02  0.99687835370E+02 -0.55987679964E+02  0.13495945522E+03  0.00000000000E+00 0.  1.
        -13    1    3    3    0    0 -0.29643293096E+03  0.38469550615E+03 -0.33520440364E+02  0.48681283357E+03  0.00000000000E+00 0. -1.
          4    1    6    6  502    0  0.12226328015E+03  0.27998933000E+02  0.16308717484E+03  0.20574177145E+03  0.00000000000E+00 0. -1.
          1    1    5    5  503    0  0.40901147724E+02 -0.35580323223E+03 -0.16730225333E+03  0.39529594979E+03  0.00000000000E+00 0. -1.
         -2    1    5    5    0  503 -0.23485306124E+02 -0.19768072976E+03 -0.52975177002E+02  0.20599902889E+03  0.00000000000E+00 0.  1.
         -3    1    6    6    0  502  0.22845994371E+03  0.41101687473E+02  0.15397363053E+03  0.27855192243E+03  0.00000000000E+00 0.  1.
<mgrwt>
<rscale>  0 0.17073455E+04</rscale>
<asrwt>0</asrwt>
<pdfrwt beam="1">  1        1 0.13077582E+00 0.17073455E+04</pdfrwt>
<pdfrwt beam="2">  1       -1 0.13189509E+00 0.17073455E+04</pdfrwt>
<totfact> 0.93122600E+00</totfact>
</mgrwt>
</event>
<event>
12    1  0.1114484E-007  0.1488629E+04  0.7818608E-02  0.8892050E-01
         -1   -1    0    0    0  501 -0.00000000000E+00  0.00000000000E+00  0.87815640290E+03  0.87815640290E+03  0.00000000000E+00 0.  1.
          1   -1    0    0  501    0  0.00000000000E+00 -0.00000000000E+00 -0.63087208483E+03  0.63087208483E+03  0.00000000000E+00 0. -1.
         23    2    1    2    0    0 -0.45856336831E+03  0.42535158183E+01  0.21887214744E+01  0.46762345539E+03  0.91479234694E+02 0.  0.
        254    2    1    2    0    0  0.45856336831E+03 -0.42535158183E+01  0.24509559660E+03  0.10414050323E+04  0.90230490121E+03 0.  0.
        -24    2    4    4    0    0  0.57803471009E+03  0.18995463438E+02  0.48699510413E+03  0.75931525293E+03  0.70074732938E+02 0.  0.
         24    2    4    4    0    0 -0.11947134178E+03 -0.23248979256E+02 -0.24189950753E+03  0.28208977940E+03  0.79027560736E+02 0.  0.
         11    1    3    3    0    0 -0.35017284594E+03 -0.54023552993E+01  0.39841938211E+02  0.35247352739E+03  0.00000000000E+00 0. -1.
        -11    1    3    3    0    0 -0.10839052237E+03  0.96558711176E+01 -0.37653216737E+02  0.11514992800E+03  0.00000000000E+00 0.  1.
          2    1    6    6  502    0  0.10008833429E+02 -0.10662615262E+02 -0.31347137034E+02  0.34590621721E+02  0.00000000000E+00 0. -1.
          1    1    5    5  503    0 -0.56214694187E+00 -0.24860458615E+01  0.62574579485E+01  0.67566421532E+01  0.00000000000E+00 0. -1.
         -2    1    5    5    0  503  0.57859685703E+03  0.21481509299E+02  0.48073764618E+03  0.75255861078E+03  0.00000000000E+00 0.  1.
         -1    1    6    6    0  502 -0.12948017521E+03 -0.12586363995E+02 -0.21055237050E+03  0.24749915768E+03  0.00000000000E+00 0.  1.
<mgrwt>
<rscale>  0 0.14886294E+04</rscale>
<asrwt>0</asrwt>
<pdfrwt beam="1">  1        1 0.97057244E-01 0.14886294E+04</pdfrwt>
<pdfrwt beam="2">  1       -1 0.13510099E+00 0.14886294E+04</pdfrwt>
<totfact> 0.14172475E+01</totfact>
</mgrwt>
</event>
<event>
12    1  0.1114484E-007  0.4682574E+04  0.7818608E-02  0.7879430E-01
         -3   -1    0    0    0  501 -0.00000000000E+00  0.00000000000E+00  0.33555577616E+04  0.33555577616E+04  0.00000000000E+00 0.  1.
          3   -1    0    0  501    0  0.00000000000E+00 -0.00000000000E+00 -0.16335957328E+04  0.16335957328E+04  0.00000000000E+00 0. -1.
         23    2    1    2    0    0 -0.16574762276E+04 -0.12554682533E+04 -0.97472331546E+02  0.20835325243E+04  0.90437516190E+02 0.  0.
        254    2    1    2    0    0  0.16574762276E+04  0.12554682533E+04  0.18194343603E+04  0.29056209700E+04  0.89936858402E+03 0.  0.
        -24    2    4    4    0    0  0.16667674615E+04  0.10008283286E+04  0.17783034584E+04  0.26359608833E+04  0.78456827931E+02 0.  0.
         24    2    4    4    0    0 -0.92912339004E+01  0.25463992470E+03  0.41130901923E+02  0.26966008679E+03  0.78083244250E+02 0.  0.
         11    1    3    3    0    0 -0.55298219054E+03 -0.38313828900E+03 -0.22001351282E+00  0.67274385910E+03  0.00000000000E+00 0. -1.
        -11    1    3    3    0    0 -0.11044940370E+04 -0.87232996430E+03 -0.97252318033E+02  0.14107886652E+04  0.00000000000E+00 0.  1.
          4    1    6    6  502    0 -0.41046630836E+02  0.13567781373E+03  0.71568821743E+01  0.14193137780E+03  0.00000000000E+00 0. -1.
          1    1    5    5  503    0  0.76179224572E+03  0.49929780792E+03  0.81141533157E+03  0.12198444847E+04  0.00000000000E+00 0. -1.
         -2    1    5    5    0  503  0.90497521577E+03  0.50153052067E+03  0.96688812683E+03  0.14161163985E+04  0.00000000000E+00 0.  1.
         -3    1    6    6    0  502  0.31755396936E+02  0.11896211098E+03  0.33974019749E+02  0.12772870899E+03  0.00000000000E+00 0.  1.
<mgrwt>
<rscale>  0 0.46825740E+04</rscale>
<asrwt>0</asrwt>
<pdfrwt beam="1">  1        3 0.25132242E+00 0.46825740E+04</pdfrwt>
<pdfrwt beam="2">  1       -3 0.51623966E+00 0.46825740E+04</pdfrwt>
<totfact> 0.34700767E-04</totfact>
</mgrwt>
</event>
<event>
12    1  0.1114484E-007  0.2539306E+04  0.7818608E-02  0.8389115E-01
          2   -1    0    0  501    0  0.00000000000E+00  0.00000000000E+00  0.72884436364E+03  0.72884436364E+03  0.00000000000E+00 0. -1.
         -2   -1    0    0    0  501 -0.00000000000E+00 -0.00000000000E+00 -0.22117464161E+04  0.22117464161E+04  0.00000000000E+00 0.  1.
         23    2    1    2    0    0 -0.96636187814E+02  0.18466691338E+03  0.61039038857E+03  0.65171258860E+03  0.93340505628E+02 0.  0.
        254    2    1    2    0    0  0.96636187814E+02 -0.18466691338E+03 -0.20932924410E+04  0.22888781911E+04  0.90202533693E+03 0.  0.
        -24    2    4    4    0    0  0.43630693978E+03 -0.32548618368E+03 -0.12468109525E+04  0.13628829854E+04  0.81286402186E+02 0.  0.
         24    2    4    4    0    0 -0.33967075196E+03  0.14081927031E+03 -0.84648148847E+03  0.92599520567E+03  0.75696261225E+02 0.  0.
         13    1    3    3    0    0  0.23269570756E+01  0.43770055292E+02  0.23041813089E+03  0.23455009595E+03  0.00000000000E+00 0.  1.
        -13    1    3    3    0    0 -0.98963144890E+02  0.14089685808E+03  0.37997225768E+03  0.41716249265E+03  0.00000000000E+00 0. -1.
          4    1    6    6  502    0 -0.29314820628E+03  0.93951446006E+02 -0.72678831932E+03  0.78929335874E+03  0.00000000000E+00 0. -1.
          3    1    5    5  503    0  0.28591837890E+03 -0.18102965464E+03 -0.84348146583E+03  0.90883553982E+03  0.00000000000E+00 0. -1.
         -4    1    5    5    0  503  0.15038856088E+03 -0.14445652904E+03 -0.40332948672E+03  0.45404744562E+03  0.00000000000E+00 0.  1.
         -3    1    6    6    0  502 -0.46522545684E+02  0.46867824300E+02 -0.11969316915E+03  0.13670184693E+03  0.00000000000E+00 0.  1.
<mgrwt>
<rscale>  0 0.25393061E+04</rscale>
<asrwt>0</asrwt>
<pdfrwt beam="1">  1        2 0.11212990E+00 0.25393061E+04</pdfrwt>
<pdfrwt beam="2">  1       -2 0.34026868E+00 0.25393061E+04</pdfrwt>
<totfact> 0.61985444E-01</totfact>
</mgrwt>
</event>
<event>
12    1  0.1114484E-007  0.5022708E+04  0.7818608E-02  0.7825014E-01
          2   -1    0    0  501    0  0.00000000000E+00  0.00000000000E+00  0.40711228404E+04  0.40711228404E+04  0.00000000000E+00 0. -1.
         -2   -1    0    0    0  501 -0.00000000000E+00 -0.00000000000E+00 -0.15491792041E+04  0.15491792041E+04  0.00000000000E+00 0.  1.
         23    2    1    2    0    0  0.64175312362E+03 -0.22663620019E+04  0.55246236500E+03  0.24211124075E+04  0.91251464076E+02 0.  0.
        254    2    1    2    0    0 -0.64175312362E+03  0.22663620019E+04  0.19694812713E+04  0.31991896369E+04  0.89872913590E+03 0.  0.
        -24    2    4    4    0    0 -0.80219407434E+03  0.19205787631E+04  0.18659121681E+04  0.27963728730E+04  0.77038353504E+02 0.  0.
         24    2    4    4    0    0  0.16044095072E+03  0.34578323882E+03  0.10356910318E+03  0.40281676388E+03  0.78914125554E+02 0.  0.
         11    1    3    3    0    0  0.48029443732E+02 -0.18659984864E+03  0.70810609331E+02  0.20528144917E+03  0.00000000000E+00 0. -1.
        -11    1    3    3    0    0  0.59372367989E+03 -0.20797621533E+04  0.48165175567E+03  0.22158309583E+04  0.00000000000E+00 0.  1.
          2    1    6    6  502    0  0.11106697839E+03  0.14792690541E+03  0.58025998058E+02  0.19386918136E+03  0.00000000000E+00 0. -1.
          1    1    5    5  503    0 -0.59775481819E+03  0.14555474111E+04  0.13673391114E+04  0.20845971635E+04  0.00000000000E+00 0. -1.
         -2    1    5    5    0  503 -0.20443925615E+03  0.46503135198E+03  0.49857305675E+03  0.71177570954E+03  0.00000000000E+00 0.  1.
         -1    1    6    6    0  502  0.49373972330E+02  0.19785633341E+03  0.45543105127E+02  0.20894758252E+03  0.00000000000E+00 0.  1.
<mgrwt>
<rscale>  0 0.50227080E+04</rscale>
<asrwt>0</asrwt>
<pdfrwt beam="1">  1        2 0.62632659E+00 0.50227080E+04</pdfrwt>
<pdfrwt beam="2">  1       -2 0.23833526E+00 0.50227080E+04</pdfrwt>
<totfact> 0.16404311E-02</totfact>
</mgrwt>
</event>
<event>
12    1  0.1114484E-007  0.2383044E+04  0.7818608E-02  0.8445879E-01
         -1   -1    0    0    0  501 -0.00000000000E+00  0.00000000000E+00  0.11492163275E+04  0.11492163275E+04  0.00000000000E+00 0.  1.
          1   -1    0    0  501    0  0.00000000000E+00 -0.00000000000E+00 -0.12353852607E+04  0.12353852607E+04  0.00000000000E+00 0. -1.
         23    2    1    2    0    0  0.74283705436E+03  0.49978579449E+03 -0.53016763841E+03  0.10446770396E+04  0.93164706645E+02 0.  0.
        254    2    1    2    0    0 -0.74283705436E+03 -0.49978579449E+03  0.44399870520E+03  0.13399245486E+04  0.89256384415E+03 0.  0.
        -24    2    4    4    0    0 -0.85156493254E+03 -0.36983246211E+03  0.58977509262E+03  0.11026205449E+04  0.77450124994E+02 0.  0.
         24    2    4    4    0    0  0.10872787818E+03 -0.12995333238E+03 -0.14577638742E+03  0.23730400362E+03  0.79704547647E+02 0.  0.
         11    1    3    3    0    0  0.50504395211E+03  0.28867690991E+03 -0.32702074127E+03  0.66734272836E+03  0.00000000000E+00 0. -1.
        -11    1    3    3    0    0  0.23779310226E+03  0.21110888458E+03 -0.20314689714E+03  0.37733431125E+03  0.00000000000E+00 0.  1.
          2    1    6    6  502    0  0.61859178707E+02 -0.40055956053E+02 -0.10443119453E+03  0.12781593014E+03  0.00000000000E+00 0. -1.
          3    1    5    5  503    0 -0.20030102196E+03 -0.11889181599E+03  0.16718935410E+03  0.28671945074E+03  0.00000000000E+00 0. -1.
         -2    1    5    5    0  503 -0.65126391058E+03 -0.25094064612E+03  0.42258573852E+03  0.81590109419E+03  0.00000000000E+00 0.  1.
         -1    1    6    6    0  502  0.46868699469E+02 -0.89897376327E+02 -0.41345192894E+02  0.10948807349E+03  0.00000000000E+00 0.  1.
<mgrwt>
<rscale>  0 0.23830442E+04</rscale>
<asrwt>0</asrwt>
<pdfrwt beam="1">  1        1 0.19005927E+00 0.23830442E+04</pdfrwt>
<pdfrwt beam="2">  1       -1 0.17680251E+00 0.23830442E+04</pdfrwt>
<totfact> 0.19833865E+00</totfact>
</mgrwt>
</event>
<event>
12    1  0.1114484E-007  0.3971426E+04  0.7818608E-02  0.8010336E-01
         -2   -1    0    0    0  501 -0.00000000000E+00  0.00000000000E+00  0.16758711658E+04  0.16758711658E+04  0.00000000000E+00 0.  1.
          2   -1    0    0  501    0  0.00000000000E+00 -0.00000000000E+00 -0.23528398470E+04  0.23528398470E+04  0.00000000000E+00 0. -1.
         23    2    1    2    0    0  0.31268248568E+03 -0.17741433996E+04  0.24168519076E+03  0.18208485770E+04  0.10827127912E+03 0.  0.
        254    2    1    2    0    0 -0.31268248568E+03  0.17741433996E+04 -0.91865387195E+03  0.22078624358E+04  0.88621468060E+03 0.  0.
        -24    2    4    4    0    0 -0.48400392955E+03  0.50923486477E+03 -0.17535692173E+03  0.72856645457E+03  0.80492716488E+02 0.  0.
         24    2    4    4    0    0  0.17132144388E+03  0.12649085348E+04 -0.74329695022E+03  0.14792959813E+04  0.80508418732E+02 0.  0.
         11    1    3    3    0    0  0.22430152817E+03 -0.12233173925E+04  0.11690916403E+03  0.12491934882E+04  0.00000000000E+00 0.  1.
        -11    1    3    3    0    0  0.88380957513E+02 -0.55082600703E+03  0.12477602673E+03  0.57165508877E+03  0.00000000000E+00 0. -1.
          2    1    6    6  502    0  0.17676273871E+03  0.11608908889E+04 -0.67044237183E+03  0.13521855256E+04  0.00000000000E+00 0. -1.
          3    1    5    5  503    0 -0.35058042148E+03  0.31805436590E+03 -0.13221782210E+03  0.49147407264E+03  0.00000000000E+00 0. -1.
         -4    1    5    5    0  503 -0.13342350807E+03  0.19118049886E+03 -0.43139099632E+02  0.23709238193E+03  0.00000000000E+00 0.  1.
         -1    1    6    6    0  502 -0.54412948339E+01  0.10401764589E+03 -0.72854578397E+02  0.12711045566E+03  0.00000000000E+00 0.  1.
<mgrwt>
<rscale>  0 0.39714262E+04</rscale>
<asrwt>0</asrwt>
<pdfrwt beam="1">  1        2 0.36197536E+00 0.39714262E+04</pdfrwt>
<pdfrwt beam="2">  1       -2 0.25782633E+00 0.39714262E+04</pdfrwt>
<totfact> 0.19244052E-01</totfact>
</mgrwt>
</event>
<event>
12    1  0.1114484E-007  0.1657116E+04  0.7818608E-02  0.8786208E-01
         -1   -1    0    0    0  501 -0.00000000000E+00  0.00000000000E+00  0.13038164553E+04  0.13038164553E+04  0.00000000000E+00 0.  1.
          1   -1    0    0  501    0  0.00000000000E+00 -0.00000000000E+00 -0.52653781337E+03  0.52653781337E+03  0.00000000000E+00 0. -1.
         23    2    1    2    0    0  0.25428147285E+03  0.25600517326E+03 -0.23194253739E+03  0.43853649990E+03  0.91209675628E+02 0.  0.
        254    2    1    2    0    0 -0.25428147285E+03 -0.25600517326E+03  0.10092211793E+04  0.13918177688E+04  0.88793670748E+03 0.  0.
        -24    2    4    4    0    0 -0.47780828924E+03 -0.14760650178E+03  0.20493208576E+03  0.54630080318E+03  0.79743132297E+02 0.  0.
         24    2    4    4    0    0  0.22352681639E+03 -0.10839867148E+03  0.80428909356E+03  0.84551696558E+03  0.79394479982E+02 0.  0.
         11    1    3    3    0    0  0.24544539204E+03  0.21078681414E+03 -0.18468448668E+03  0.37253574474E+03  0.00000000000E+00 0. -1.
        -11    1    3    3    0    0  0.88360808097E+01  0.45218359127E+02 -0.47258050705E+02  0.66000755167E+02  0.00000000000E+00 0.  1.
          4    1    6    6  502    0  0.22162860752E+03 -0.11508320496E+03  0.74320584629E+03  0.78403973987E+03  0.00000000000E+00 0. -1.
          3    1    5    5  503    0 -0.41059278136E+03 -0.96517052632E+02  0.17634267213E+03  0.45716376887E+03  0.00000000000E+00 0. -1.
         -4    1    5    5    0  503 -0.67215507876E+02 -0.51089449151E+02  0.28589413631E+02  0.89137034309E+02  0.00000000000E+00 0.  1.
         -3    1    6    6    0  502  0.18982088688E+01  0.66845334827E+01  0.61083247264E+02  0.61477225711E+02  0.00000000000E+00 0.  1.
<mgrwt>
<rscale>  0 0.16571164E+04</rscale>
<asrwt>0</asrwt>
<pdfrwt beam="1">  1        1 0.81005818E-01 0.16571164E+04</pdfrwt>
<pdfrwt beam="2">  1       -1 0.20058715E+00 0.16571164E+04</pdfrwt>
<totfact> 0.58722018E+00</totfact>
</mgrwt>
</event>
<event>
12    1  0.1114484E-007  0.1533570E+04  0.7818608E-02  0.8862431E-01
          2   -1    0    0  501    0  0.00000000000E+00  0.00000000000E+00  0.18989272141E+04  0.18989272141E+04  0.00000000000E+00 0. -1.
         -2   -1    0    0    0  501 -0.00000000000E+00 -0.00000000000E+00 -0.30962719689E+03  0.30962719689E+03  0.00000000000E+00 0.  1.
         23    2    1    2    0    0 -0.33808776551E+03 -0.34026479595E+03  0.35217193849E+03  0.60210153932E+03  0.91748138054E+02 0.  0.
        254    2    1    2    0    0  0.33808776551E+03  0.34026479595E+03  0.12371280787E+04  0.16064528716E+04  0.90560558588E+03 0.  0.
        -24    2    4    4    0    0  0.61582496822E+03  0.31277482274E+03  0.10543632862E+04  0.12629284551E+04  0.78980137313E+02 0.  0.
         24    2    4    4    0    0 -0.27773720271E+03  0.27489973210E+02  0.18276479244E+03  0.34352441654E+03  0.81929256097E+02 0.  0.
         11    1    3    3    0    0 -0.42281290616E+02 -0.22371861182E+02  0.90892364206E+01  0.48691086737E+02  0.00000000000E+00 0. -1.
        -11    1    3    3    0    0 -0.29580647489E+03 -0.31789293477E+03  0.34308270207E+03  0.55341045258E+03  0.00000000000E+00 0.  1.
          4    1    6    6  502    0 -0.27483983657E+03  0.27499369588E+02  0.19032023678E+03  0.33543247252E+03  0.00000000000E+00 0. -1.
          3    1    5    5  503    0  0.54093292790E+03  0.24746383142E+03  0.92592034313E+03  0.11005340804E+04  0.00000000000E+00 0. -1.
         -4    1    5    5    0  503  0.74892040324E+02  0.65310991316E+02  0.12844294311E+03  0.16239437467E+03  0.00000000000E+00 0.  1.
         -3    1    6    6    0  502 -0.28973661463E+01 -0.93963776762E-02 -0.75554443390E+01  0.80919440209E+01  0.00000000000E+00 0.  1.
<mgrwt>
<rscale>  0 0.15335704E+04</rscale>
<asrwt>0</asrwt>
<pdfrwt beam="1">  1        2 0.29214264E+00 0.15335704E+04</pdfrwt>
<pdfrwt beam="2">  1       -2 0.47634954E-01 0.15335704E+04</pdfrwt>
<totfact> 0.30607400E+01</totfact>
</mgrwt>
</event>
<event>
12    1  0.1114484E-007  0.1706363E+04  0.7818608E-02  0.8757743E-01
          2   -1    0    0  501    0  0.00000000000E+00  0.00000000000E+00  0.22318472327E+04  0.22318472327E+04  0.00000000000E+00 0. -1.
         -2   -1    0    0    0  501 -0.00000000000E+00 -0.00000000000E+00 -0.32615087836E+03  0.32615087836E+03  0.00000000000E+00 0.  1.
         23    2    1    2    0    0 -0.52356009309E+03  0.20700479364E+03  0.34375188579E+03  0.66569711172E+03  0.89560760926E+02 0.  0.
        254    2    1    2    0    0  0.52356009309E+03 -0.20700479364E+03  0.15619444686E+04  0.18923009994E+04  0.90783610505E+03 0.  0.
        -24    2    4    4    0    0  0.18811729783E+03 -0.53596081487E+03  0.10230896745E+04  0.11728455866E+04  0.78817353193E+02 0.  0.
         24    2    4    4    0    0  0.33544279526E+03  0.32895602123E+03  0.53885479407E+03  0.71945541274E+03  0.80732081836E+02 0.  0.
         11    1    3    3    0    0 -0.81018591743E+02  0.53864854873E+02  0.29223809070E+02  0.10158477157E+03  0.00000000000E+00 0. -1.
        -11    1    3    3    0    0 -0.44254150135E+03  0.15313993877E+03  0.31452807672E+03  0.56411234015E+03  0.00000000000E+00 0.  1.
          2    1    6    6  502    0  0.50649978646E+02  0.46137028875E+02  0.40561132338E+02  0.79619414886E+02  0.00000000000E+00 0. -1.
          1    1    5    5  503    0  0.88680201623E+02 -0.25702500795E+03  0.57060278640E+03  0.63207086052E+03  0.00000000000E+00 0. -1.
         -2    1    5    5    0  503  0.99437096207E+02 -0.27893580693E+03  0.45248688810E+03  0.54077472610E+03  0.00000000000E+00 0.  1.
         -3    1    6    6    0  502  0.28479281662E+03  0.28281899236E+03  0.49829366173E+03  0.63983599786E+03  0.00000000000E+00 0.  1.
<mgrwt>
<rscale>  0 0.17063633E+04</rscale>
<asrwt>0</asrwt>
<pdfrwt beam="1">  1        2 0.34336110E+00 0.17063633E+04</pdfrwt>
<pdfrwt beam="2">  1       -2 0.50177060E-01 0.17063633E+04</pdfrwt>
<totfact> 0.17714698E+01</totfact>
</mgrwt>
</event>
<event>
12    1  0.1114484E-007  0.1613118E+04  0.7818608E-02  0.8812530E-01
         -2   -1    0    0    0  501 -0.00000000000E+00  0.00000000000E+00  0.45471949004E+03  0.45471949004E+03  0.00000000000E+00 0. -1.
          2   -1    0    0  501    0  0.00000000000E+00 -0.00000000000E+00 -0.14306342605E+04  0.14306342605E+04  0.00000000000E+00 0.  1.
         23    2    1    2    0    0  0.40325825878E+03 -0.15186028363E+03 -0.73033173089E+03  0.85293777869E+03  0.91867557681E+02 0.  0.
        254    2    1    2    0    0 -0.40325825878E+03  0.15186028363E+03 -0.24558303960E+03  0.10324159719E+04  0.90547939823E+03 0.  0.
        -24    2    4    4    0    0  0.17239110047E+03  0.32161517927E+03 -0.20402491471E+03  0.42552235988E+03  0.79297527539E+02 0.  0.
         24    2    4    4    0    0 -0.57564935926E+03 -0.16975489564E+03 -0.41558124893E+02  0.60689361200E+03  0.80024178451E+02 0.  0.
         11    1    3    3    0    0  0.32861157087E+03 -0.10730685996E+03 -0.64109932094E+03  0.72836025839E+03  0.00000000000E+00 0.  1.
        -11    1    3    3    0    0  0.74646687915E+02 -0.44553423670E+02 -0.89232409953E+02  0.12457752030E+03  0.00000000000E+00 0. -1.
          2    1    6    6  502    0 -0.29203861842E+03 -0.11703871510E+03  0.51944417260E+01  0.31466108387E+03  0.00000000000E+00 0. -1.
          3    1    5    5  503    0  0.99560451366E+02  0.25860101135E+03 -0.15271661753E+03  0.31640027152E+03  0.00000000000E+00 0. -1.
         -2    1    5    5    0  503  0.72830649109E+02  0.63014167919E+02 -0.51308297179E+02  0.10912208836E+03  0.00000000000E+00 0.  1.
         -1    1    6    6    0  502 -0.28361074084E+03 -0.52716180533E+02 -0.46752566619E+02  0.29223252813E+03  0.00000000000E+00 0.  1.
<mgrwt>
<rscale>  0 0.16131178E+04</rscale>
<asrwt>0</asrwt>
<pdfrwt beam="1">  1        2 0.22009758E+00 0.16131178E+04</pdfrwt>
<pdfrwt beam="2">  1       -2 0.69956845E-01 0.16131178E+04</pdfrwt>
<totfact> 0.24783009E+01</totfact>
</mgrwt>
</event>
<event>
12    1  0.1114484E-007  0.1215492E+04  0.7818608E-02  0.9099403E-01
          2   -1    0    0  501    0  0.00000000000E+00  0.00000000000E+00  0.57950516606E+03  0.57950516606E+03  0.00000000000E+00 0. -1.
         -2   -1    0    0    0  501 -0.00000000000E+00 -0.00000000000E+00 -0.63736308336E+03  0.63736308336E+03  0.00000000000E+00 0.  1.
         23    2    1    2    0    0 -0.21348673100E+02 -0.55938868539E+02  0.24125530242E+03  0.26377136638E+03  0.88239956469E+02 0.  0.
        254    2    1    2    0    0  0.21348673100E+02  0.55938868539E+02 -0.29911321973E+03  0.95309688304E+03  0.90296180838E+03 0.  0.
        -24    2    4    4    0    0 -0.21711349753E+03 -0.34879136189E+03 -0.70639193406E+02  0.42459197505E+03  0.80590102989E+02 0.  0.
         24    2    4    4    0    0  0.23846217063E+03  0.40473023042E+03 -0.22847402632E+03  0.52850490799E+03  0.80288796389E+02 0.  0.
         13    1    3    3    0    0  0.11649728746E+02 -0.19958859555E+02  0.19549928545E+03  0.19686046547E+03  0.00000000000E+00 0. -1.
        -13    1    3    3    0    0 -0.32998401846E+02 -0.35980008984E+02  0.45756016972E+02  0.66910900906E+02  0.00000000000E+00 0.  1.
          2    1    6    6  502    0 -0.29835190564E+01  0.60790231748E+01  0.37999758873E+01  0.77650322255E+01  0.00000000000E+00 0. -1.
          1    1    5    5  503    0 -0.11609208391E+03 -0.18638290323E+03  0.31071300817E+01  0.21960330785E+03  0.00000000000E+00 0. -1.
         -2    1    5    5    0  503 -0.10102141362E+03 -0.16240845866E+03 -0.73746323488E+02  0.20498866720E+03  0.00000000000E+00 0.  1.
         -1    1    6    6    0  502  0.24144568968E+03  0.39865120725E+03 -0.23227400221E+03  0.52073987576E+03  0.00000000000E+00 0.  1.
<mgrwt>
<rscale>  0 0.12154920E+04</rscale>
<asrwt>0</asrwt>
<pdfrwt beam="1">  1        2 0.89154641E-01 0.12154920E+04</pdfrwt>
<pdfrwt beam="2">  1       -2 0.98055859E-01 0.12154920E+04</pdfrwt>
<totfact> 0.44125460E+01</totfact>
</mgrwt>
</event>
<event>
12    1  0.1114484E-007  0.1607880E+04  0.7818608E-02  0.8815722E-01
          2   -1    0    0  501    0  0.00000000000E+00  0.00000000000E+00  0.20186987637E+04  0.20186987637E+04  0.00000000000E+00 0. -1.
         -2   -1    0    0    0  501 -0.00000000000E+00 -0.00000000000E+00 -0.32016633736E+03  0.32016633736E+03  0.00000000000E+00 0.  1.
         23    2    1    2    0    0 -0.13134027357E+03  0.40746053590E+03  0.10898905627E+04  0.11743121716E+04  0.88731516501E+02 0.  0.
        254    2    1    2    0    0  0.13134027357E+03 -0.40746053590E+03  0.60864186367E+03  0.11645529295E+04  0.89580369027E+03 0.  0.
        -24    2    4    4    0    0  0.42686831769E+03  0.40863926604E+02  0.17393732072E+03  0.46959047941E+03  0.79841127663E+02 0.  0.
         24    2    4    4    0    0 -0.29552804411E+03 -0.44832446251E+03  0.43470454295E+03  0.69496245005E+03  0.75320108727E+02 0.  0.
         13    1    3    3    0    0  0.68726964077E+01  0.83805888415E+02  0.17783651034E+03  0.19671422241E+03  0.00000000000E+00 0.  1.
        -13    1    3    3    0    0 -0.13821296998E+03  0.32365464749E+03  0.91205405237E+03  0.97759794924E+03  0.00000000000E+00 0. -1.
          2    1    6    6  502    0 -0.13078945288E+02 -0.72534352976E+01  0.10736188815E+01  0.14994125215E+02  0.00000000000E+00 0. -1.
          3    1    5    5  503    0  0.19162530672E+02  0.15280106751E+02  0.24370742294E+02  0.34563236597E+02  0.00000000000E+00 0. -1.
         -4    1    5    5    0  503  0.40770578701E+03  0.25583819853E+02  0.14956657843E+03  0.43502724281E+03  0.00000000000E+00 0.  1.
         -1    1    6    6    0  502 -0.28244909883E+03 -0.44107102721E+03  0.43363092406E+03  0.67996832483E+03  0.00000000000E+00 0.  1.
<mgrwt>
<rscale>  0 0.16078798E+04</rscale>
<asrwt>0</asrwt>
<pdfrwt beam="1">  1        2 0.31056903E+00 0.16078798E+04</pdfrwt>
<pdfrwt beam="2">  1       -2 0.49256361E-01 0.16078798E+04</pdfrwt>
<totfact> 0.24397085E+01</totfact>
</mgrwt>
</event>
<event>
12    1  0.1114484E-007  0.3973226E+04  0.7818608E-02  0.8009970E-01
          2   -1    0    0  501    0  0.00000000000E+00  0.00000000000E+00  0.31787362356E+04  0.31787362356E+04  0.00000000000E+00 0. -1.
         -2   -1    0    0    0  501 -0.00000000000E+00 -0.00000000000E+00 -0.12415725343E+04  0.12415725343E+04  0.00000000000E+00 0.  1.
         23    2    1    2    0    0 -0.18457340743E+04 -0.66191813899E+02  0.39111519526E+03  0.18912073539E+04  0.11215404660E+03 0.  0.
        254    2    1    2    0    0  0.18457340743E+04  0.66191813899E+02  0.15460485061E+04  0.25291014161E+04  0.77134451479E+03 0.  0.
        -24    2    4    4    0    0  0.85495502873E+03  0.33650816304E+03  0.45251381411E+03  0.10272236651E+04  0.78954804964E+02 0.  0.
         24    2    4    4    0    0  0.99077904555E+03 -0.27031634915E+03  0.10935346920E+04  0.15018777510E+04  0.71446557979E+02 0.  0.
         11    1    3    3    0    0 -0.47461824998E+03 -0.59404320113E+02  0.75865613510E+02  0.48430047261E+03  0.00000000000E+00 0. -1.
        -11    1    3    3    0    0 -0.13711158243E+04 -0.67874937864E+01  0.31524958175E+03  0.14069068813E+04  0.00000000000E+00 0.  1.
          2    1    6    6  502    0  0.37517444027E+03 -0.75676120924E+02  0.44086748305E+03  0.58382092590E+03  0.00000000000E+00 0. -1.
          1    1    5    5  503    0  0.17709489497E+03  0.81461874745E+02  0.62934416608E+02  0.20483988785E+03  0.00000000000E+00 0. -1.
         -2    1    5    5    0  503  0.67786013376E+03  0.25504628830E+03  0.38957939750E+03  0.82238377724E+03  0.00000000000E+00 0.  1.
         -1    1    6    6    0  502  0.61560460527E+03 -0.19464022822E+03  0.65266720893E+03  0.91805682509E+03  0.00000000000E+00 0.  1.
<mgrwt>
<rscale>  0 0.39732262E+04</rscale>
<asrwt>0</asrwt>
<pdfrwt beam="1">  1        2 0.48903634E+00 0.39732262E+04</pdfrwt>
<pdfrwt beam="2">  1       -2 0.19101116E+00 0.39732262E+04</pdfrwt>
<totfact> 0.16136088E-01</totfact>
</mgrwt>
</event>
<event>
12    1  0.1114484E-007  0.2708404E+04  0.7818608E-02  0.8332283E-01
         -2   -1    0    0    0  501 -0.00000000000E+00  0.00000000000E+00  0.46824995877E+03  0.46824995877E+03  0.00000000000E+00 0. -1.
          2   -1    0    0  501    0  0.00000000000E+00 -0.00000000000E+00 -0.39164203963E+04  0.39164203963E+04  0.00000000000E+00 0.  1.
         23    2    1    2    0    0  0.16964489963E+02 -0.37858944157E+02 -0.34757092125E+04  0.34772062577E+04  0.93208018740E+02 0.  0.
        254    2    1    2    0    0 -0.16964489963E+02  0.37858944157E+02  0.27538774942E+02  0.90746409746E+03  0.90609691010E+03 0.  0.
        -24    2    4    4    0    0 -0.61887666856E+02  0.37724414783E+03 -0.24619740734E+03  0.46184814388E+03  0.80915475958E+02 0.  0.
         24    2    4    4    0    0  0.44923176894E+02 -0.33938520367E+03  0.27373618228E+03  0.44561595358E+03  0.80260029299E+02 0.  0.
         13    1    3    3    0    0  0.31143815764E+02 -0.54822254519E+02 -0.31969409290E+04  0.31975626218E+04  0.00000000000E+00 0.  1.
        -13    1    3    3    0    0 -0.14179325801E+02  0.16963310362E+02 -0.27876828348E+03  0.27964363582E+03  0.00000000000E+00 0. -1.
          4    1    6    6  502    0  0.59320002727E+02 -0.31667723767E+03  0.26553129965E+03  0.41750473850E+03  0.00000000000E+00 0. -1.
          3    1    5    5  503    0 -0.81422357714E+02  0.28479318449E+03 -0.19010543202E+03  0.35196140918E+03  0.00000000000E+00 0. -1.
         -4    1    5    5    0  503  0.19534690857E+02  0.92450963337E+02 -0.56091975315E+02  0.10988673470E+03  0.00000000000E+00 0.  1.
         -3    1    6    6    0  502 -0.14396825833E+02 -0.22707966002E+02  0.82048826321E+01  0.28111215076E+02  0.00000000000E+00 0.  1.
<mgrwt>
<rscale>  0 0.27084045E+04</rscale>
<asrwt>0</asrwt>
<pdfrwt beam="1">  1        2 0.60252624E+00 0.27084045E+04</pdfrwt>
<pdfrwt beam="2">  1       -2 0.72038453E-01 0.27084045E+04</pdfrwt>
<totfact> 0.61131004E-01</totfact>
</mgrwt>
</event>
<event>
12    1  0.1114484E-007  0.3561401E+04  0.7818608E-02  0.8099391E-01
          2   -1    0    0  501    0  0.00000000000E+00  0.00000000000E+00  0.24134953415E+04  0.24134953415E+04  0.00000000000E+00 0. -1.
         -2   -1    0    0    0  501 -0.00000000000E+00 -0.00000000000E+00 -0.13138182497E+04  0.13138182497E+04  0.00000000000E+00 0.  1.
         23    2    1    2    0    0  0.47090350260E+03  0.12393342302E+04 -0.53264443204E+03  0.14319093213E+04  0.94629648888E+02 0.  0.
        254    2    1    2    0    0 -0.47090350260E+03 -0.12393342302E+04  0.16323215238E+04  0.22954042700E+04  0.92016724712E+03 0.  0.
        -24    2    4    4    0    0 -0.16387706570E+03 -0.12275419175E+04  0.10232515143E+04  0.16084719301E+04  0.80146344428E+02 0.  0.
         24    2    4    4    0    0 -0.30702643690E+03 -0.11792312673E+02  0.60907000956E+03  0.68693233990E+03  0.80656502905E+02 0.  0.
         11    1    3    3    0    0  0.10193933291E+03  0.37416341111E+03 -0.17812070907E+03  0.42675153522E+03  0.00000000000E+00 0. -1.
        -11    1    3    3    0    0  0.36896416969E+03  0.86517081907E+03 -0.35452372297E+03  0.10051577860E+04  0.00000000000E+00 0.  1.
          4    1    6    6  502    0 -0.10884613896E+03 -0.34554719156E+02  0.27601155021E+03  0.29870367663E+03  0.00000000000E+00 0. -1.
          3    1    5    5  503    0 -0.17027434754E+02 -0.31375481041E+02  0.25016159879E+02  0.43590854545E+02  0.00000000000E+00 0. -1.
         -4    1    5    5    0  503 -0.14684963095E+03 -0.11961664365E+04  0.99823535438E+03  0.15648810755E+04  0.00000000000E+00 0.  1.
         -3    1    6    6    0  502 -0.19818029794E+03  0.22762406484E+02  0.33305845935E+03  0.38822866327E+03  0.00000000000E+00 0.  1.
<mgrwt>
<rscale>  0 0.35614010E+04</rscale>
<asrwt>0</asrwt>
<pdfrwt beam="1">  1        2 0.37130698E+00 0.35614010E+04</pdfrwt>
<pdfrwt beam="2">  1       -2 0.20212588E+00 0.35614010E+04</pdfrwt>
<totfact> 0.41122884E-01</totfact>
</mgrwt>
</event>
<event>
12    1  0.1114484E-007  0.2208124E+04  0.7818608E-02  0.8515054E-01
          2   -1    0    0  501    0  0.00000000000E+00  0.00000000000E+00  0.14611726514E+04  0.14611726514E+04  0.00000000000E+00 0. -1.
         -2   -1    0    0    0  501 -0.00000000000E+00 -0.00000000000E+00 -0.83422956106E+03  0.83422956106E+03  0.00000000000E+00 0.  1.
         23    2    1    2    0    0 -0.14110350466E+03 -0.89685810555E+03  0.16322786978E+03  0.92691689898E+03  0.90922712395E+02 0.  0.
        254    2    1    2    0    0  0.14110350466E+03  0.89685810555E+03  0.46371522060E+03  0.13684853135E+04  0.91293788779E+03 0.  0.
        -24    2    4    4    0    0  0.50085717189E+03  0.47137231743E+03  0.10408508117E+03  0.70026132011E+03  0.80513626513E+02 0.  0.
         24    2    4    4    0    0 -0.35975366723E+03  0.42548578812E+03  0.35963013943E+03  0.66822399340E+03  0.82028112201E+02 0.  0.
         13    1    3    3    0    0 -0.10007391933E+03 -0.48447027731E+03  0.12805416389E+03  0.51100304091E+03  0.00000000000E+00 0.  1.
        -13    1    3    3    0    0 -0.41029585326E+02 -0.41238782824E+03  0.35173705888E+02  0.41591385807E+03  0.00000000000E+00 0. -1.
          4    1    6    6  502    0 -0.10610545074E+02  0.19744645596E+02 -0.15772857326E+01  0.22470481232E+02  0.00000000000E+00 0. -1.
          1    1    5    5  503    0  0.25280730994E+02  0.47928823008E+02  0.20906203306E+02  0.58080605810E+02  0.00000000000E+00 0. -1.
         -2    1    5    5    0  503  0.47557644089E+03  0.42344349442E+03  0.83178877868E+02  0.64218071430E+03  0.00000000000E+00 0.  1.
         -3    1    6    6    0  502 -0.34914312216E+03  0.40574114253E+03  0.36120742516E+03  0.64575351217E+03  0.00000000000E+00 0.  1.
<mgrwt>
<rscale>  0 0.22081245E+04</rscale>
<asrwt>0</asrwt>
<pdfrwt beam="1">  1        2 0.22479579E+00 0.22081245E+04</pdfrwt>
<pdfrwt beam="2">  1       -2 0.12834301E+00 0.22081245E+04</pdfrwt>
<totfact> 0.54731496E+00</totfact>
</mgrwt>
</event>
<event>
12    1  0.1114484E-007  0.1452120E+04  0.7818608E-02  0.8916932E-01
         -1   -1    0    0    0  501 -0.00000000000E+00  0.00000000000E+00  0.16526773184E+04  0.16526773184E+04  0.00000000000E+00 0.  1.
          1   -1    0    0  501    0  0.00000000000E+00 -0.00000000000E+00 -0.31897504219E+03  0.31897504219E+03  0.00000000000E+00 0. -1.
         23    2    1    2    0    0 -0.63550439449E+02  0.41591215313E+03  0.56143412234E+03  0.70745641679E+03  0.90910562949E+02 0.  0.
        254    2    1    2    0    0  0.63550439449E+02 -0.41591215313E+03  0.77226815385E+03  0.12641959438E+04  0.90816942545E+03 0.  0.
        -24    2    4    4    0    0 -0.13843067378E+02 -0.69028495439E+03  0.45197975703E+03  0.82899780711E+03  0.79162583688E+02 0.  0.
         24    2    4    4    0    0  0.77393506826E+02  0.27437280126E+03  0.32028839683E+03  0.43519813667E+03  0.74448452279E+02 0.  0.
         13    1    3    3    0    0 -0.71327842738E+02  0.41648215008E+03  0.55321742599E+03  0.69612826613E+03  0.00000000000E+00 0.  1.
        -13    1    3    3    0    0  0.77774032899E+01 -0.56999695342E+00  0.82166963482E+01  0.11328150658E+02  0.00000000000E+00 0. -1.
          4    1    6    6  502    0  0.48135220695E+02  0.22642987298E+03  0.29103140825E+03  0.37186928811E+03  0.00000000000E+00 0. -1.
          3    1    5    5  503    0 -0.78431926969E+01 -0.57722423605E+03  0.34106991035E+03  0.67050579274E+03  0.00000000000E+00 0. -1.
         -4    1    5    5    0  503 -0.59998746806E+01 -0.11306071834E+03  0.11090984668E+03  0.15849201437E+03  0.00000000000E+00 0.  1.
         -3    1    6    6    0  502  0.29258286131E+02  0.47942928275E+02  0.29256988575E+02  0.63328848556E+02  0.00000000000E+00 0.  1.
<mgrwt>
<rscale>  0 0.14521196E+04</rscale>
<asrwt>0</asrwt>
<pdfrwt beam="1">  1        1 0.49073084E-01 0.14521196E+04</pdfrwt>
<pdfrwt beam="2">  1       -1 0.25425804E+00 0.14521196E+04</pdfrwt>
<totfact> 0.51430917E+00</totfact>
</mgrwt>
</event>
<event>
12    1  0.1114484E-007  0.1147662E+04  0.7818608E-02  0.9159943E-01
         -1   -1    0    0    0  501 -0.00000000000E+00  0.00000000000E+00  0.88370620233E+03  0.88370620233E+03  0.00000000000E+00 0.  1.
          1   -1    0    0  501    0  0.00000000000E+00 -0.00000000000E+00 -0.37261463562E+03  0.37261463562E+03  0.00000000000E+00 0. -1.
         23    2    1    2    0    0  0.98770903426E+01 -0.18211461332E+03  0.86918612257E+02  0.22017116040E+03  0.87505459344E+02 0.  0.
        254    2    1    2    0    0 -0.98770903426E+01  0.18211461332E+03  0.42417295445E+03  0.10361496775E+04  0.92758836220E+03 0.  0.
        -24    2    4    4    0    0  0.26523444363E+03  0.43483197695E+03  0.40212659479E+03  0.65384465794E+03  0.79867892270E+02 0.  0.
         24    2    4    4    0    0 -0.27511153397E+03 -0.25271736363E+03  0.22046359660E+02  0.38230501960E+03  0.78221889721E+02 0.  0.
         11    1    3    3    0    0 -0.13075450586E+02 -0.17597860811E+03  0.65639058512E+02  0.18827619053E+03  0.00000000000E+00 0. -1.
        -11    1    3    3    0    0  0.22952540929E+02 -0.61360052161E+01  0.21279553746E+02  0.31894969866E+02  0.00000000000E+00 0.  1.
          4    1    6    6  502    0 -0.77709500207E+02 -0.36252681291E+02 -0.14871554720E+02  0.87029802154E+02  0.00000000000E+00 0. -1.
          3    1    5    5  503    0  0.11653764247E+03  0.11947020362E+03  0.12835547108E+03  0.21054519378E+03  0.00000000000E+00 0. -1.
         -4    1    5    5    0  503  0.14869680116E+03  0.31536177333E+03  0.27377112371E+03  0.44329946417E+03  0.00000000000E+00 0.  1.
         -3    1    6    6    0  502 -0.19740203377E+03 -0.21646468234E+03  0.36917914380E+02  0.29527521744E+03  0.00000000000E+00 0.  1.
<mgrwt>
<rscale>  0 0.11476617E+04</rscale>
<asrwt>0</asrwt>
<pdfrwt beam="1">  1        1 0.57325329E-01 0.11476617E+04</pdfrwt>
<pdfrwt beam="2">  1       -1 0.13595480E+00 0.11476617E+04</pdfrwt>
<totfact> 0.29631581E+01</totfact>
</mgrwt>
</event>
<event>
12    1  0.1114484E-007  0.1552664E+04  0.7818608E-02  0.8850168E-01
         -1   -1    0    0    0  501 -0.00000000000E+00  0.00000000000E+00  0.41065647908E+03  0.41065647908E+03  0.00000000000E+00 0.  1.
          1   -1    0    0  501    0  0.00000000000E+00 -0.00000000000E+00 -0.14676291787E+04  0.14676291787E+04  0.00000000000E+00 0. -1.
         23    2    1    2    0    0  0.56962658280E+02 -0.17825570229E+03 -0.95020575196E+03  0.97279029332E+03  0.91706836590E+02 0.  0.
        254    2    1    2    0    0 -0.56962658280E+02  0.17825570229E+03 -0.10676694770E+03  0.90549536451E+03  0.87949009897E+03 0.  0.
        -24    2    4    4    0    0  0.22380897429E+03  0.19482054781E+03 -0.39119755891E+03  0.49750316969E+03  0.80177122214E+02 0.  0.
         24    2    4    4    0    0 -0.28077163257E+03 -0.16564845512E+02  0.28443061121E+03  0.40799219483E+03  0.80310364708E+02 0.  0.
         13    1    3    3    0    0  0.63537298783E+02 -0.16804733290E+03 -0.93974259129E+03  0.95676174271E+03  0.00000000000E+00 0. -1.
        -13    1    3    3    0    0 -0.65746405030E+01 -0.10208369391E+02 -0.10463160674E+02  0.16028550610E+02  0.00000000000E+00 0.  1.
          4    1    6    6  502    0 -0.15934081207E+03  0.99892038135E+01  0.11030696272E+03  0.19405387037E+03  0.00000000000E+00 0. -1.
          3    1    5    5  503    0  0.56358471377E+02  0.89551637127E+01 -0.67149644196E+02  0.88122340917E+02  0.00000000000E+00 0. -1.
         -4    1    5    5    0  503  0.16745050292E+03  0.18586538409E+03 -0.32404791472E+03  0.40938082877E+03  0.00000000000E+00 0.  1.
         -3    1    6    6    0  502 -0.12143082051E+03 -0.26554049326E+02  0.17412364850E+03  0.21393832445E+03  0.00000000000E+00 0.  1.
<mgrwt>
<rscale>  0 0.15526641E+04</rscale>
<asrwt>0</asrwt>
<pdfrwt beam="1">  1        1 0.22578910E+00 0.15526641E+04</pdfrwt>
<pdfrwt beam="2">  1       -1 0.63177921E-01 0.15526641E+04</pdfrwt>
<totfact> 0.16862367E+01</totfact>
</mgrwt>
</event>
<event>
12    1  0.1114484E-007  0.1383050E+04  0.7818608E-02  0.8966180E-01
          2   -1    0    0  501    0  0.00000000000E+00  0.00000000000E+00  0.14440312172E+04  0.14440312172E+04  0.00000000000E+00 0. -1.
         -2   -1    0    0    0  501 -0.00000000000E+00 -0.00000000000E+00 -0.33116077855E+03  0.33116077855E+03  0.00000000000E+00 0.  1.
         23    2    1    2    0    0 -0.15571473132E+03 -0.11949001695E+02  0.77277839794E+03  0.79365310677E+03  0.91153416623E+02 0.  0.
        254    2    1    2    0    0  0.15571473132E+03  0.11949001695E+02  0.34009204070E+03  0.98153888897E+03  0.90739524918E+03 0.  0.
        -24    2    4    4    0    0 -0.57104946580E+02 -0.33479599513E+03  0.43520686949E+03  0.55728914346E+03  0.76268190564E+02 0.  0.
         24    2    4    4    0    0  0.21281967790E+03  0.34674499682E+03 -0.95114828799E+02  0.42424974551E+03  0.73598286578E+02 0.  0.
         11    1    3    3    0    0 -0.11962876679E+03 -0.20513025596E+02  0.37508764738E+03  0.39423669195E+03  0.00000000000E+00 0.  1.
        -11    1    3    3    0    0 -0.36085964527E+02  0.85640239010E+01  0.39769075056E+03  0.39941641482E+03  0.00000000000E+00 0. -1.
          4    1    6    6  502    0  0.21649456254E+03  0.34639878029E+03 -0.97359549691E+02  0.41992962805E+03  0.00000000000E+00 0. -1.
          3    1    5    5  503    0 -0.17584927636E+02 -0.27845013835E+03  0.35749446853E+03  0.45348208813E+03  0.00000000000E+00 0. -1.
         -4    1    5    5    0  503 -0.39520018944E+02 -0.56345856776E+02  0.77712400967E+02  0.10380705533E+03  0.00000000000E+00 0.  1.
         -3    1    6    6    0  502 -0.36748846417E+01  0.34621653194E+00  0.22447208927E+01  0.43201174640E+01  0.00000000000E+00 0.  1.
<mgrwt>
<rscale>  0 0.13830495E+04</rscale>
<asrwt>0</asrwt>
<pdfrwt beam="1">  1        2 0.22215864E+00 0.13830495E+04</pdfrwt>
<pdfrwt beam="2">  1       -2 0.50947813E-01 0.13830495E+04</pdfrwt>
<totfact> 0.48451084E+01</totfact>
</mgrwt>
</event>
<event>
12    1  0.1114484E-007  0.3087173E+04  0.7818608E-02  0.8219267E-01
          1   -1    0    0  501    0  0.00000000000E+00  0.00000000000E+00  0.17908270385E+04  0.17908270385E+04  0.00000000000E+00 0. -1.
         -1   -1    0    0    0  501 -0.00000000000E+00 -0.00000000000E+00 -0.13304798450E+04  0.13304798450E+04  0.00000000000E+00 0.  1.
         23    2    1    2    0    0 -0.45463155403E+03 -0.29115952493E+03 -0.11069522467E+04  0.12352109173E+04  0.94546363823E+02 0.  0.
        254    2    1    2    0    0  0.45463155403E+03  0.29115952493E+03  0.15672994402E+04  0.18860959662E+04  0.89970369531E+03 0.  0.
        -24    2    4    4    0    0 -0.23967020894E+03  0.12588437560E+02  0.18849923906E+03  0.31548299340E+03  0.79982986841E+02 0.  0.
         24    2    4    4    0    0  0.69430176297E+03  0.27857108737E+03  0.13788002012E+04  0.15706129728E+04  0.77963624105E+02 0.  0.
         11    1    3    3    0    0 -0.15916622230E+03 -0.99797720083E+02 -0.28862207091E+03  0.34437794800E+03  0.00000000000E+00 0. -1.
        -11    1    3    3    0    0 -0.29546533173E+03 -0.19136180484E+03 -0.81833017582E+03  0.89083296934E+03  0.00000000000E+00 0.  1.
          4    1    6    6  502    0  0.26534700188E+03  0.66273269069E+02  0.50923407339E+03  0.57803159006E+03  0.00000000000E+00 0. -1.
          3    1    5    5  503    0 -0.29568335525E+02 -0.41611737198E+01  0.64169449498E+02  0.70776550364E+02  0.00000000000E+00 0. -1.
         -4    1    5    5    0  503 -0.21010187342E+03  0.16749611280E+02  0.12432978956E+03  0.24470644304E+03  0.00000000000E+00 0.  1.
         -3    1    6    6    0  502  0.42895476109E+03  0.21229781830E+03  0.86956612777E+03  0.99258138270E+03  0.00000000000E+00 0.  1.
<mgrwt>
<rscale>  0 0.30871730E+04</rscale>
<asrwt>0</asrwt>
<pdfrwt beam="1">  1        1 0.27551185E+00 0.30871730E+04</pdfrwt>
<pdfrwt beam="2">  1       -1 0.20468921E+00 0.30871730E+04</pdfrwt>
<totfact> 0.48789177E-01</totfact>
</mgrwt>
</event>
<event>
12    1  0.1114484E-007  0.2290367E+04  0.7818608E-02  0.8481729E-01
         -1   -1    0    0    0  501 -0.00000000000E+00  0.00000000000E+00  0.12993556773E+04  0.12993556773E+04  0.00000000000E+00 0. -1.
          1   -1    0    0  501    0  0.00000000000E+00 -0.00000000000E+00 -0.10093041693E+04  0.10093041693E+04  0.00000000000E+00 0.  1.
         23    2    1    2    0    0  0.11324319340E+03 -0.73258598183E+03  0.71592741936E+03  0.10343143798E+04  0.88022297435E+02 0.  0.
        254    2    1    2    0    0 -0.11324319340E+03  0.73258598183E+03 -0.42587591130E+03  0.12743454668E+04  0.94502901296E+03 0.  0.
        -24    2    4    4    0    0  0.56937919246E+02  0.42178007439E+03 -0.69739300177E+03  0.82085460353E+03  0.79403547865E+02 0.  0.
         24    2    4    4    0    0 -0.17018111264E+03  0.31080590743E+03  0.27151709047E+03  0.45349086328E+03  0.79815471344E+02 0.  0.
         13    1    3    3    0    0  0.12823310635E+03 -0.65836922010E+03  0.64013027533E+03  0.92717880096E+03  0.00000000000E+00 0. -1.
        -13    1    3    3    0    0 -0.14989912957E+02 -0.74216761726E+02  0.75797144024E+02  0.10713557884E+03  0.00000000000E+00 0.  1.
          4    1    6    6  502    0 -0.12266102661E+03  0.26863959807E+03  0.24836430036E+03  0.38587275985E+03  0.00000000000E+00 0. -1.
          1    1    5    5  503    0  0.75477866086E+02  0.37678847145E+03 -0.62105489819E+03  0.73032571299E+03  0.00000000000E+00 0. -1.
         -2    1    5    5    0  503 -0.18539946841E+02  0.44991602942E+02 -0.76338103582E+02  0.90528890541E+02  0.00000000000E+00 0.  1.
         -3    1    6    6    0  502 -0.47520086033E+02  0.42166309362E+02  0.23152790113E+02  0.67618103432E+02  0.00000000000E+00 0.  1.
<mgrwt>
<rscale>  0 0.22903669E+04</rscale>
<asrwt>0</asrwt>
<pdfrwt beam="1">  1        1 0.15527756E+00 0.22903669E+04</pdfrwt>
<pdfrwt beam="2">  1       -1 0.19990087E+00 0.22903669E+04</pdfrwt>
<totfact> 0.20290631E+00</totfact>
</mgrwt>
</event>
<event>
12    1  0.1114484E-007  0.2883786E+04  0.7818608E-02  0.8277718E-01
          3   -1    0    0  501    0  0.00000000000E+00  0.00000000000E+00  0.13470770606E+04  0.13470770606E+04  0.00000000000E+00 0. -1.
         -3   -1    0    0    0  501 -0.00000000000E+00 -0.00000000000E+00 -0.15433829222E+04  0.15433829222E+04  0.00000000000E+00 0.  1.
         23    2    1    2    0    0 -0.25910837117E+03  0.12128272049E+04 -0.45888721614E+03  0.13245673350E+04  0.76250711546E+02 0.  0.
        254    2    1    2    0    0  0.25910837117E+03 -0.12128272049E+04  0.26258135456E+03  0.15658926478E+04  0.91923002552E+03 0.  0.
        -24    2    4    4    0    0  0.17430775218E+03 -0.18958841752E+03 -0.29066745200E+03  0.39680483490E+03  0.81483426707E+02 0.  0.
         24    2    4    4    0    0  0.84800618998E+02 -0.10232387874E+04  0.55324880656E+03  0.11690878129E+04  0.80456891499E+02 0.  0.
         13    1    3    3    0    0 -0.32436904191E+02  0.98740454988E+02 -0.19742414404E+02  0.10579032626E+03  0.00000000000E+00 0. -1.
        -13    1    3    3    0    0 -0.22667146698E+03  0.11140867499E+04 -0.43914480174E+03  0.12187770088E+04  0.00000000000E+00 0.  1.
          2    1    6    6  502    0  0.27312289251E+02 -0.74827195474E+03  0.41282228126E+03  0.85503164579E+03  0.00000000000E+00 0. -1.
          1    1    5    5  503    0  0.13785086086E+03 -0.15843582213E+03 -0.18151599967E+03  0.27758391111E+03  0.00000000000E+00 0. -1.
         -4    1    5    5    0  503  0.36456891314E+02 -0.31152595388E+02 -0.10915145233E+03  0.11922092379E+03  0.00000000000E+00 0.  1.
         -1    1    6    6    0  502  0.57488329746E+02 -0.27496683262E+03  0.14042652530E+03  0.31405616712E+03  0.00000000000E+00 0.  1.
<mgrwt>
<rscale>  0 0.28837862E+04</rscale>
<asrwt>0</asrwt>
<pdfrwt beam="1">  1        3 0.20724263E+00 0.28837862E+04</pdfrwt>
<pdfrwt beam="2">  1       -3 0.23744353E+00 0.28837862E+04</pdfrwt>
<totfact> 0.25781856E-02</totfact>
</mgrwt>
</event>
<event>
12    1  0.1114484E-007  0.1795947E+04  0.7818608E-02  0.8708458E-01
         -2   -1    0    0    0  501 -0.00000000000E+00  0.00000000000E+00  0.33207806626E+03  0.33207806626E+03  0.00000000000E+00 0.  1.
          2   -1    0    0  501    0  0.00000000000E+00 -0.00000000000E+00 -0.24282147347E+04  0.24282147347E+04  0.00000000000E+00 0. -1.
         23    2    1    2    0    0  0.13277057451E+03 -0.63421149737E+03 -0.50508358871E+03  0.82656480535E+03  0.90816832174E+02 0.  0.
        254    2    1    2    0    0 -0.13277057451E+03  0.63421149737E+03 -0.15910530797E+04  0.19337279956E+04  0.88769466013E+03 0.  0.
        -24    2    4    4    0    0  0.34562600726E+03  0.29322120586E+03 -0.42784317335E+03  0.62817719911E+03  0.78235542048E+02 0.  0.
         24    2    4    4    0    0 -0.47839658177E+03  0.34099029152E+03 -0.11632099064E+04  0.13055507965E+04  0.79170244193E+02 0.  0.
         13    1    3    3    0    0  0.73614485242E+02 -0.23552867146E+03 -0.23952153649E+03  0.34389448085E+03  0.00000000000E+00 0. -1.
        -13    1    3    3    0    0  0.59156089269E+02 -0.39868282591E+03 -0.26556205222E+03  0.48267032450E+03  0.00000000000E+00 0.  1.
          4    1    6    6  502    0 -0.43300391433E+03  0.27642574633E+03 -0.99793843428E+03  0.11224013104E+04  0.00000000000E+00 0. -1.
          3    1    5    5  503    0  0.34770336473E+03  0.29568523512E+03 -0.42262756380E+03  0.62204617658E+03  0.00000000000E+00 0. -1.
         -4    1    5    5    0  503 -0.20773574708E+01 -0.24640292644E+01 -0.52156095500E+01  0.61310225293E+01  0.00000000000E+00 0.  1.
         -3    1    6    6    0  502 -0.45392667447E+02  0.64564545187E+02 -0.16527147212E+03  0.18314948607E+03  0.00000000000E+00 0.  1.
<mgrwt>
<rscale>  0 0.17959475E+04</rscale>
<asrwt>0</asrwt>
<pdfrwt beam="1">  1        2 0.37357152E+00 0.17959475E+04</pdfrwt>
<pdfrwt beam="2">  1       -2 0.51088930E-01 0.17959475E+04</pdfrwt>
<totfact> 0.13108638E+01</totfact>
</mgrwt>
</event>
<event>
12    1  0.1114484E-007  0.1458600E+04  0.7818608E-02  0.8912460E-01
         -1   -1    0    0    0  501 -0.00000000000E+00  0.00000000000E+00  0.27488119026E+03  0.27488119026E+03  0.00000000000E+00 0.  1.
          1   -1    0    0  501    0  0.00000000000E+00 -0.00000000000E+00 -0.19349391581E+04  0.19349391581E+04  0.00000000000E+00 0. -1.
         23    2    1    2    0    0 -0.34055389811E+03 -0.25933965041E+03 -0.39397882648E+03  0.58905264466E+03  0.92356324469E+02 0.  0.
        254    2    1    2    0    0  0.34055389811E+03  0.25933965041E+03 -0.12660791414E+04  0.16207677037E+04  0.91689560224E+03 0.  0.
        -24    2    4    4    0    0 -0.22373684741E+02  0.13045779751E+03  0.11001937746E+03  0.18984436253E+03  0.80104930350E+02 0.  0.
         24    2    4    4    0    0  0.36292758286E+03  0.12888185290E+03 -0.13760985189E+04  0.14309233412E+04  0.74615765161E+02 0.  0.
         13    1    3    3    0    0 -0.33819196534E+03 -0.23574139085E+03 -0.35819983210E+03  0.54612720908E+03  0.00000000000E+00 0.  1.
        -13    1    3    3    0    0 -0.23619327708E+01 -0.23598259558E+02 -0.35778994380E+02  0.42925435577E+02  0.00000000000E+00 0. -1.
          4    1    6    6  502    0  0.17768513906E+03  0.66622225819E+02 -0.54277109713E+03  0.57498782030E+03  0.00000000000E+00 0. -1.
          3    1    5    5  503    0 -0.36430527837E+02  0.18522763772E+02  0.19912476188E+02  0.45461883421E+02  0.00000000000E+00 0. -1.
         -4    1    5    5    0  503  0.14056843096E+02  0.11193503374E+03  0.90106901274E+02  0.14438247911E+03  0.00000000000E+00 0.  1.
         -3    1    6    6    0  502  0.18524244380E+03  0.62259627078E+02 -0.83332742174E+03  0.85593552092E+03  0.00000000000E+00 0.  1.
<mgrwt>
<rscale>  0 0.14585998E+04</rscale>
<asrwt>0</asrwt>
<pdfrwt beam="1">  1        1 0.29768296E+00 0.14585998E+04</pdfrwt>
<pdfrwt beam="2">  1       -1 0.42289412E-01 0.14585998E+04</pdfrwt>
<totfact> 0.17611888E+01</totfact>
</mgrwt>
</event>
<event>
12    1  0.1114484E-007  0.1301701E+04  0.7818608E-02  0.9028218E-01
         -2   -1    0    0    0  501 -0.00000000000E+00  0.00000000000E+00  0.27082027070E+03  0.27082027070E+03  0.00000000000E+00 0.  1.
          2   -1    0    0  501    0  0.00000000000E+00 -0.00000000000E+00 -0.15641594790E+04  0.15641594790E+04  0.00000000000E+00 0. -1.
         23    2    1    2    0    0 -0.11461918519E+03 -0.29890365705E+03 -0.48329264161E+03  0.58698602546E+03  0.92194700677E+02 0.  0.
        254    2    1    2    0    0  0.11461918519E+03  0.29890365705E+03 -0.81004656665E+03  0.12479937242E+04  0.89377398805E+03 0.  0.
        -24    2    4    4    0    0  0.18678766237E+03  0.16945455158E+03  0.12826081734E+03  0.29473520291E+03  0.82544089470E+02 0.  0.
         24    2    4    4    0    0 -0.72168477178E+02  0.12944910547E+03 -0.93830738400E+03  0.95325852130E+03  0.79471388306E+02 0.  0.
         11    1    3    3    0    0 -0.30870560219E+02 -0.49217713764E+02 -0.15866224178E+03  0.16896473538E+03  0.00000000000E+00 0.  1.
        -11    1    3    3    0    0 -0.83748624975E+02 -0.24968594329E+03 -0.32463039983E+03  0.41802129007E+03  0.00000000000E+00 0. -1.
          4    1    6    6  502    0 -0.72767200632E+01  0.70854524073E+02 -0.26922138080E+03  0.27848422957E+03  0.00000000000E+00 0. -1.
          1    1    5    5  503    0  0.67118132441E+02  0.45036594479E+02  0.83894822534E+02  0.11649669434E+03  0.00000000000E+00 0. -1.
         -2    1    5    5    0  503  0.11966952993E+03  0.12441795710E+03  0.44365994809E+02  0.17823850857E+03  0.00000000000E+00 0.  1.
         -3    1    6    6    0  502 -0.64891757115E+02  0.58594581401E+02 -0.66908600320E+03  0.67477429173E+03  0.00000000000E+00 0.  1.
<mgrwt>
<rscale>  0 0.13017006E+04</rscale>
<asrwt>0</asrwt>
<pdfrwt beam="1">  1        2 0.24063992E+00 0.13017006E+04</pdfrwt>
<pdfrwt beam="2">  1       -2 0.41664657E-01 0.13017006E+04</pdfrwt>
<totfact> 0.62461005E+01</totfact>
</mgrwt>
</event>
<event>
12    1  0.1114484E-007  0.1320325E+04  0.7818608E-02  0.9013601E-01
         -2   -1    0    0    0  501 -0.00000000000E+00  0.00000000000E+00  0.49435187387E+03  0.49435187387E+03  0.00000000000E+00 0.  1.
          2   -1    0    0  501    0  0.00000000000E+00 -0.00000000000E+00 -0.88158729657E+03  0.88158729657E+03  0.00000000000E+00 0. -1.
         23    2    1    2    0    0 -0.28608102913E+03 -0.96314602303E+02  0.72495379493E+02  0.32309166673E+03  0.89519758819E+02 0.  0.
        254    2    1    2    0    0  0.28608102913E+03  0.96314602303E+02 -0.45973080220E+03  0.10528475037E+04  0.89778427126E+03 0.  0.
        -24    2    4    4    0    0  0.37141177801E+03  0.29841611792E+03  0.56548193525E+02  0.48621051403E+03  0.78765966530E+02 0.  0.
         24    2    4    4    0    0 -0.85330748880E+02 -0.20210151561E+03 -0.51627899572E+03  0.56663698968E+03  0.80044470946E+02 0.  0.
         13    1    3    3    0    0 -0.36905238980E+02  0.17029420813E+02  0.35505384759E+01  0.40799560792E+02  0.00000000000E+00 0. -1.
        -13    1    3    3    0    0 -0.24917579015E+03 -0.11334402312E+03  0.68944841017E+02  0.28229210594E+03  0.00000000000E+00 0.  1.
          4    1    6    6  502    0 -0.41938189793E+02 -0.61744631731E+02 -0.26750074638E+03  0.27771903180E+03  0.00000000000E+00 0. -1.
          1    1    5    5  503    0  0.88400806040E+02  0.32066557652E+02  0.17090021171E+02  0.95577379394E+02  0.00000000000E+00 0. -1.
         -2    1    5    5    0  503  0.28301097197E+03  0.26634956027E+03  0.39458172354E+02  0.39063313464E+03  0.00000000000E+00 0.  1.
         -3    1    6    6    0  502 -0.43392559087E+02 -0.14035688388E+03 -0.24877824934E+03  0.28891795787E+03  0.00000000000E+00 0.  1.
<mgrwt>
<rscale>  0 0.13203247E+04</rscale>
<asrwt>0</asrwt>
<pdfrwt beam="1">  1        2 0.13562881E+00 0.13203247E+04</pdfrwt>
<pdfrwt beam="2">  1       -2 0.76054135E-01 0.13203247E+04</pdfrwt>
<totfact> 0.45747110E+01</totfact>
</mgrwt>
</event>
<event>
12    1  0.1114484E-007  0.2958189E+04  0.7818608E-02  0.8255772E-01
         -1   -1    0    0    0  501 -0.00000000000E+00  0.00000000000E+00  0.18274023745E+04  0.18274023745E+04  0.00000000000E+00 0.  1.
          1   -1    0    0  501    0  0.00000000000E+00 -0.00000000000E+00 -0.11971750948E+04  0.11971750948E+04  0.00000000000E+00 0. -1.
         23    2    1    2    0    0  0.87919077339E+03 -0.33992034547E+03 -0.69369429375E+03  0.11739149103E+04  0.91335568577E+02 0.  0.
        254    2    1    2    0    0 -0.87919077339E+03  0.33992034547E+03  0.13239215734E+04  0.18506625591E+04  0.88524647285E+03 0.  0.
        -24    2    4    4    0    0  0.13741090637E+03  0.16329373224E+01  0.16983838780E+02  0.15880931248E+03  0.77765823321E+02 0.  0.
         24    2    4    4    0    0 -0.10166016798E+04  0.33828740815E+03  0.13069377346E+04  0.16918532466E+04  0.79773554463E+02 0.  0.
         11    1    3    3    0    0  0.62126552810E+03 -0.23117577992E+03 -0.53719146171E+03  0.85322198997E+03  0.00000000000E+00 0.  1.
        -11    1    3    3    0    0  0.25792524529E+03 -0.10874456555E+03 -0.15650283204E+03  0.32069292030E+03  0.00000000000E+00 0. -1.
          2    1    6    6  502    0 -0.23746405726E+03  0.77926351716E+02  0.35994338607E+03  0.43820193514E+03  0.00000000000E+00 0. -1.
          3    1    5    5  503    0  0.10522204825E+03  0.18454484319E+02 -0.18055343936E+02  0.10834317179E+03  0.00000000000E+00 0. -1.
         -4    1    5    5    0  503  0.32188858118E+02 -0.16821546996E+02  0.35039182716E+02  0.50466140685E+02  0.00000000000E+00 0.  1.
         -1    1    6    6    0  502 -0.77913762249E+03  0.26036105643E+03  0.94699434855E+03  0.12536513114E+04  0.00000000000E+00 0.  1.
<mgrwt>
<rscale>  0 0.29581890E+04</rscale>
<asrwt>0</asrwt>
<pdfrwt beam="1">  1        1 0.18418078E+00 0.29581890E+04</pdfrwt>
<pdfrwt beam="2">  1       -1 0.28113883E+00 0.29581890E+04</pdfrwt>
<totfact> 0.40123745E-01</totfact>
</mgrwt>
</event>
<event>
12    1  0.1114484E-007  0.2032878E+04  0.7818608E-02  0.8591402E-01
          1   -1    0    0  501    0  0.00000000000E+00  0.00000000000E+00  0.47350676429E+03  0.47350676429E+03  0.00000000000E+00 0. -1.
         -1   -1    0    0    0  501 -0.00000000000E+00 -0.00000000000E+00 -0.21819072305E+04  0.21819072305E+04  0.00000000000E+00 0.  1.
         23    2    1    2    0    0  0.52557612901E+03 -0.19549504071E+03  0.75479410050E+02  0.57381485795E+03  0.95487022849E+02 0.  0.
        254    2    1    2    0    0 -0.52557612901E+03  0.19549504071E+03 -0.17838798763E+04  0.20815991369E+04  0.91453757453E+03 0.  0.
        -24    2    4    4    0    0 -0.21021409588E+03  0.37006337244E+03 -0.16221655542E+04  0.16786047043E+04  0.71803915651E+02 0.  0.
         24    2    4    4    0    0 -0.31536203313E+03 -0.17456833173E+03 -0.16171432204E+03  0.40299443253E+03  0.79534120433E+02 0.  0.
         13    1    3    3    0    0  0.11151739482E+03 -0.23036167499E+02  0.50540016860E+02  0.12458365730E+03  0.00000000000E+00 0.  1.
        -13    1    3    3    0    0  0.41405873419E+03 -0.17245887321E+03  0.24939393191E+02  0.44923120065E+03  0.00000000000E+00 0. -1.
          2    1    6    6  502    0 -0.25219535827E+03 -0.17121691429E+03 -0.12216705584E+03  0.32839384891E+03  0.00000000000E+00 0. -1.
          1    1    5    5  503    0 -0.12875527226E+03  0.15924679631E+03 -0.82302301453E+03  0.84811811955E+03  0.00000000000E+00 0. -1.
         -2    1    5    5    0  503 -0.81458823623E+02  0.21081657613E+03 -0.79914253971E+03  0.83048658477E+03  0.00000000000E+00 0.  1.
         -1    1    6    6    0  502 -0.63166674858E+02 -0.33514174410E+01 -0.39547266203E+02  0.74600583614E+02  0.00000000000E+00 0.  1.
<mgrwt>
<rscale>  0 0.20328776E+04</rscale>
<asrwt>0</asrwt>
<pdfrwt beam="1">  1        1 0.72847196E-01 0.20328776E+04</pdfrwt>
<pdfrwt beam="2">  1       -1 0.33567803E+00 0.20328776E+04</pdfrwt>
<totfact> 0.85475762E-01</totfact>
</mgrwt>
</event>
<event>
12    1  0.1114484E-007  0.1884052E+04  0.7818608E-02  0.8662835E-01
          1   -1    0    0  501    0  0.00000000000E+00  0.00000000000E+00  0.10316058215E+04  0.10316058215E+04  0.00000000000E+00 0. -1.
         -1   -1    0    0    0  501 -0.00000000000E+00 -0.00000000000E+00 -0.86022526068E+03  0.86022526068E+03  0.00000000000E+00 0.  1.
         23    2    1    2    0    0  0.34384982571E+03  0.45485249664E+02 -0.56975800722E+03  0.67319307687E+03  0.90901712759E+02 0.  0.
        254    2    1    2    0    0 -0.34384982571E+03 -0.45485249664E+02  0.74113856805E+03  0.12186380053E+04  0.90304518180E+03 0.  0.
        -24    2    4    4    0    0  0.96962471993E+02  0.33605126438E+03  0.40582834488E+03  0.54155404936E+03  0.79069397448E+02 0.  0.
         24    2    4    4    0    0 -0.44081229770E+03 -0.38153651404E+03  0.33531022318E+03  0.67708395595E+03  0.78256912098E+02 0.  0.
         11    1    3    3    0    0  0.23953472435E+03  0.55199487949E+02 -0.32952219181E+03  0.41110672889E+03  0.00000000000E+00 0. -1.
        -11    1    3    3    0    0  0.10431510136E+03 -0.97142382846E+01 -0.24023581541E+03  0.26208634799E+03  0.00000000000E+00 0.  1.
          4    1    6    6  502    0 -0.14658076286E+03 -0.94475409041E+02  0.70474520514E+02  0.18809088493E+03  0.00000000000E+00 0. -1.
          3    1    5    5  503    0 -0.93124904312E+00 -0.18573270017E+01 -0.20485955234E+01  0.29178128778E+01  0.00000000000E+00 0. -1.
         -4    1    5    5    0  503  0.97893721036E+02  0.33790859138E+03  0.40787694040E+03  0.53863623649E+03  0.00000000000E+00 0.  1.
         -3    1    6    6    0  502 -0.29423153484E+03 -0.28706110500E+03  0.26483570266E+03  0.48899307102E+03  0.00000000000E+00 0.  1.
<mgrwt>
<rscale>  0 0.18840524E+04</rscale>
<asrwt>0</asrwt>
<pdfrwt beam="1">  1        1 0.15870859E+00 0.18840524E+04</pdfrwt>
<pdfrwt beam="2">  1       -1 0.13234235E+00 0.18840524E+04</pdfrwt>
<totfact> 0.64933578E+00</totfact>
</mgrwt>
</event>
<event>
12    1  0.1114484E-007  0.3073489E+04  0.7818608E-02  0.8223052E-01
          2   -1    0    0  501    0  0.00000000000E+00  0.00000000000E+00  0.28367161088E+04  0.28367161088E+04  0.00000000000E+00 0.  1.
         -2   -1    0    0    0  501 -0.00000000000E+00 -0.00000000000E+00 -0.83250608488E+03  0.83250608488E+03  0.00000000000E+00 0. -1.
         23    2    1    2    0    0  0.15639406588E+03  0.16559688543E+03  0.25680566059E+04  0.25797096482E+04  0.90031690074E+02 0.  0.
        254    2    1    2    0    0 -0.15639406588E+03 -0.16559688543E+03 -0.56384658204E+03  0.10895125455E+04  0.90400950570E+03 0.  0.
        -24    2    4    4    0    0 -0.23180628632E+03 -0.97011758031E+02 -0.78791434618E+03  0.83076191998E+03  0.78809359898E+02 0.  0.
         24    2    4    4    0    0  0.75412220436E+02 -0.68585127396E+02  0.22406776413E+03  0.25875062551E+03  0.79715748674E+02 0.  0.
         11    1    3    3    0    0  0.15542451005E+03  0.17123880131E+03  0.25551101870E+04  0.25655540480E+04  0.00000000000E+00 0.  1.
        -11    1    3    3    0    0  0.96955583525E+00 -0.56419158791E+01  0.12946418975E+02  0.14155600219E+02  0.00000000000E+00 0. -1.
          2    1    6    6  502    0  0.36951560614E+02 -0.77484846613E+02  0.18101191768E+03  0.20033630132E+03  0.00000000000E+00 0. -1.
          3    1    5    5  503    0 -0.14514142440E+03 -0.24139450544E+02 -0.50599717464E+03  0.52695529876E+03  0.00000000000E+00 0. -1.
         -4    1    5    5    0  503 -0.86664861920E+02 -0.72872307486E+02 -0.28191717154E+03  0.30380662122E+03  0.00000000000E+00 0.  1.
         -1    1    6    6    0  502  0.38460659823E+02  0.88997192174E+01  0.43055846457E+02  0.58414324187E+02  0.00000000000E+00 0.  1.
<mgrwt>
<rscale>  0 0.30734888E+04</rscale>
<asrwt>0</asrwt>
<pdfrwt beam="1">  1        2 0.43641786E+00 0.30734888E+04</pdfrwt>
<pdfrwt beam="2">  1       -2 0.12807786E+00 0.30734888E+04</pdfrwt>
<totfact> 0.84249449E-01</totfact>
</mgrwt>
</event>
<event>
12    1  0.1114484E-007  0.1710652E+04  0.7818608E-02  0.8755312E-01
         -1   -1    0    0    0  501 -0.00000000000E+00  0.00000000000E+00  0.75511087970E+03  0.75511087970E+03  0.00000000000E+00 0.  1.
          1   -1    0    0  501    0  0.00000000000E+00 -0.00000000000E+00 -0.96884161536E+03  0.96884161536E+03  0.00000000000E+00 0. -1.
         23    2    1    2    0    0  0.31474446025E+03 -0.48765677941E+03 -0.30676639740E+03  0.66358811450E+03  0.96800585554E+02 0.  0.
        254    2    1    2    0    0 -0.31474446025E+03  0.48765677941E+03  0.93035661740E+02  0.10603643806E+04  0.88252126062E+03 0.  0.
        -24    2    4    4    0    0 -0.32879339718E+03  0.70349078117E+03 -0.61693253651E+02  0.78304312562E+03  0.79662424133E+02 0.  0.
         24    2    4    4    0    0  0.14048936930E+02 -0.21583400176E+03  0.15472891539E+03  0.27732125494E+03  0.78640652576E+02 0.  0.
         11    1    3    3    0    0  0.11852582575E+03 -0.27032950349E+03 -0.16698851208E+03  0.33913356512E+03  0.00000000000E+00 0.  1.
        -11    1    3    3    0    0  0.19621863450E+03 -0.21732727592E+03 -0.13977788533E+03  0.32445454938E+03  0.00000000000E+00 0. -1.
          4    1    6    6  502    0  0.20654835753E+02 -0.13975702198E+03  0.54744759009E+02  0.15151117474E+03  0.00000000000E+00 0. -1.
          1    1    5    5  503    0 -0.26793257664E+02  0.22324395540E+02 -0.92886585692E+01  0.36090670130E+02  0.00000000000E+00 0. -1.
         -2    1    5    5    0  503 -0.30200013951E+03  0.68116638563E+03 -0.52404595082E+02  0.74695245549E+03  0.00000000000E+00 0.  1.
         -3    1    6    6    0  502 -0.66058988232E+01 -0.76076979784E+02  0.99984156383E+02  0.12581008020E+03  0.00000000000E+00 0.  1.
<mgrwt>
<rscale>  0 0.17106523E+04</rscale>
<asrwt>0</asrwt>
<pdfrwt beam="1">  1        1 0.14905256E+00 0.17106523E+04</pdfrwt>
<pdfrwt beam="2">  1       -1 0.11617090E+00 0.17106523E+04</pdfrwt>
<totfact> 0.10199487E+01</totfact>
</mgrwt>
</event>
<event>
12    1  0.1114484E-007  0.2560756E+04  0.7818608E-02  0.8381655E-01
          2   -1    0    0  501    0  0.00000000000E+00  0.00000000000E+00  0.35544394047E+04  0.35544394047E+04  0.00000000000E+00 0. -1.
         -2   -1    0    0    0  501 -0.00000000000E+00 -0.00000000000E+00 -0.46121688027E+03  0.46121688027E+03  0.00000000000E+00 0.  1.
         23    2    1    2    0    0  0.63056804955E+02  0.21197406478E+03  0.30887367933E+04  0.30979450676E+04  0.89774708361E+02 0.  0.
        254    2    1    2    0    0 -0.63056804955E+02 -0.21197406478E+03  0.44857310501E+01  0.91771121738E+03  0.89065402482E+03 0.  0.
        -24    2    4    4    0    0 -0.13168916144E+03 -0.91459808242E+02  0.42814113558E+03  0.46411457221E+03  0.79941055727E+02 0.  0.
         24    2    4    4    0    0  0.68632356489E+02 -0.12051425654E+03 -0.42365540453E+03  0.45359664517E+03  0.83856593871E+02 0.  0.
         11    1    3    3    0    0  0.81023728354E+01  0.16802872475E+03  0.22166416867E+04  0.22230158947E+04  0.00000000000E+00 0. -1.
        -11    1    3    3    0    0  0.54954432120E+02  0.43945340032E+02  0.87209510661E+03  0.87492917285E+03  0.00000000000E+00 0.  1.
          2    1    6    6  502    0 -0.88020536170E+01 -0.26979835049E+01 -0.26025347874E+01  0.95670502345E+01  0.00000000000E+00 0. -1.
          3    1    5    5  503    0 -0.94119113627E+01  0.13489474874E+02  0.24623729382E+02  0.29612126849E+02  0.00000000000E+00 0. -1.
         -4    1    5    5    0  503 -0.12227725008E+03 -0.10494928312E+03  0.40351740620E+03  0.43450244536E+03  0.00000000000E+00 0.  1.
         -1    1    6    6    0  502  0.77434410106E+02 -0.11781627304E+03 -0.42105286975E+03  0.44402959494E+03  0.00000000000E+00 0.  1.
<mgrwt>
<rscale>  0 0.25607557E+04</rscale>
<asrwt>0</asrwt>
<pdfrwt beam="1">  1        2 0.54683681E+00 0.25607557E+04</pdfrwt>
<pdfrwt beam="2">  1       -2 0.70956445E-01 0.25607557E+04</pdfrwt>
<totfact> 0.11929737E+00</totfact>
</mgrwt>
</event>
<event>
12    1  0.1114484E-007  0.1307343E+04  0.7818608E-02  0.9023762E-01
         -1   -1    0    0    0  501 -0.00000000000E+00  0.00000000000E+00  0.38507000380E+03  0.38507000380E+03  0.00000000000E+00 0.  1.
          1   -1    0    0  501    0  0.00000000000E+00 -0.00000000000E+00 -0.11096339635E+04  0.11096339635E+04  0.00000000000E+00 0. -1.
         23    2    1    2    0    0 -0.23577721305E+03 -0.22857144766E+03 -0.22987735893E+03  0.41074420326E+03  0.89618075685E+02 0.  0.
        254    2    1    2    0    0  0.23577721305E+03  0.22857144766E+03 -0.49468660082E+03  0.10839597641E+04  0.90687272329E+03 0.  0.
        -24    2    4    4    0    0  0.47835389333E+03  0.17194814952E+03  0.11948058500E+02  0.51409317269E+03  0.75897435540E+02 0.  0.
         24    2    4    4    0    0 -0.24257668027E+03  0.56623298132E+02 -0.50663465932E+03  0.56986659139E+03  0.77586147338E+02 0.  0.
         11    1    3    3    0    0 -0.19310521774E+03 -0.22595990986E+03 -0.20743958590E+03  0.36246198115E+03  0.00000000000E+00 0. -1.
        -11    1    3    3    0    0 -0.42671995312E+02 -0.26115377953E+01 -0.22437773025E+02  0.48282222110E+02  0.00000000000E+00 0.  1.
          2    1    6    6  502    0 -0.44971507286E+02 -0.15277077558E+02 -0.13152348023E+03  0.13983651676E+03  0.00000000000E+00 0. -1.
          3    1    5    5  503    0  0.23887878612E+03  0.46175897541E+02  0.12053007167E+02  0.24359918504E+03  0.00000000000E+00 0. -1.
         -4    1    5    5    0  503  0.23947510721E+03  0.12577225198E+03 -0.10494866707E+00  0.27049398765E+03  0.00000000000E+00 0.  1.
         -1    1    6    6    0  502 -0.19760517299E+03  0.71900375690E+02 -0.37511117909E+03  0.43003007464E+03  0.00000000000E+00 0.  1.
<mgrwt>
<rscale>  0 0.13073435E+04</rscale>
<asrwt>0</asrwt>
<pdfrwt beam="1">  1        1 0.17071291E+00 0.13073435E+04</pdfrwt>
<pdfrwt beam="2">  1       -1 0.59241540E-01 0.13073435E+04</pdfrwt>
<totfact> 0.35364136E+01</totfact>
</mgrwt>
</event>
<event>
12    1  0.1114484E-007  0.1363525E+04  0.7818608E-02  0.8980653E-01
          2   -1    0    0  501    0  0.00000000000E+00  0.00000000000E+00  0.17177821694E+04  0.17177821694E+04  0.00000000000E+00 0. -1.
         -2   -1    0    0    0  501 -0.00000000000E+00 -0.00000000000E+00 -0.27058147196E+03  0.27058147196E+03  0.00000000000E+00 0.  1.
         23    2    1    2    0    0  0.20542549101E+03  0.25047355856E+03  0.69201714878E+03  0.76950446798E+03  0.91174317342E+02 0.  0.
        254    2    1    2    0    0 -0.20542549101E+03 -0.25047355856E+03  0.75518354866E+03  0.12188591734E+04  0.90021045122E+03 0.  0.
        -24    2    4    4    0    0 -0.25752927951E+03 -0.25038305228E+02  0.89656919590E+03  0.93659304060E+03  0.80137095818E+02 0.  0.
         24    2    4    4    0    0  0.52103788495E+02 -0.22543525333E+03 -0.14138564724E+03  0.28226613279E+03  0.78411799222E+02 0.  0.
         11    1    3    3    0    0  0.20002178180E+03  0.19964251276E+03  0.61800353964E+03  0.67955442836E+03  0.00000000000E+00 0. -1.
        -11    1    3    3    0    0  0.54037092113E+01  0.50831045793E+02  0.74013609141E+02  0.89950039620E+02  0.00000000000E+00 0.  1.
          4    1    6    6  502    0  0.36753019298E+01 -0.10863003920E+03 -0.10394038820E+03  0.15039148101E+03  0.00000000000E+00 0. -1.
          1    1    5    5  503    0 -0.89320123223E+01 -0.12473051318E+02  0.12324319690E+03  0.12419437764E+03  0.00000000000E+00 0. -1.
         -2    1    5    5    0  503 -0.24859726719E+03 -0.12565253910E+02  0.77332599899E+03  0.81239866296E+03  0.00000000000E+00 0.  1.
         -3    1    6    6    0  502  0.48428486566E+02 -0.11680521413E+03 -0.37445259040E+02  0.13187465178E+03  0.00000000000E+00 0.  1.
<mgrwt>
<rscale>  0 0.13635249E+04</rscale>
<asrwt>0</asrwt>
<pdfrwt beam="1">  1        2 0.26427417E+00 0.13635249E+04</pdfrwt>
<pdfrwt beam="2">  1       -2 0.41627920E-01 0.13635249E+04</pdfrwt>
<totfact> 0.51142607E+01</totfact>
</mgrwt>
</event>
<event>
12    1  0.1114484E-007  0.1753480E+04  0.7818608E-02  0.8731437E-01
         -2   -1    0    0    0  501 -0.00000000000E+00  0.00000000000E+00  0.59439241067E+03  0.59439241067E+03  0.00000000000E+00 0. -1.
          2   -1    0    0  501    0  0.00000000000E+00 -0.00000000000E+00 -0.12932075667E+04  0.12932075667E+04  0.00000000000E+00 0.  1.
         23    2    1    2    0    0  0.28482239777E+03 -0.47785929980E+03  0.75216512687E+02  0.56861497282E+03  0.90510523487E+02 0.  0.
        254    2    1    2    0    0 -0.28482239777E+03  0.47785929980E+03 -0.77403166875E+03  0.13189850046E+04  0.91165953589E+03 0.  0.
        -24    2    4    4    0    0  0.17273130726E+03 -0.18036805191E+03 -0.18710193982E+03  0.32224989492E+03  0.80430841353E+02 0.  0.
         24    2    4    4    0    0 -0.45755370503E+03  0.65822735170E+03 -0.58692972894E+03  0.99673510965E+03  0.79848184613E+02 0.  0.
         13    1    3    3    0    0  0.23229332476E+02 -0.88847550999E+01 -0.58025744591E+01  0.25538414806E+02  0.00000000000E+00 0.  1.
        -13    1    3    3    0    0  0.26159306530E+03 -0.46897454470E+03  0.81019087147E+02  0.54307655802E+03  0.00000000000E+00 0. -1.
          4    1    6    6  502    0 -0.76009942144E+02  0.75463257736E+02 -0.55708830099E+02  0.12072981539E+03  0.00000000000E+00 0. -1.
          1    1    5    5  503    0  0.81768937498E+01 -0.54701223461E+02 -0.40550473396E+02  0.68581530547E+02  0.00000000000E+00 0. -1.
         -2    1    5    5    0  503  0.16455441351E+03 -0.12566682844E+03 -0.14655146642E+03  0.25366836438E+03  0.00000000000E+00 0.  1.
         -3    1    6    6    0  502 -0.38154376288E+03  0.58276409397E+03 -0.53122089884E+03  0.87600529426E+03  0.00000000000E+00 0.  1.
<mgrwt>
<rscale>  0 0.17534797E+04</rscale>
<asrwt>0</asrwt>
<pdfrwt beam="1">  1        2 0.19895501E+00 0.17534797E+04</pdfrwt>
<pdfrwt beam="2">  1       -2 0.91444987E-01 0.17534797E+04</pdfrwt>
<totfact> 0.16103981E+01</totfact>
</mgrwt>
</event>
<event>
12    1  0.1114484E-007  0.2091674E+04  0.7818608E-02  0.8564920E-01
          1   -1    0    0  501    0  0.00000000000E+00  0.00000000000E+00  0.27416167953E+04  0.27416167953E+04  0.00000000000E+00 0. -1.
         -1   -1    0    0    0  501 -0.00000000000E+00 -0.00000000000E+00 -0.39895240531E+03  0.39895240531E+03  0.00000000000E+00 0.  1.
         23    2    1    2    0    0 -0.32808189296E+03 -0.76604128276E+03  0.12204089229E+04  0.14806152507E+04  0.91469154277E+02 0.  0.
        254    2    1    2    0    0  0.32808189296E+03  0.76604128276E+03  0.11222554670E+04  0.16599539498E+04  0.89528364605E+03 0.  0.
        -24    2    4    4    0    0  0.48879711989E+03  0.80803567162E+03  0.64004937949E+03  0.11437293917E+04  0.81298476837E+02 0.  0.
         24    2    4    4    0    0 -0.16071522693E+03 -0.41994388859E+02  0.48220608755E+03  0.51622455809E+03  0.79825876981E+02 0.  0.
         13    1    3    3    0    0 -0.20914379980E+03 -0.51671921950E+03  0.74025824286E+03  0.92667262122E+03  0.00000000000E+00 0. -1.
        -13    1    3    3    0    0 -0.11893809316E+03 -0.24932206327E+03  0.48015068005E+03  0.55394262951E+03  0.00000000000E+00 0.  1.
          4    1    6    6  502    0 -0.39231801201E+02 -0.33461220575E+02  0.73664347123E+02  0.89917871109E+02  0.00000000000E+00 0. -1.
          3    1    5    5  503    0  0.14116871908E+02  0.14880457172E+02  0.21171589400E+01  0.20620291950E+02  0.00000000000E+00 0. -1.
         -4    1    5    5    0  503  0.47468024798E+03  0.79315521445E+03  0.63793222055E+03  0.11231090998E+04  0.00000000000E+00 0.  1.
         -3    1    6    6    0  502 -0.12148342573E+03 -0.85331682840E+01  0.40854174043E+03  0.42630668698E+03  0.00000000000E+00 0.  1.
<mgrwt>
<rscale>  0 0.20916736E+04</rscale>
<asrwt>0</asrwt>
<pdfrwt beam="1">  1        1 0.42178719E+00 0.20916736E+04</pdfrwt>
<pdfrwt beam="2">  1       -1 0.61377295E-01 0.20916736E+04</pdfrwt>
<totfact> 0.22738554E+00</totfact>
</mgrwt>
</event>
<event>
12    1  0.1114484E-007  0.1430302E+04  0.7818608E-02  0.8932172E-01
         -1   -1    0    0    0  501 -0.00000000000E+00  0.00000000000E+00  0.25341134428E+03  0.25341134428E+03  0.00000000000E+00 0.  1.
          1   -1    0    0  501    0  0.00000000000E+00 -0.00000000000E+00 -0.20182245145E+04  0.20182245145E+04  0.00000000000E+00 0. -1.
         23    2    1    2    0    0  0.37067973400E+03  0.18232829759E+03 -0.29625769834E+03  0.51633995726E+03  0.90505548609E+02 0.  0.
        254    2    1    2    0    0 -0.37067973400E+03 -0.18232829759E+03 -0.14685554719E+04  0.17552959016E+04  0.86819436456E+03 0.  0.
        -24    2    4    4    0    0 -0.23731461552E+03 -0.52659155561E+03 -0.94218943907E+03  0.11079914514E+04  0.79418033813E+02 0.  0.
         24    2    4    4    0    0 -0.13336511848E+03  0.34426325802E+03 -0.52636603284E+03  0.64730445016E+03  0.75089313657E+02 0.  0.
         13    1    3    3    0    0  0.72969513056E+02  0.58944153703E+02 -0.30522802799E+02  0.98643826882E+02  0.00000000000E+00 0. -1.
        -13    1    3    3    0    0  0.29771022094E+03  0.12338414389E+03 -0.26573489555E+03  0.41769613037E+03  0.00000000000E+00 0.  1.
          4    1    6    6  502    0 -0.48280833338E+02  0.19739533693E+03 -0.33202931660E+03  0.38928065068E+03  0.00000000000E+00 0. -1.
          1    1    5    5  503    0 -0.16070820950E+03 -0.28308738566E+03 -0.47951847612E+03  0.57957188118E+03  0.00000000000E+00 0. -1.
         -2    1    5    5    0  503 -0.76606406027E+02 -0.24350416995E+03 -0.46267096295E+03  0.52841957021E+03  0.00000000000E+00 0.  1.
         -3    1    6    6    0  502 -0.85084285138E+02  0.14686792109E+03 -0.19433671624E+03  0.25802379948E+03  0.00000000000E+00 0.  1.
<mgrwt>
<rscale>  0 0.14303020E+04</rscale>
<asrwt>0</asrwt>
<pdfrwt beam="1">  1        1 0.31049609E+00 0.14303020E+04</pdfrwt>
<pdfrwt beam="2">  1       -1 0.38986360E-01 0.14303020E+04</pdfrwt>
<totfact> 0.18001186E+01</totfact>
</mgrwt>
</event>
<event>
12    1  0.1290146E-007  0.2344535E+04  0.7818608E-02  0.8460566E-01
         -1   -1    0    0    0  501 -0.00000000000E+00  0.00000000000E+00  0.47870230991E+03  0.47870230991E+03  0.00000000000E+00 0.  1.
          1   -1    0    0  501    0  0.00000000000E+00 -0.00000000000E+00 -0.28707000162E+04  0.28707000162E+04  0.00000000000E+00 0. -1.
         23    2    1    2    0    0 -0.54428660804E+03  0.55568800584E+03 -0.12906417588E+03  0.79387668686E+03  0.92442203118E+02 0.  0.
        254    2    1    2    0    0  0.54428660804E+03 -0.55568800584E+03 -0.22629335304E+04  0.25555256392E+04  0.89710983625E+03 0.  0.
        -24    2    4    4    0    0  0.44848009659E+03 -0.60396969197E+03 -0.22960247596E+04  0.24174349052E+04  0.79674577403E+02 0.  0.
         24    2    4    4    0    0  0.95806511451E+02  0.48281686125E+02  0.33091229194E+02  0.13809073406E+03  0.80399082911E+02 0.  0.
         13    1    3    3    0    0 -0.10972323523E+03  0.11118872754E+03  0.11217000618E+02  0.15661399230E+03  0.00000000000E+00 0. -1.
        -13    1    3    3    0    0 -0.43456337280E+03  0.44449927831E+03 -0.14028117650E+03  0.63726269456E+03  0.00000000000E+00 0.  1.
          2    1    6    6  502    0 -0.98363018647E+01 -0.93794275802E+01  0.16054667180E+01  0.13685905870E+02  0.00000000000E+00 0. -1.
          3    1    5    5  503    0  0.61211941300E+02 -0.60836400320E+02 -0.20005804287E+03  0.21787884220E+03  0.00000000000E+00 0. -1.
         -4    1    5    5    0  503  0.38726815529E+03 -0.54313329165E+03 -0.20959667167E+04  0.21995560629E+04  0.00000000000E+00 0.  1.
         -1    1    6    6    0  502  0.10564281332E+03  0.57661113705E+02  0.31485762476E+02  0.12440482819E+03  0.00000000000E+00 0.  1.
<mgrwt>
<rscale>  0 0.23445347E+04</rscale>
<asrwt>0</asrwt>
<pdfrwt beam="1">  1        1 0.44164618E+00 0.23445347E+04</pdfrwt>
<pdfrwt beam="2">  1       -1 0.73646506E-01 0.23445347E+04</pdfrwt>
<totfact> 0.12405505E+00</totfact>
</mgrwt>
</event>
<event>
12    1  0.1114484E-007  0.1602391E+04  0.7818608E-02  0.8819080E-01
          2   -1    0    0  501    0  0.00000000000E+00  0.00000000000E+00  0.44292101211E+03  0.44292101211E+03  0.00000000000E+00 0.  1.
         -2   -1    0    0    0  501 -0.00000000000E+00 -0.00000000000E+00 -0.14492753453E+04  0.14492753453E+04  0.00000000000E+00 0. -1.
         23    2    1    2    0    0  0.47502336347E+03 -0.26975265021E+03 -0.35838203040E+03  0.65962612133E+03  0.90858417829E+02 0.  0.
        254    2    1    2    0    0 -0.47502336347E+03  0.26975265021E+03 -0.64797230281E+03  0.12325702361E+04  0.89495675514E+03 0.  0.
        -24    2    4    4    0    0 -0.72904577659E+03  0.13858254954E+03 -0.40947594365E+03  0.85177756547E+03  0.84508018594E+02 0.  0.
         24    2    4    4    0    0  0.25402241313E+03  0.13117010067E+03 -0.23849635916E+03  0.38079267062E+03  0.79934742070E+02 0.  0.
         13    1    3    3    0    0  0.32563542120E+02 -0.12523891312E+02 -0.53587490334E+02  0.63944125995E+02  0.00000000000E+00 0.  1.
        -13    1    3    3    0    0  0.44245982135E+03 -0.25722875889E+03 -0.30479454007E+03  0.59568199533E+03  0.00000000000E+00 0. -1.
          2    1    6    6  502    0  0.19184790155E+03  0.10016061922E+03 -0.13156817663E+03  0.25327445997E+03  0.00000000000E+00 0. -1.
          1    1    5    5  503    0 -0.39600596367E+03  0.11372167898E+03 -0.20510270153E+03  0.46023956990E+03  0.00000000000E+00 0. -1.
         -2    1    5    5    0  503 -0.33303981293E+03  0.24860870559E+02 -0.20437324211E+03  0.39153799557E+03  0.00000000000E+00 0.  1.
         -1    1    6    6    0  502  0.62174511581E+02  0.31009481446E+02 -0.10692818253E+03  0.12751821066E+03  0.00000000000E+00 0.  1.
<mgrwt>
<rscale>  0 0.16023913E+04</rscale>
<asrwt>0</asrwt>
<pdfrwt beam="1">  1        2 0.68141691E-01 0.16023913E+04</pdfrwt>
<pdfrwt beam="2">  1       -2 0.22296545E+00 0.16023913E+04</pdfrwt>
<totfact> 0.64233916E+00</totfact>
</mgrwt>
</event>
<event>
12    1  0.1114484E-007  0.1388360E+04  0.7818608E-02  0.8962287E-01
          1   -1    0    0  501    0  0.00000000000E+00  0.00000000000E+00  0.36138707632E+03  0.36138707632E+03  0.00000000000E+00 0. -1.
         -1   -1    0    0    0  501 -0.00000000000E+00 -0.00000000000E+00 -0.13334347547E+04  0.13334347547E+04  0.00000000000E+00 0.  1.
         23    2    1    2    0    0  0.34896492107E+03 -0.14979889259E+03 -0.53155705282E+03  0.65974189618E+03  0.92142524466E+02 0.  0.
        254    2    1    2    0    0 -0.34896492107E+03  0.14979889259E+03 -0.44049062561E+03  0.10350799349E+04  0.85623726617E+03 0.  0.
        -24    2    4    4    0    0  0.27493374729E+03  0.56083937560E+02 -0.20608194123E+03  0.35710126193E+03  0.79483151194E+02 0.  0.
         24    2    4    4    0    0 -0.62389866836E+03  0.93714955028E+02 -0.23440868438E+03  0.67797867294E+03  0.81704396956E+02 0.  0.
         13    1    3    3    0    0  0.14690333224E+03 -0.10962165979E+03 -0.27885552021E+03  0.33370330905E+03  0.00000000000E+00 0.  1.
        -13    1    3    3    0    0  0.20206158883E+03 -0.40177232799E+02 -0.25270153261E+03  0.32603858713E+03  0.00000000000E+00 0. -1.
          2    1    6    6  502    0 -0.46040572990E+03  0.63766531290E+02 -0.13374941888E+03  0.48366156937E+03  0.00000000000E+00 0. -1.
          3    1    5    5  503    0  0.25825796345E+03  0.44787055688E+02 -0.16070782588E+03  0.30745741387E+03  0.00000000000E+00 0. -1.
         -4    1    5    5    0  503  0.16675783830E+02  0.11296881872E+02 -0.45374115354E+02  0.49643848063E+02  0.00000000000E+00 0.  1.
         -1    1    6    6    0  502 -0.16349293846E+03  0.29948423738E+02 -0.10065926550E+03  0.19431710357E+03  0.00000000000E+00 0.  1.
<mgrwt>
<rscale>  0 0.13883603E+04</rscale>
<asrwt>0</asrwt>
<pdfrwt beam="1">  1        1 0.55598012E-01 0.13883603E+04</pdfrwt>
<pdfrwt beam="2">  1       -1 0.20514381E+00 0.13883603E+04</pdfrwt>
<totfact> 0.92958185E+00</totfact>
</mgrwt>
</event>
<event>
12    1  0.1114484E-007  0.1798824E+04  0.7818608E-02  0.8706925E-01
         -2   -1    0    0    0  501 -0.00000000000E+00  0.00000000000E+00  0.40333216584E+03  0.40333216584E+03  0.00000000000E+00 0.  1.
          2   -1    0    0  501    0  0.00000000000E+00 -0.00000000000E+00 -0.20056473471E+04  0.20056473471E+04  0.00000000000E+00 0. -1.
         23    2    1    2    0    0 -0.56306911506E+03  0.36100554659E+03 -0.57718948818E+03  0.88896098520E+03  0.98651380813E+02 0.  0.
        254    2    1    2    0    0  0.56306911506E+03 -0.36100554659E+03 -0.10251256931E+04  0.15200185278E+04  0.90122239492E+03 0.  0.
        -24    2    4    4    0    0  0.43233024985E+03  0.10481922445E+03 -0.84708416603E+02  0.45974300190E+03  0.79319589002E+02 0.  0.
         24    2    4    4    0    0  0.13073886521E+03 -0.46582477104E+03 -0.94041727651E+03  0.10602755259E+04  0.75592120202E+02 0.  0.
         13    1    3    3    0    0 -0.26686117608E+03  0.18913672932E+03 -0.22041081604E+03  0.39442175080E+03  0.00000000000E+00 0. -1.
        -13    1    3    3    0    0 -0.29620793898E+03  0.17186881727E+03 -0.35677867214E+03  0.49453923440E+03  0.00000000000E+00 0.  1.
          4    1    6    6  502    0  0.99009311832E+02 -0.29604060588E+03 -0.67384311496E+03  0.74263546086E+03  0.00000000000E+00 0. -1.
          3    1    5    5  503    0  0.19581271413E+03  0.72006618140E+02 -0.74237827148E+01  0.20876466325E+03  0.00000000000E+00 0. -1.
         -4    1    5    5    0  503  0.23651753572E+03  0.32812606312E+02 -0.77284633888E+02  0.25097833865E+03  0.00000000000E+00 0.  1.
         -3    1    6    6    0  502  0.31729553382E+02 -0.16978416516E+03 -0.26657416156E+03  0.31764006502E+03  0.00000000000E+00 0.  1.
<mgrwt>
<rscale>  0 0.17988242E+04</rscale>
<asrwt>0</asrwt>
<pdfrwt beam="1">  1        2 0.30856114E+00 0.17988242E+04</pdfrwt>
<pdfrwt beam="2">  1       -2 0.62051101E-01 0.17988242E+04</pdfrwt>
<totfact> 0.15102000E+01</totfact>
</mgrwt>
</event>
<event>
12    1  0.1114484E-007  0.1419164E+04  0.7818608E-02  0.8940062E-01
          1   -1    0    0  501    0  0.00000000000E+00  0.00000000000E+00  0.20041369165E+03  0.20041369165E+03  0.00000000000E+00 0. -1.
         -1   -1    0    0    0  501 -0.00000000000E+00 -0.00000000000E+00 -0.25123363991E+04  0.25123363991E+04  0.00000000000E+00 0.  1.
         23    2    1    2    0    0 -0.70744108167E+02  0.15327952649E+03  0.31146914464E+02  0.19400772913E+03  0.90385433564E+02 0.  0.
        254    2    1    2    0    0  0.70744108167E+02 -0.15327952649E+03 -0.23430696219E+04  0.25187423616E+04  0.90861900099E+03 0.  0.
        -24    2    4    4    0    0 -0.42947285717E+02  0.10631017538E+03 -0.21756117550E+04  0.21798576691E+04  0.73120628954E+02 0.  0.
         24    2    4    4    0    0  0.11369139388E+03 -0.25958970187E+03 -0.16745786697E+03  0.33888469254E+03  0.80549061277E+02 0.  0.
         11    1    3    3    0    0 -0.82817253169E+02  0.15805866447E+03  0.27748895970E+02  0.18058582465E+03  0.00000000000E+00 0. -1.
        -11    1    3    3    0    0  0.12073145003E+02 -0.47791379844E+01  0.33980184938E+01  0.13421904478E+02  0.00000000000E+00 0.  1.
          2    1    6    6  502    0  0.39211293703E+01  0.56100457463E+01 -0.80586342867E+01  0.10573053267E+02  0.00000000000E+00 0. -1.
          1    1    5    5  503    0 -0.97374042415E+01  0.11697842196E+01 -0.72326662249E+03  0.72333311320E+03  0.00000000000E+00 0. -1.
         -2    1    5    5    0  503 -0.33209881476E+02  0.10514039116E+03 -0.14523451325E+04  0.14565245559E+04  0.00000000000E+00 0.  1.
         -3    1    6    6    0  502  0.10977026451E+03 -0.26519974761E+03 -0.15939923268E+03  0.32831163928E+03  0.00000000000E+00 0.  1.
<mgrwt>
<rscale>  0 0.14191640E+04</rscale>
<asrwt>0</asrwt>
<pdfrwt beam="1">  1        1 0.30832875E-01 0.14191640E+04</pdfrwt>
<pdfrwt beam="2">  1       -1 0.38651330E+00 0.14191640E+04</pdfrwt>
<totfact> 0.12872989E+00</totfact>
</mgrwt>
</event>
<event>
12    1  0.1114484E-007  0.1798380E+04  0.7818608E-02  0.8707161E-01
         -1   -1    0    0    0  501 -0.00000000000E+00  0.00000000000E+00  0.78180849103E+03  0.78180849103E+03  0.00000000000E+00 0.  1.
          1   -1    0    0  501    0  0.00000000000E+00 -0.00000000000E+00 -0.10341953994E+04  0.10341953994E+04  0.00000000000E+00 0. -1.
         23    2    1    2    0    0  0.11054225196E+03 -0.56863320174E+03  0.25819195201E+03  0.64057909212E+03  0.90084302652E+02 0.  0.
        254    2    1    2    0    0 -0.11054225196E+03  0.56863320174E+03 -0.51057886040E+03  0.11754247983E+04  0.88621068391E+03 0.  0.
        -24    2    4    4    0    0 -0.31766887269E+03  0.70357048846E+03 -0.27054144363E+03  0.82186320747E+03  0.79633624602E+02 0.  0.
         24    2    4    4    0    0  0.20712662073E+03 -0.13493728672E+03 -0.24003741677E+03  0.35356159087E+03  0.79235905533E+02 0.  0.
         13    1    3    3    0    0  0.26697396360E+02 -0.12852087125E+03  0.18795747407E+02  0.13260333872E+03  0.00000000000E+00 0. -1.
        -13    1    3    3    0    0  0.83844855595E+02 -0.44011233049E+03  0.23939620460E+03  0.50797575340E+03  0.00000000000E+00 0.  1.
          4    1    6    6  502    0  0.20117271773E+03 -0.10094490184E+03 -0.20872906502E+03  0.30696605374E+03  0.00000000000E+00 0. -1.
          3    1    5    5  503    0 -0.19209057983E+03  0.51185814863E+03 -0.19828972010E+03  0.58156372676E+03  0.00000000000E+00 0. -1.
         -4    1    5    5    0  503 -0.12557829286E+03  0.19171233983E+03 -0.72251723534E+02  0.24029948072E+03  0.00000000000E+00 0.  1.
         -3    1    6    6    0  502  0.59539030014E+01 -0.33992384882E+02 -0.31308351749E+02  0.46595537127E+02  0.00000000000E+00 0.  1.
<mgrwt>
<rscale>  0 0.17983801E+04</rscale>
<asrwt>0</asrwt>
<pdfrwt beam="1">  1        1 0.15910698E+00 0.17983801E+04</pdfrwt>
<pdfrwt beam="2">  1       -1 0.12027823E+00 0.17983801E+04</pdfrwt>
<totfact> 0.82695509E+00</totfact>
</mgrwt>
</event>
<event>
12    1  0.1114484E-007  0.1786719E+04  0.7818608E-02  0.8713394E-01
         -1   -1    0    0    0  501 -0.00000000000E+00  0.00000000000E+00  0.76159378669E+03  0.76159378669E+03  0.00000000000E+00 0.  1.
          1   -1    0    0  501    0  0.00000000000E+00 -0.00000000000E+00 -0.10479226539E+04  0.10479226539E+04  0.00000000000E+00 0. -1.
         23    2    1    2    0    0  0.15119599195E+03  0.91149069284E+02 -0.76485044631E+03  0.79008903735E+03  0.89867129154E+02 0.  0.
        254    2    1    2    0    0 -0.15119599195E+03 -0.91149069284E+02  0.47852157912E+03  0.10194274032E+04  0.88265562250E+03 0.  0.
        -24    2    4    4    0    0  0.20805084280E+03  0.19231863953E+03 -0.67787995953E+02  0.30230086940E+03  0.80740268408E+02 0.  0.
         24    2    4    4    0    0 -0.35924683475E+03 -0.28346770882E+03  0.54630957507E+03  0.71712653382E+03  0.80025517630E+02 0.  0.
         13    1    3    3    0    0  0.50143551264E+02  0.82136147878E+02 -0.34678943775E+03  0.35989392418E+03  0.00000000000E+00 0. -1.
        -13    1    3    3    0    0  0.10105244068E+03  0.90129214057E+01 -0.41806100856E+03  0.43019511317E+03  0.00000000000E+00 0.  1.
          2    1    6    6  502    0 -0.30802044905E+03 -0.20207803722E+03  0.43285640374E+03  0.56839844864E+03  0.00000000000E+00 0. -1.
          1    1    5    5  503    0  0.17794222051E+03  0.19530208302E+03 -0.63603813415E+02  0.27175684454E+03  0.00000000000E+00 0. -1.
         -2    1    5    5    0  503  0.30108622289E+02 -0.29834434874E+01 -0.41841825384E+01  0.30544024861E+02  0.00000000000E+00 0.  1.
         -1    1    6    6    0  502 -0.51226385694E+02 -0.81389671603E+02  0.11345317134E+03  0.14872808518E+03  0.00000000000E+00 0.  1.
<mgrwt>
<rscale>  0 0.17867192E+04</rscale>
<asrwt>0</asrwt>
<pdfrwt beam="1">  1        1 0.16121887E+00 0.17867192E+04</pdfrwt>
<pdfrwt beam="2">  1       -1 0.11716828E+00 0.17867192E+04</pdfrwt>
<totfact> 0.86116446E+00</totfact>
</mgrwt>
</event>
<event>
12    1  0.1114484E-007  0.1700087E+04  0.7818608E-02  0.8761315E-01
          1   -1    0    0  501    0  0.00000000000E+00  0.00000000000E+00  0.13159735534E+04  0.13159735534E+04  0.00000000000E+00 0. -1.
         -1   -1    0    0    0  501 -0.00000000000E+00 -0.00000000000E+00 -0.54907932180E+03  0.54907932180E+03  0.00000000000E+00 0.  1.
         23    2    1    2    0    0  0.25906631604E+03 -0.87667107999E+01  0.87240638730E+03  0.91461488725E+03  0.90748421750E+02 0.  0.
        254    2    1    2    0    0 -0.25906631604E+03  0.87667107999E+01 -0.10551215570E+03  0.95043798796E+03  0.90829914820E+03 0.  0.
        -24    2    4    4    0    0  0.10615439097E+03  0.24531738265E+03  0.25665370743E+03  0.37882737043E+03  0.78674507269E+02 0.  0.
         24    2    4    4    0    0 -0.36522070701E+03 -0.23655067185E+03 -0.36216586312E+03  0.57161061753E+03  0.78944287184E+02 0.  0.
         13    1    3    3    0    0  0.45301845307E+02  0.27248547839E+02  0.25028956433E+03  0.25581166228E+03  0.00000000000E+00 0.  1.
        -13    1    3    3    0    0  0.21376447074E+03 -0.36015258639E+02  0.62211682297E+03  0.65880322497E+03  0.00000000000E+00 0. -1.
          4    1    6    6  502    0 -0.76688481143E+02 -0.80489045215E+02 -0.63782846253E+02  0.12817121758E+03  0.00000000000E+00 0. -1.
          1    1    5    5  503    0  0.68982090041E+02  0.86638073902E+02  0.69899488805E+02  0.13096038764E+03  0.00000000000E+00 0. -1.
         -4    1    5    5    0  503  0.37172300929E+02  0.15867930875E+03  0.18675421862E+03  0.24786698279E+03  0.00000000000E+00 0.  1.
         -3    1    6    6    0  502 -0.28853222587E+03 -0.15606162664E+03 -0.29838301687E+03  0.44343939995E+03  0.00000000000E+00 0.  1.
<mgrwt>
<rscale>  0 0.17000869E+04</rscale>
<asrwt>0</asrwt>
<pdfrwt beam="1">  1        1 0.20245747E+00 0.17000869E+04</pdfrwt>
<pdfrwt beam="2">  1       -1 0.84473742E-01 0.17000869E+04</pdfrwt>
<totfact> 0.11635410E+01</totfact>
</mgrwt>
</event>
<event>
12    1  0.1281813E-007  0.2152606E+04  0.7818608E-02  0.8538418E-01
          2   -1    0    0  501    0  0.00000000000E+00  0.00000000000E+00  0.15946333545E+04  0.15946333545E+04  0.00000000000E+00 0. -1.
         -2   -1    0    0    0  501 -0.00000000000E+00 -0.00000000000E+00 -0.72645415166E+03  0.72645415166E+03  0.00000000000E+00 0.  1.
         23    2    1    2    0    0 -0.68376751677E+02  0.75774381815E+03  0.84571402211E+03  0.11414641029E+04  0.94111725934E+02 0.  0.
        254    2    1    2    0    0  0.68376751677E+02 -0.75774381815E+03  0.22465180691E+02  0.11796234032E+04  0.90119676813E+03 0.  0.
        -24    2    4    4    0    0  0.45741396944E+03 -0.28931705297E+03  0.10971253791E+03  0.55808639677E+03  0.80571016546E+02 0.  0.
         24    2    4    4    0    0 -0.38903721776E+03 -0.46842676518E+03 -0.87247357217E+02  0.62153700642E+03  0.89008751647E+02 0.  0.
         11    1    3    3    0    0 -0.43163520470E+02  0.67418136213E+03  0.70946618565E+03  0.97965599428E+03  0.00000000000E+00 0. -1.
        -11    1    3    3    0    0 -0.25213231207E+02  0.83562456019E+02  0.13624783646E+03  0.16180810865E+03  0.00000000000E+00 0.  1.
          4    1    6    6  502    0 -0.22292651371E+02 -0.15671419453E+02 -0.22414869918E+02  0.35284303681E+02  0.00000000000E+00 0. -1.
          3    1    5    5  503    0  0.77610676795E+02 -0.64847967038E+02  0.50211491388E+02  0.11291532159E+03  0.00000000000E+00 0. -1.
         -4    1    5    5    0  503  0.37980329264E+03 -0.22446908593E+03  0.59501046520E+02  0.44517107518E+03  0.00000000000E+00 0.  1.
         -3    1    6    6    0  502 -0.36674456639E+03 -0.45275534573E+03 -0.64832487299E+02  0.58625270274E+03  0.00000000000E+00 0.  1.
<mgrwt>
<rscale>  0 0.21526059E+04</rscale>
<asrwt>0</asrwt>
<pdfrwt beam="1">  1        2 0.24532821E+00 0.21526059E+04</pdfrwt>
<pdfrwt beam="2">  1       -2 0.11176218E+00 0.21526059E+04</pdfrwt>
<totfact> 0.65145428E+00</totfact>
</mgrwt>
</event>
<event>
12    1  0.1114484E-007  0.1370024E+04  0.7818608E-02  0.8975807E-01
         -1   -1    0    0    0  501 -0.00000000000E+00  0.00000000000E+00  0.72179075484E+03  0.72179075484E+03  0.00000000000E+00 0.  1.
          1   -1    0    0  501    0  0.00000000000E+00 -0.00000000000E+00 -0.65010684860E+03  0.65010684860E+03  0.00000000000E+00 0. -1.
         23    2    1    2    0    0 -0.29913039678E+03 -0.15257548502E+03 -0.34890473043E+02  0.35070530349E+03  0.94966267094E+02 0.  0.
        254    2    1    2    0    0  0.29913039678E+03  0.15257548502E+03  0.10657437928E+03  0.10211922999E+04  0.95849743988E+03 0.  0.
        -24    2    4    4    0    0  0.38100311003E+03  0.50886267966E+03  0.77517629987E+02  0.64586427951E+03  0.83827728009E+02 0.  0.
         24    2    4    4    0    0 -0.81872713253E+02 -0.35628719464E+03  0.29056749293E+02  0.37532802044E+03  0.79894442880E+02 0.  0.
         11    1    3    3    0    0 -0.28835377177E+03 -0.16261064216E+03 -0.43113165890E+02  0.33383957781E+03  0.00000000000E+00 0. -1.
        -11    1    3    3    0    0 -0.10776625003E+02  0.10035157138E+02  0.82226928468E+01  0.16865725685E+02  0.00000000000E+00 0.  1.
          4    1    6    6  502    0 -0.16402190187E+02 -0.19635327869E+03  0.43925387376E+02  0.20187392489E+03  0.00000000000E+00 0. -1.
          3    1    5    5  503    0  0.10733693014E+03  0.13800757004E+03 -0.16031299475E+02  0.17556852943E+03  0.00000000000E+00 0. -1.
         -4    1    5    5    0  503  0.27366617988E+03  0.37085510962E+03  0.93548929462E+02  0.47029575008E+03  0.00000000000E+00 0.  1.
         -3    1    6    6    0  502 -0.65470523066E+02 -0.15993391596E+03 -0.14868638084E+02  0.17345409555E+03  0.00000000000E+00 0.  1.
<mgrwt>
<rscale>  0 0.13700235E+04</rscale>
<asrwt>0</asrwt>
<pdfrwt beam="1">  1        1 0.10001644E+00 0.13700235E+04</pdfrwt>
<pdfrwt beam="2">  1       -1 0.11104473E+00 0.13700235E+04</pdfrwt>
<totfact> 0.22217471E+01</totfact>
</mgrwt>
</event>
<event>
12    1  0.1114484E-007  0.1504054E+04  0.7818608E-02  0.8881762E-01
         -1   -1    0    0    0  501 -0.00000000000E+00  0.00000000000E+00  0.42272221969E+03  0.42272221969E+03  0.00000000000E+00 0.  1.
          1   -1    0    0  501    0  0.00000000000E+00 -0.00000000000E+00 -0.13378627273E+04  0.13378627273E+04  0.00000000000E+00 0. -1.
         23    2    1    2    0    0 -0.13773300804E+03  0.37328800280E+03 -0.58046924913E+03  0.71066643978E+03  0.98933942168E+02 0.  0.
        254    2    1    2    0    0  0.13773300804E+03 -0.37328800280E+03 -0.33467125845E+03  0.10499185072E+04  0.91214566047E+03 0.  0.
        -24    2    4    4    0    0 -0.44394050706E+02  0.28725649085E+03 -0.64058814358E+02  0.30885354017E+03  0.82461229090E+02 0.  0.
         24    2    4    4    0    0  0.18212705875E+03 -0.66054449366E+03 -0.27061244409E+03  0.74106496699E+03  0.80354818022E+02 0.  0.
         13    1    3    3    0    0  0.55605525413E+01  0.49908382463E+02 -0.37592576796E+02  0.62729324999E+02  0.00000000000E+00 0.  1.
        -13    1    3    3    0    0 -0.14329356058E+03  0.32337962034E+03 -0.54287667233E+03  0.64793711478E+03  0.00000000000E+00 0. -1.
          2    1    6    6  502    0  0.86076063857E+02 -0.17617716053E+03 -0.75191018957E+02  0.21000278568E+03  0.00000000000E+00 0. -1.
          1    1    5    5  503    0 -0.29769018533E+02  0.75754266521E+02 -0.51828013034E+02  0.96493762988E+02  0.00000000000E+00 0. -1.
         -2    1    5    5    0  503 -0.14625032173E+02  0.21150222433E+03 -0.12230801324E+02  0.21235977718E+03  0.00000000000E+00 0.  1.
         -1    1    6    6    0  502  0.96050994890E+02 -0.48436733313E+03 -0.19542142513E+03  0.53106218131E+03  0.00000000000E+00 0.  1.
<mgrwt>
<rscale>  0 0.15040536E+04</rscale>
<asrwt>0</asrwt>
<pdfrwt beam="1">  1        1 0.20582503E+00 0.15040536E+04</pdfrwt>
<pdfrwt beam="2">  1       -1 0.65034188E-01 0.15040536E+04</pdfrwt>
<totfact> 0.19704306E+01</totfact>
</mgrwt>
</event>
<event>
12    1  0.1295031E-007  0.1744920E+04  0.7818608E-02  0.8736151E-01
          1   -1    0    0  501    0  0.00000000000E+00  0.00000000000E+00  0.15756421903E+04  0.15756421903E+04  0.00000000000E+00 0. -1.
         -1   -1    0    0    0  501 -0.00000000000E+00 -0.00000000000E+00 -0.48309615458E+03  0.48309615458E+03  0.00000000000E+00 0.  1.
         23    2    1    2    0    0  0.10859348276E+03  0.43871490580E+03  0.93267189246E+03  0.10404682458E+04  0.91836802931E+02 0.  0.
        254    2    1    2    0    0 -0.10859348276E+03 -0.43871490580E+03  0.15987414328E+03  0.10182700991E+04  0.89836013940E+03 0.  0.
        -24    2    4    4    0    0 -0.12677410296E+03  0.26138893566E+03  0.60364196561E+02  0.30646582913E+03  0.76691716157E+02 0.  0.
         24    2    4    4    0    0  0.18180620208E+02 -0.70010384146E+03  0.99509946721E+02  0.71180427002E+03  0.79291648617E+02 0.  0.
         11    1    3    3    0    0  0.73075767091E+02  0.39436222211E+03  0.77064066205E+03  0.86876271788E+03  0.00000000000E+00 0. -1.
        -11    1    3    3    0    0  0.35517715665E+02  0.44352683687E+02  0.16203123041E+03  0.17170552788E+03  0.00000000000E+00 0.  1.
          2    1    6    6  502    0  0.10145264917E+02 -0.61839280694E+03  0.11265846398E+03  0.62865294048E+03  0.00000000000E+00 0. -1.
          3    1    5    5  503    0 -0.74141624655E+02  0.22274907982E+03  0.40617057688E+02  0.23825171236E+03  0.00000000000E+00 0. -1.
         -4    1    5    5    0  503 -0.52632478309E+02  0.38639855838E+02  0.19747138873E+02  0.68214116763E+02  0.00000000000E+00 0.  1.
         -1    1    6    6    0  502  0.80353552912E+01 -0.81711034524E+02 -0.13148517255E+02  0.83151329536E+02  0.00000000000E+00 0.  1.
<mgrwt>
<rscale>  0 0.17449203E+04</rscale>
<asrwt>0</asrwt>
<pdfrwt beam="1">  1        1 0.24240649E+00 0.17449203E+04</pdfrwt>
<pdfrwt beam="2">  1       -1 0.74322486E-01 0.17449203E+04</pdfrwt>
<totfact> 0.10018182E+01</totfact>
</mgrwt>
</event>
<event>
12    1  0.1114484E-007  0.1016152E+04  0.7818608E-02  0.9291005E-01
         -1   -1    0    0    0  501 -0.00000000000E+00  0.00000000000E+00  0.34027309020E+03  0.34027309020E+03  0.00000000000E+00 0.  1.
          1   -1    0    0  501    0  0.00000000000E+00 -0.00000000000E+00 -0.75862899814E+03  0.75862899814E+03  0.00000000000E+00 0. -1.
         23    2    1    2    0    0  0.14709465982E+02  0.13488418152E+03 -0.15298692491E+03  0.22451251728E+03  0.92686355030E+02 0.  0.
        254    2    1    2    0    0 -0.14709465982E+02 -0.13488418152E+03 -0.26536898303E+03  0.87438957107E+03  0.82202573805E+03 0.  0.
        -24    2    4    4    0    0 -0.40463138770E+03 -0.49619642763E+02 -0.20491647126E+03  0.46272931870E+03  0.77064864431E+02 0.  0.
         24    2    4    4    0    0  0.38992192172E+03 -0.85264538756E+02 -0.60452511768E+02  0.41166025237E+03  0.80625744001E+02 0.  0.
         11    1    3    3    0    0  0.33996384887E+01  0.14705840246E+03 -0.13116230348E+03  0.19708191477E+03  0.00000000000E+00 0. -1.
        -11    1    3    3    0    0  0.11309827493E+02 -0.12174220941E+02 -0.21824621430E+02  0.27430602509E+02  0.00000000000E+00 0.  1.
          2    1    6    6  502    0  0.35056122875E+03 -0.62968463228E+02 -0.75309040647E+02  0.36404622518E+03  0.00000000000E+00 0. -1.
          1    1    5    5  503    0 -0.23505089550E+03  0.42268937722E+01 -0.94780742609E+02  0.25347619075E+03  0.00000000000E+00 0. -1.
         -2    1    5    5    0  503 -0.16958049219E+03 -0.53846536535E+02 -0.11013572865E+03  0.20925312795E+03  0.00000000000E+00 0.  1.
         -1    1    6    6    0  502  0.39360692968E+02 -0.22296075528E+02  0.14856528879E+02  0.47614027190E+02  0.00000000000E+00 0.  1.
<mgrwt>
<rscale>  0 0.10161516E+04</rscale>
<asrwt>0</asrwt>
<pdfrwt beam="1">  1        1 0.11671215E+00 0.10161516E+04</pdfrwt>
<pdfrwt beam="2">  1       -1 0.52349708E-01 0.10161516E+04</pdfrwt>
<totfact> 0.88560925E+01</totfact>
</mgrwt>
</event>
<event>
12    1  0.1114484E-007  0.1099589E+04  0.7818608E-02  0.9205592E-01
          2   -1    0    0  501    0  0.00000000000E+00  0.00000000000E+00  0.13409605361E+04  0.13409605361E+04  0.00000000000E+00 0. -1.
         -2   -1    0    0    0  501 -0.00000000000E+00 -0.00000000000E+00 -0.22541612019E+03  0.22541612019E+03  0.00000000000E+00 0.  1.
         23    2    1    2    0    0  0.86483503229E+02 -0.15128317391E+03  0.16642893389E+03  0.25758191518E+03  0.91015701700E+02 0.  0.
        254    2    1    2    0    0 -0.86483503229E+02  0.15128317391E+03  0.94911548201E+03  0.13087947411E+04  0.88417050454E+03 0.  0.
        -24    2    4    4    0    0  0.21971565116E+03  0.17327326350E+03 -0.16995764437E+02  0.29177793236E+03  0.80913006339E+02 0.  0.
         24    2    4    4    0    0 -0.30619915439E+03 -0.21990089589E+02  0.96611124645E+03  0.10170168087E+04  0.81919244041E+02 0.  0.
         11    1    3    3    0    0  0.74825539537E+02 -0.14224953671E+03  0.99471627817E+02  0.18901956725E+03  0.00000000000E+00 0.  1.
        -11    1    3    3    0    0  0.11657963692E+02 -0.90336371983E+01  0.66957306069E+02  0.68562347936E+02  0.00000000000E+00 0. -1.
          4    1    6    6  502    0 -0.11694262128E+03 -0.29821424141E+02  0.27294500712E+03  0.29843570652E+03  0.00000000000E+00 0. -1.
          1    1    5    5  503    0 -0.15957942521E+01 -0.33306459744E+01  0.66985804182E+01  0.76492314333E+01  0.00000000000E+00 0. -1.
         -2    1    5    5    0  503  0.22131144542E+03  0.17660390947E+03 -0.23694344856E+02  0.28412870093E+03  0.00000000000E+00 0.  1.
         -3    1    6    6    0  502 -0.18925653311E+03  0.78313345516E+01  0.69316623933E+03  0.71858110222E+03  0.00000000000E+00 0.  1.
<mgrwt>
<rscale>  0 0.10995892E+04</rscale>
<asrwt>0</asrwt>
<pdfrwt beam="1">  1        2 0.20630162E+00 0.10995892E+04</pdfrwt>
<pdfrwt beam="2">  1       -2 0.34679404E-01 0.10995892E+04</pdfrwt>
<totfact> 0.12103308E+02</totfact>
</mgrwt>
</event>
<event>
12    1  0.1114484E-007  0.2434037E+04  0.7818608E-02  0.8426869E-01
         -2   -1    0    0    0  501 -0.00000000000E+00  0.00000000000E+00  0.15483051054E+04  0.15483051054E+04  0.00000000000E+00 0. -1.
          2   -1    0    0  501    0  0.00000000000E+00 -0.00000000000E+00 -0.95661638451E+03  0.95661638451E+03  0.00000000000E+00 0.  1.
         23    2    1    2    0    0 -0.51821386362E+03 -0.89810195942E+03  0.95761399419E+02  0.10450379159E+04  0.88324754015E+02 0.  0.
        254    2    1    2    0    0  0.51821386362E+03  0.89810195942E+03  0.49592732148E+03  0.14598835740E+04  0.90010188505E+03 0.  0.
        -24    2    4    4    0    0  0.40248758199E+03  0.19079004347E+03  0.57764040021E+03  0.73418930750E+03  0.83477020514E+02 0.  0.
         24    2    4    4    0    0  0.11572628163E+03  0.70731191595E+03 -0.81713078724E+02  0.72569426649E+03  0.79198626747E+02 0.  0.
         13    1    3    3    0    0 -0.39837979840E+03 -0.71711937364E+03  0.10910201266E+03  0.82756867327E+03  0.00000000000E+00 0.  1.
        -13    1    3    3    0    0 -0.11983406522E+03 -0.18098258578E+03 -0.13340613240E+02  0.21746924267E+03  0.00000000000E+00 0. -1.
          2    1    6    6  502    0  0.16589665736E+02  0.29518864633E+03 -0.10242273384E+02  0.29583180710E+03  0.00000000000E+00 0. -1.
          1    1    5    5  503    0  0.12052550374E+03  0.18142149659E+02  0.17367975915E+03  0.21217962528E+03  0.00000000000E+00 0. -1.
         -2    1    5    5    0  503  0.28196207825E+03  0.17264789381E+03  0.40396064106E+03  0.52200968222E+03  0.00000000000E+00 0.  1.
         -3    1    6    6    0  502  0.99136615891E+02  0.41212326963E+03 -0.71470805340E+02  0.42986245939E+03  0.00000000000E+00 0.  1.
<mgrwt>
<rscale>  0 0.24340370E+04</rscale>
<asrwt>0</asrwt>
<pdfrwt beam="1">  1        2 0.14717175E+00 0.24340370E+04</pdfrwt>
<pdfrwt beam="2">  1       -2 0.23820079E+00 0.24340370E+04</pdfrwt>
<totfact> 0.18315882E+00</totfact>
</mgrwt>
</event>
<event>
12    1  0.1114484E-007  0.1336637E+04  0.7818608E-02  0.9001006E-01
          2   -1    0    0  501    0  0.00000000000E+00  0.00000000000E+00  0.77396134383E+03  0.77396134383E+03  0.00000000000E+00 0. -1.
         -2   -1    0    0    0  501 -0.00000000000E+00 -0.00000000000E+00 -0.57709581379E+03  0.57709581379E+03  0.00000000000E+00 0.  1.
         23    2    1    2    0    0  0.16058873368E+03 -0.26713867515E+03  0.27202753414E+03  0.42656027841E+03  0.10393689744E+03 0.  0.
        254    2    1    2    0    0 -0.16058873368E+03  0.26713867515E+03 -0.75162004093E+02  0.92449687921E+03  0.86711783494E+03 0.  0.
        -24    2    4    4    0    0  0.22096264505E+03  0.41871822311E+03  0.62636356745E+02  0.48415253818E+03  0.79567117375E+02 0.  0.
         24    2    4    4    0    0 -0.38155137873E+03 -0.15157954796E+03 -0.13779836084E+03  0.44034434103E+03  0.79730398590E+02 0.  0.
         13    1    3    3    0    0  0.16178139901E+03 -0.21811305487E+03  0.19156374574E+03  0.33232994817E+03  0.00000000000E+00 0. -1.
        -13    1    3    3    0    0 -0.11926653360E+01 -0.49025620279E+02  0.80463788397E+02  0.94230330242E+02  0.00000000000E+00 0.  1.
          2    1    6    6  502    0 -0.31032848679E+03 -0.15199461910E+03 -0.10009847990E+03  0.35975802927E+03  0.00000000000E+00 0. -1.
          3    1    5    5  503    0  0.12130389886E+03  0.28964495031E+03  0.15482178276E+02  0.31440186221E+03  0.00000000000E+00 0. -1.
         -4    1    5    5    0  503  0.99658746196E+02  0.12907327279E+03  0.47154178469E+02  0.16975067596E+03  0.00000000000E+00 0.  1.
         -1    1    6    6    0  502 -0.71222891939E+02  0.41507113662E+00 -0.37699880939E+02  0.80586311760E+02  0.00000000000E+00 0.  1.
<mgrwt>
<rscale>  0 0.13366374E+04</rscale>
<asrwt>0</asrwt>
<pdfrwt beam="1">  1        2 0.11907098E+00 0.13366374E+04</pdfrwt>
<pdfrwt beam="2">  1       -2 0.88783971E-01 0.13366374E+04</pdfrwt>
<totfact> 0.38384392E+01</totfact>
</mgrwt>
</event>
<event>
12    1  0.1114484E-007  0.1718851E+04  0.7818608E-02  0.8750685E-01
          1   -1    0    0  501    0  0.00000000000E+00  0.00000000000E+00  0.29643896920E+04  0.29643896920E+04  0.00000000000E+00 0. -1.
         -1   -1    0    0    0  501 -0.00000000000E+00 -0.00000000000E+00 -0.24916166997E+03  0.24916166997E+03  0.00000000000E+00 0.  1.
         23    2    1    2    0    0 -0.47725592441E+03  0.36156431339E+03  0.64786023358E+03  0.88707639069E+03  0.93164749514E+02 0.  0.
        254    2    1    2    0    0  0.47725592441E+03 -0.36156431339E+03  0.20673677884E+04  0.23264749712E+04  0.88316150797E+03 0.  0.
        -24    2    4    4    0    0  0.12822549653E+03  0.47878103382E+02  0.16046793423E+04  0.16124556613E+04  0.79267758439E+02 0.  0.
         24    2    4    4    0    0  0.34903042788E+03 -0.40944241678E+03  0.46268844615E+03  0.71401930991E+03  0.79231587718E+02 0.  0.
         13    1    3    3    0    0 -0.43894169812E+02  0.36814116799E+02  0.27332675392E+02  0.63474817710E+02  0.00000000000E+00 0. -1.
        -13    1    3    3    0    0 -0.43336175460E+03  0.32475019659E+03  0.62052755819E+03  0.82360157298E+03  0.00000000000E+00 0.  1.
          2    1    6    6  502    0  0.31764607562E+02 -0.10361335397E+02  0.20916577404E+02  0.39418913925E+02  0.00000000000E+00 0. -1.
          1    1    5    5  503    0  0.23855860966E+02  0.12774888054E+02  0.95373257421E+02  0.99138075926E+02  0.00000000000E+00 0. -1.
         -2    1    5    5    0  503  0.10436963557E+03  0.35103215328E+02  0.15093060848E+04  0.15133175854E+04  0.00000000000E+00 0.  1.
         -3    1    6    6    0  502  0.31726582031E+03 -0.39908108138E+03  0.44177186874E+03  0.67460039599E+03  0.00000000000E+00 0.  1.
<mgrwt>
<rscale>  0 0.17188511E+04</rscale>
<asrwt>0</asrwt>
<pdfrwt beam="1">  1        1 0.45605993E+00 0.17188511E+04</pdfrwt>
<pdfrwt beam="2">  1       -1 0.38332567E-01 0.17188511E+04</pdfrwt>
<totfact> 0.39835460E+00</totfact>
</mgrwt>
</event>
<event>
12    1  0.1114484E-007  0.2480189E+04  0.7818608E-02  0.8410078E-01
          1   -1    0    0  501    0  0.00000000000E+00  0.00000000000E+00  0.14605886383E+04  0.14605886383E+04  0.00000000000E+00 0. -1.
         -1   -1    0    0    0  501 -0.00000000000E+00 -0.00000000000E+00 -0.10528862883E+04  0.10528862883E+04  0.00000000000E+00 0.  1.
         23    2    1    2    0    0 -0.36969725999E+03 -0.17979024965E+03  0.11821101630E+04  0.12555397358E+04  0.99974961167E+02 0.  0.
        254    2    1    2    0    0  0.36969725999E+03  0.17979024965E+03 -0.77440781297E+03  0.12579351908E+04  0.90204927001E+03 0.  0.
        -24    2    4    4    0    0  0.17959122174E+02  0.48905568492E+03 -0.26702054006E+03  0.56298340420E+03  0.78436927329E+02 0.  0.
         24    2    4    4    0    0  0.35173813782E+03 -0.30926543526E+03 -0.50738727291E+03  0.69495178659E+03  0.78430312550E+02 0.  0.
         13    1    3    3    0    0 -0.98055991097E+02 -0.39940291508E+02  0.19071839173E+03  0.21813690476E+03  0.00000000000E+00 0.  1.
        -13    1    3    3    0    0 -0.27164126890E+03 -0.13984995814E+03  0.99139177125E+03  0.10374028310E+04  0.00000000000E+00 0. -1.
          4    1    6    6  502    0  0.28324611674E+01  0.71059009509E+00  0.24079982261E+01  0.37850006611E+01  0.00000000000E+00 0. -1.
          1    1    5    5  503    0 -0.29109122026E+02  0.11878133309E+03 -0.70312530824E+02  0.14106806182E+03  0.00000000000E+00 0. -1.
         -2    1    5    5    0  503  0.47068244199E+02  0.37027435183E+03 -0.19670800923E+03  0.42191534237E+03  0.00000000000E+00 0.  1.
         -3    1    6    6    0  502  0.34890567665E+03 -0.30997602536E+03 -0.50979527114E+03  0.69116678593E+03  0.00000000000E+00 0.  1.
<mgrwt>
<rscale>  0 0.24801885E+04</rscale>
<asrwt>0</asrwt>
<pdfrwt beam="1">  1        1 0.22470594E+00 0.24801885E+04</pdfrwt>
<pdfrwt beam="2">  1       -1 0.16198251E+00 0.24801885E+04</pdfrwt>
<totfact> 0.17507799E+00</totfact>
</mgrwt>
</event>
<event>
12    1  0.1114484E-007  0.1284876E+04  0.7818608E-02  0.9041645E-01
         -1   -1    0    0    0  501 -0.00000000000E+00  0.00000000000E+00  0.22925645380E+03  0.22925645380E+03  0.00000000000E+00 0.  1.
          1   -1    0    0  501    0  0.00000000000E+00 -0.00000000000E+00 -0.18002832494E+04  0.18002832494E+04  0.00000000000E+00 0. -1.
         23    2    1    2    0    0 -0.85893572128E+02  0.79450236200E+02  0.55155470704E+02  0.16838651626E+03  0.10780467126E+03 0.  0.
        254    2    1    2    0    0  0.85893572128E+02 -0.79450236200E+02 -0.16261822663E+04  0.18611531869E+04  0.89762596679E+03 0.  0.
        -24    2    4    4    0    0  0.40922059506E+03  0.86555116522E+02 -0.12954801902E+04  0.13640360970E+04  0.85861906264E+02 0.  0.
         24    2    4    4    0    0 -0.32332702293E+03 -0.16600535272E+03 -0.33070207607E+03  0.49711708997E+03  0.75255545525E+02 0.  0.
         11    1    3    3    0    0 -0.73829091818E+01  0.18964174379E+02 -0.30988173677E+02  0.37073092206E+02  0.00000000000E+00 0. -1.
        -11    1    3    3    0    0 -0.78510662946E+02  0.60486061821E+02  0.86143644381E+02  0.13131342406E+03  0.00000000000E+00 0.  1.
          4    1    6    6  502    0 -0.20637612278E+03 -0.14385076022E+03 -0.21146161869E+03  0.32863378014E+03  0.00000000000E+00 0. -1.
          3    1    5    5  503    0  0.38411674503E+03  0.10172532889E+03 -0.11925349922E+04  0.12569938043E+04  0.00000000000E+00 0. -1.
         -4    1    5    5    0  503  0.25103850023E+02 -0.15170212369E+02 -0.10294519799E+03  0.10704229266E+03  0.00000000000E+00 0.  1.
         -3    1    6    6    0  502 -0.11695090015E+03 -0.22154592502E+02 -0.11924045738E+03  0.16848330983E+03  0.00000000000E+00 0.  1.
<mgrwt>
<rscale>  0 0.12848760E+04</rscale>
<asrwt>0</asrwt>
<pdfrwt beam="1">  1        1 0.27696667E+00 0.12848760E+04</pdfrwt>
<pdfrwt beam="2">  1       -1 0.35270222E-01 0.12848760E+04</pdfrwt>
<totfact> 0.30671554E+01</totfact>
</mgrwt>
</event>
<event>
12    1  0.1183526E-007  0.1691546E+04  0.7818608E-02  0.8766201E-01
          2   -1    0    0  501    0  0.00000000000E+00  0.00000000000E+00  0.29285045211E+04  0.29285045211E+04  0.00000000000E+00 0.  1.
         -2   -1    0    0    0  501 -0.00000000000E+00 -0.00000000000E+00 -0.24426520304E+03  0.24426520304E+03  0.00000000000E+00 0. -1.
         23    2    1    2    0    0 -0.16323504504E+03 -0.29675445937E+03  0.19140136286E+04  0.19458935194E+04  0.91348394982E+02 0.  0.
        254    2    1    2    0    0  0.16323504504E+03  0.29675445937E+03  0.77022568948E+03  0.12268762048E+04  0.89289905364E+03 0.  0.
        -24    2    4    4    0    0  0.39271203886E+03 -0.20836275510E+02  0.52573568363E+02  0.40484464253E+03  0.80487941038E+02 0.  0.
         24    2    4    4    0    0 -0.22947699381E+03  0.31759073488E+03  0.71765212112E+03  0.82203156224E+03  0.84780639323E+02 0.  0.
         11    1    3    3    0    0 -0.16228616655E+03 -0.29061543045E+03  0.17274458952E+04  0.17592223990E+04  0.00000000000E+00 0.  1.
        -11    1    3    3    0    0 -0.94887849029E+00 -0.61390289193E+01  0.18656773335E+03  0.18667112036E+03  0.00000000000E+00 0. -1.
          2    1    6    6  502    0 -0.10749490849E+03  0.16799445149E+03  0.28066059373E+03  0.34430750784E+03  0.00000000000E+00 0. -1.
          3    1    5    5  503    0  0.37138111063E+03 -0.32784656215E+02  0.63273464195E+02  0.37815644155E+03  0.00000000000E+00 0. -1.
         -4    1    5    5    0  503  0.21330928229E+02  0.11948380706E+02 -0.10699895832E+02  0.26688200978E+02  0.00000000000E+00 0.  1.
         -1    1    6    6    0  502 -0.12198208532E+03  0.14959628339E+03  0.43699152739E+03  0.47772405440E+03  0.00000000000E+00 0.  1.
<mgrwt>
<rscale>  0 0.16915457E+04</rscale>
<asrwt>0</asrwt>
<pdfrwt beam="1">  1        2 0.45053913E+00 0.16915457E+04</pdfrwt>
<pdfrwt beam="2">  1       -2 0.37579264E-01 0.16915457E+04</pdfrwt>
<totfact> 0.12324310E+01</totfact>
</mgrwt>
</event>
<event>
12    1  0.1114484E-007  0.4222657E+04  0.7818608E-02  0.7961076E-01
         -1   -1    0    0    0  501 -0.00000000000E+00  0.00000000000E+00  0.18729432543E+04  0.18729432543E+04  0.00000000000E+00 0.  1.
          1   -1    0    0  501    0  0.00000000000E+00 -0.00000000000E+00 -0.23800555741E+04  0.23800555741E+04  0.00000000000E+00 0. -1.
         23    2    1    2    0    0  0.10141425293E+04  0.58383057880E+03  0.14069758568E+04  0.18321784826E+04  0.89183607838E+02 0.  0.
        254    2    1    2    0    0 -0.10141425293E+04 -0.58383057880E+03 -0.19140881765E+04  0.24208203458E+04  0.90955724663E+03 0.  0.
        -24    2    4    4    0    0 -0.51242056999E+03 -0.52691698877E+02 -0.14759964393E+04  0.15653086719E+04  0.79211703009E+02 0.  0.
         24    2    4    4    0    0 -0.50172195935E+03 -0.53113887992E+03 -0.43809173722E+03  0.85551167394E+03  0.78373591046E+02 0.  0.
         13    1    3    3    0    0  0.99993641941E+03  0.56634202806E+03  0.13922420436E+04  0.18052573344E+04  0.00000000000E+00 0.  1.
        -13    1    3    3    0    0  0.14206109926E+02  0.17488550741E+02  0.14733813216E+02  0.26921148158E+02  0.00000000000E+00 0. -1.
          4    1    6    6  502    0 -0.45881726860E+03 -0.50572792954E+03 -0.39068206587E+03  0.78670610858E+03  0.00000000000E+00 0. -1.
          1    1    5    5  503    0 -0.32460166625E+03 -0.36456450124E+02 -0.10456553991E+04  0.10954864345E+04  0.00000000000E+00 0. -1.
         -2    1    5    5    0  503 -0.18781890374E+03 -0.16235248753E+02 -0.43034104016E+03  0.46982223739E+03  0.00000000000E+00 0.  1.
         -3    1    6    6    0  502 -0.42904690752E+02 -0.25410950384E+02 -0.47409671350E+02  0.68805565367E+02  0.00000000000E+00 0.  1.
<mgrwt>
<rscale>  0 0.42226575E+04</rscale>
<asrwt>0</asrwt>
<pdfrwt beam="1">  1        1 0.36616240E+00 0.42226575E+04</pdfrwt>
<pdfrwt beam="2">  1       -1 0.28814512E+00 0.42226575E+04</pdfrwt>
<totfact> 0.49678176E-02</totfact>
</mgrwt>
</event>
<event>
12    1  0.1114484E-007  0.2644887E+04  0.7818608E-02  0.8353112E-01
          2   -1    0    0  501    0  0.00000000000E+00  0.00000000000E+00  0.21125354148E+04  0.21125354148E+04  0.00000000000E+00 0. -1.
         -2   -1    0    0    0  501 -0.00000000000E+00 -0.00000000000E+00 -0.82784751266E+03  0.82784751266E+03  0.00000000000E+00 0.  1.
         23    2    1    2    0    0  0.18966601621E+02 -0.33226320822E+03  0.18118193747E+04  0.18444495386E+04  0.92445022791E+02 0.  0.
        254    2    1    2    0    0 -0.18966601621E+02  0.33226320822E+03 -0.52713147259E+03  0.10959333889E+04  0.90135666190E+03 0.  0.
        -24    2    4    4    0    0  0.12648635899E+03 -0.23217428625E+03  0.39391063470E+02  0.27949855063E+03  0.81633851523E+02 0.  0.
         24    2    4    4    0    0 -0.14545296061E+03  0.56443749448E+03 -0.56652253606E+03  0.81643483825E+03  0.76627751684E+02 0.  0.
         13    1    3    3    0    0  0.31226691021E+02 -0.32442126026E+02  0.26369847659E+03  0.26751539083E+03  0.00000000000E+00 0.  1.
        -13    1    3    3    0    0 -0.12260089399E+02 -0.29982108220E+03  0.15481208981E+04  0.15769341478E+04  0.00000000000E+00 0. -1.
          4    1    6    6  502    0 -0.10981330630E+03  0.46566448465E+03 -0.42311174859E+03  0.63869079084E+03  0.00000000000E+00 0. -1.
          3    1    5    5  503    0  0.13729480700E+03 -0.22536623764E+03  0.36551574143E+02  0.26641288007E+03  0.00000000000E+00 0. -1.
         -4    1    5    5    0  503 -0.10808448009E+02 -0.68080486177E+01  0.28394893267E+01  0.13085670559E+02  0.00000000000E+00 0.  1.
         -3    1    6    6    0  502 -0.35639654312E+02  0.98773009831E+02 -0.14341078747E+03  0.17774404742E+03  0.00000000000E+00 0.  1.
<mgrwt>
<rscale>  0 0.26448873E+04</rscale>
<asrwt>0</asrwt>
<pdfrwt beam="1">  1        2 0.32500545E+00 0.26448873E+04</pdfrwt>
<pdfrwt beam="2">  1       -2 0.12736116E+00 0.26448873E+04</pdfrwt>
<totfact> 0.23306446E+00</totfact>
</mgrwt>
</event>
<event>
12    1  0.1114484E-007  0.1292343E+04  0.7818608E-02  0.9035659E-01
          1   -1    0    0  501    0  0.00000000000E+00  0.00000000000E+00  0.43847180102E+03  0.43847180102E+03  0.00000000000E+00 0. -1.
         -1   -1    0    0    0  501 -0.00000000000E+00 -0.00000000000E+00 -0.95225719074E+03  0.95225719074E+03  0.00000000000E+00 0.  1.
         23    2    1    2    0    0 -0.31242893161E+02 -0.17587867557E+03  0.14497011059E+03  0.24561196195E+03  0.86020206909E+02 0.  0.
        254    2    1    2    0    0  0.31242893161E+02  0.17587867557E+03 -0.65875550032E+03  0.11451170298E+04  0.91946983413E+03 0.  0.
        -24    2    4    4    0    0 -0.25488550985E+03  0.45164318224E+03 -0.30340997729E+03  0.60596722269E+03  0.78679561922E+02 0.  0.
         24    2    4    4    0    0  0.28612840301E+03 -0.27576450667E+03 -0.35534552302E+03  0.53914980712E+03  0.80601164007E+02 0.  0.
         11    1    3    3    0    0  0.57391149567E+01  0.82724831485E+01  0.43029017294E+01  0.10949263958E+02  0.00000000000E+00 0.  1.
        -11    1    3    3    0    0 -0.36982008118E+02 -0.18415115872E+03  0.14066720887E+03  0.23466269800E+03  0.00000000000E+00 0. -1.
          4    1    6    6  502    0  0.90709577466E+01 -0.15129540671E+02  0.13438295014E+01  0.17691555983E+02  0.00000000000E+00 0. -1.
          1    1    5    5  503    0 -0.38574784622E+02  0.12839557996E+03 -0.98382010223E+02  0.16629028503E+03  0.00000000000E+00 0. -1.
         -2    1    5    5    0  503 -0.21631072522E+03  0.32324760228E+03 -0.20502796707E+03  0.43967693766E+03  0.00000000000E+00 0.  1.
         -3    1    6    6    0  502  0.27705744526E+03 -0.26063496600E+03 -0.35668935252E+03  0.52145825114E+03  0.00000000000E+00 0.  1.
<mgrwt>
<rscale>  0 0.12923435E+04</rscale>
<asrwt>0</asrwt>
<pdfrwt beam="1">  1        1 0.67457200E-01 0.12923435E+04</pdfrwt>
<pdfrwt beam="2">  1       -1 0.14650111E+00 0.12923435E+04</pdfrwt>
<totfact> 0.19383732E+01</totfact>
</mgrwt>
</event>
<event>
12    1  0.1114484E-007  0.1900325E+04  0.7818608E-02  0.8654695E-01
         -2   -1    0    0    0  501 -0.00000000000E+00  0.00000000000E+00  0.74334561729E+03  0.74334561729E+03  0.00000000000E+00 0.  1.
          2   -1    0    0  501    0  0.00000000000E+00 -0.00000000000E+00 -0.12145202736E+04  0.12145202736E+04  0.00000000000E+00 0. -1.
         23    2    1    2    0    0 -0.52005208201E+03  0.24507287611E+03 -0.64647739484E+03  0.87072995782E+03  0.98604030283E+02 0.  0.
        254    2    1    2    0    0  0.52005208201E+03 -0.24507287611E+03  0.17530273848E+03  0.10871359331E+04  0.90588001653E+03 0.  0.
        -24    2    4    4    0    0  0.70185290077E+03 -0.23230272148E+03  0.35038955500E+03  0.82190020281E+03  0.78645116801E+02 0.  0.
         24    2    4    4    0    0 -0.18180081877E+03 -0.12770154627E+02 -0.17508681652E+03  0.26523573030E+03  0.80498352516E+02 0.  0.
         13    1    3    3    0    0 -0.41528941215E+03  0.22201050737E+03 -0.47797637223E+03  0.67098090408E+03  0.00000000000E+00 0. -1.
        -13    1    3    3    0    0 -0.10476266986E+03  0.23062368742E+02 -0.16850102261E+03  0.19974905374E+03  0.00000000000E+00 0.  1.
          4    1    6    6  502    0 -0.29950574909E+02 -0.29410650936E+02 -0.63257766527E+02  0.75918168786E+02  0.00000000000E+00 0. -1.
          1    1    5    5  503    0  0.30004703562E+03 -0.13784440644E+03  0.14056307605E+03  0.35886945025E+03  0.00000000000E+00 0. -1.
         -2    1    5    5    0  503  0.40180586515E+03 -0.94458315039E+02  0.20982647896E+03  0.46303075257E+03  0.00000000000E+00 0.  1.
         -3    1    6    6    0  502 -0.15185024386E+03  0.16640496309E+02 -0.11182904999E+03  0.18931756152E+03  0.00000000000E+00 0.  1.
<mgrwt>
<rscale>  0 0.19003245E+04</rscale>
<asrwt>0</asrwt>
<pdfrwt beam="1">  1        2 0.18684927E+00 0.19003245E+04</pdfrwt>
<pdfrwt beam="2">  1       -2 0.11436087E+00 0.19003245E+04</pdfrwt>
<totfact> 0.10395175E+01</totfact>
</mgrwt>
</event>
<event>
12    1  0.1114484E-007  0.2146438E+04  0.7818608E-02  0.8541058E-01
          2   -1    0    0  501    0  0.00000000000E+00  0.00000000000E+00  0.11498446536E+04  0.11498446536E+04  0.00000000000E+00 0. -1.
         -2   -1    0    0    0  501 -0.00000000000E+00 -0.00000000000E+00 -0.10016997099E+04  0.10016997099E+04  0.00000000000E+00 0.  1.
         23    2    1    2    0    0 -0.26108973531E+03  0.95608385120E+02 -0.77876222952E+03  0.83225276150E+03  0.94155380635E+02 0.  0.
        254    2    1    2    0    0  0.26108973531E+03 -0.95608385120E+02  0.92690717328E+03  0.13192916020E+04  0.89669649834E+03 0.  0.
        -24    2    4    4    0    0  0.86409152399E+02 -0.36205366491E+03  0.91441889718E+03  0.99091420322E+03  0.84850696733E+02 0.  0.
         24    2    4    4    0    0  0.17468058291E+03  0.26644527979E+03  0.12488276100E+02  0.32837739881E+03  0.78545310748E+02 0.  0.
         11    1    3    3    0    0 -0.81136532236E+02  0.64209853708E+02 -0.37645225638E+03  0.39041304218E+03  0.00000000000E+00 0. -1.
        -11    1    3    3    0    0 -0.17995320308E+03  0.31398531413E+02 -0.40230997314E+03  0.44183971931E+03  0.00000000000E+00 0.  1.
          2    1    6    6  502    0  0.12734757856E+02 -0.28356725675E+01 -0.42039500247E+01  0.13707235038E+02  0.00000000000E+00 0. -1.
          1    1    5    5  503    0 -0.13518470715E+02 -0.10422329089E+03  0.26468959370E+03  0.28479084330E+03  0.00000000000E+00 0. -1.
         -2    1    5    5    0  503  0.99927623114E+02 -0.25783037402E+03  0.64972930348E+03  0.70612335993E+03  0.00000000000E+00 0.  1.
         -1    1    6    6    0  502  0.16194582506E+03  0.26928095236E+03  0.16692226125E+02  0.31467016377E+03  0.00000000000E+00 0.  1.
<mgrwt>
<rscale>  0 0.21464380E+04</rscale>
<asrwt>0</asrwt>
<pdfrwt beam="1">  1        2 0.17689918E+00 0.21464380E+04</pdfrwt>
<pdfrwt beam="2">  1       -2 0.15410765E+00 0.21464380E+04</pdfrwt>
<totfact> 0.51978788E+00</totfact>
</mgrwt>
</event>
<event>
12    1  0.1114484E-007  0.1550496E+04  0.7818608E-02  0.8851551E-01
          1   -1    0    0  501    0  0.00000000000E+00  0.00000000000E+00  0.23389886608E+04  0.23389886608E+04  0.00000000000E+00 0.  1.
         -1   -1    0    0    0  501 -0.00000000000E+00 -0.00000000000E+00 -0.25695264125E+03  0.25695264125E+03  0.00000000000E+00 0. -1.
         23    2    1    2    0    0 -0.22943081499E+03 -0.17048312890E+03  0.14068916519E+04  0.14387225079E+04  0.94209015189E+02 0.  0.
        254    2    1    2    0    0  0.22943081499E+03  0.17048312890E+03  0.67514436769E+03  0.11572187942E+04  0.89533927883E+03 0.  0.
        -24    2    4    4    0    0  0.56175370333E+03  0.16347667491E+03  0.35573246408E+03  0.68931672063E+03  0.79499112523E+02 0.  0.
         24    2    4    4    0    0 -0.33232288834E+03  0.70064539929E+01  0.31941190362E+03  0.46790207353E+03  0.80129855383E+02 0.  0.
         13    1    3    3    0    0 -0.22571540057E+03 -0.17466968820E+03  0.14033956277E+04  0.14321229801E+04  0.00000000000E+00 0.  1.
        -13    1    3    3    0    0 -0.37154144224E+01  0.41865593013E+01  0.34960241198E+01  0.65995278436E+01  0.00000000000E+00 0. -1.
          2    1    6    6  502    0 -0.38682819127E+02 -0.20245941449E+02  0.21327613765E+02  0.48591416420E+02  0.00000000000E+00 0. -1.
          1    1    5    5  503    0  0.30567348414E+03  0.94524846508E+02  0.23999605193E+03  0.39996166124E+03  0.00000000000E+00 0. -1.
         -2    1    5    5    0  503  0.25608021919E+03  0.68951828398E+02  0.11573641215E+03  0.28935505939E+03  0.00000000000E+00 0.  1.
         -1    1    6    6    0  502 -0.29364006922E+03  0.27252395442E+02  0.29808428985E+03  0.41931065711E+03  0.00000000000E+00 0.  1.
<mgrwt>
<rscale>  0 0.15504958E+04</rscale>
<asrwt>0</asrwt>
<pdfrwt beam="1">  1        1 0.35984439E+00 0.15504958E+04</pdfrwt>
<pdfrwt beam="2">  1       -1 0.39531177E-01 0.15504958E+04</pdfrwt>
<totfact> 0.10509646E+01</totfact>
</mgrwt>
</event>
<event>
12    1  0.1114484E-007  0.1177529E+04  0.7818608E-02  0.9132756E-01
         -2   -1    0    0    0  501 -0.00000000000E+00  0.00000000000E+00  0.10857183384E+03  0.10857183384E+03  0.00000000000E+00 0.  1.
          2   -1    0    0  501    0  0.00000000000E+00 -0.00000000000E+00 -0.31927583897E+04  0.31927583897E+04  0.00000000000E+00 0. -1.
         23    2    1    2    0    0  0.14172728028E+03 -0.14298312463E+03 -0.94554628010E+03  0.97124355553E+03  0.93410280199E+02 0.  0.
        254    2    1    2    0    0 -0.14172728028E+03  0.14298312463E+03 -0.21386402757E+04  0.23300866680E+04  0.90276843952E+03 0.  0.
        -24    2    4    4    0    0  0.31248712843E+03 -0.15518113348E+03 -0.10804454315E+04  0.11378868726E+04  0.75463996031E+02 0.  0.
         24    2    4    4    0    0 -0.45421440871E+03  0.29816425811E+03 -0.10581948442E+04  0.11921997954E+04  0.79695482301E+02 0.  0.
         11    1    3    3    0    0  0.44108830411E+01  0.13213667750E+02 -0.55416271687E+02  0.57140354149E+02  0.00000000000E+00 0.  1.
        -11    1    3    3    0    0  0.13731639724E+03 -0.15619679238E+03 -0.89013000841E+03  0.91410320138E+03  0.00000000000E+00 0. -1.
          2    1    6    6  502    0 -0.15988352048E+02  0.11282928055E+00 -0.59303096698E+02  0.61420659470E+02  0.00000000000E+00 0. -1.
          3    1    5    5  503    0  0.26324318476E+02 -0.52579124869E+01 -0.37962965700E+02  0.46495184177E+02  0.00000000000E+00 0. -1.
         -4    1    5    5    0  503  0.28616280996E+03 -0.14992322099E+03 -0.10424824658E+04  0.10913916884E+04  0.00000000000E+00 0.  1.
         -3    1    6    6    0  502 -0.43822605667E+03  0.29805142883E+03 -0.99889174750E+03  0.11307791359E+04  0.00000000000E+00 0.  1.
<mgrwt>
<rscale>  0 0.11775290E+04</rscale>
<asrwt>0</asrwt>
<pdfrwt beam="1">  1        2 0.49119358E+00 0.11775290E+04</pdfrwt>
<pdfrwt beam="2">  1       -2 0.16703360E-01 0.11775290E+04</pdfrwt>
<totfact> 0.38610820E+01</totfact>
</mgrwt>
</event>
<event>
12    1  0.1114484E-007  0.1346845E+04  0.7818608E-02  0.8993220E-01
         -2   -1    0    0    0  501 -0.00000000000E+00  0.00000000000E+00  0.93684832310E+03  0.93684832310E+03  0.00000000000E+00 0.  1.
          2   -1    0    0  501    0  0.00000000000E+00 -0.00000000000E+00 -0.48406741146E+03  0.48406741146E+03  0.00000000000E+00 0. -1.
         23    2    1    2    0    0  0.22480760859E+03 -0.24789814475E+02  0.44631753745E+03  0.50790672184E+03  0.87274842113E+02 0.  0.
        254    2    1    2    0    0 -0.22480760859E+03  0.24789814475E+02  0.64633741883E+01  0.91300901273E+03  0.88452851075E+03 0.  0.
        -24    2    4    4    0    0 -0.37902537444E+03 -0.12404027692E+03 -0.31679634130E+03  0.51532546448E+03  0.78448631018E+02 0.  0.
         24    2    4    4    0    0  0.15421776585E+03  0.14883009140E+03  0.32325971549E+03  0.39768354825E+03  0.87874031896E+02 0.  0.
         13    1    3    3    0    0  0.12679726288E+03 -0.38835621400E+02  0.32694846256E+03  0.35281871908E+03  0.00000000000E+00 0.  1.
        -13    1    3    3    0    0  0.98010345703E+02  0.14045806925E+02  0.11936907490E+03  0.15508800276E+03  0.00000000000E+00 0. -1.
          2    1    6    6  502    0 -0.50764391077E+01  0.35991404833E+02  0.47063125229E+02  0.59465025117E+02  0.00000000000E+00 0. -1.
          3    1    5    5  503    0 -0.31334749919E+02 -0.19452544233E+02 -0.59511916507E+01  0.37358863898E+02  0.00000000000E+00 0. -1.
         -4    1    5    5    0  503 -0.34769062452E+03 -0.10458773269E+03 -0.31084514965E+03  0.47796660058E+03  0.00000000000E+00 0.  1.
         -1    1    6    6    0  502  0.15929420496E+03  0.11283868657E+03  0.27619659026E+03  0.33821852313E+03  0.00000000000E+00 0.  1.
<mgrwt>
<rscale>  0 0.13468448E+04</rscale>
<asrwt>0</asrwt>
<pdfrwt beam="1">  1        2 0.74471910E-01 0.13468448E+04</pdfrwt>
<pdfrwt beam="2">  1       -2 0.14413051E+00 0.13468448E+04</pdfrwt>
<totfact> 0.20778391E+01</totfact>
</mgrwt>
</event>
<event>
12    1  0.1114484E-007  0.1694959E+04  0.7818608E-02  0.8764245E-01
         -2   -1    0    0    0  501 -0.00000000000E+00  0.00000000000E+00  0.44254836018E+03  0.44254836018E+03  0.00000000000E+00 0.  1.
          2   -1    0    0  501    0  0.00000000000E+00 -0.00000000000E+00 -0.16229218197E+04  0.16229218197E+04  0.00000000000E+00 0. -1.
         23    2    1    2    0    0  0.28728285749E+03  0.51993420571E+03 -0.55390612660E+03  0.81804847549E+03  0.97612974016E+02 0.  0.
        254    2    1    2    0    0 -0.28728285749E+03 -0.51993420571E+03 -0.62646733297E+03  0.12474217044E+04  0.90040911310E+03 0.  0.
        -24    2    4    4    0    0 -0.52232378737E+02 -0.46804169219E+03 -0.80587952507E+03  0.93678597550E+03  0.79592135019E+02 0.  0.
         24    2    4    4    0    0 -0.23505047875E+03 -0.51892513523E+02  0.17941219211E+03  0.31063572893E+03  0.79776317870E+02 0.  0.
         11    1    3    3    0    0  0.27346654085E+03  0.50515679658E+03 -0.55366443120E+03  0.79781679630E+03  0.00000000000E+00 0.  1.
        -11    1    3    3    0    0  0.13816316640E+02  0.14777409130E+02 -0.24169540489E+00  0.20231679188E+02  0.00000000000E+00 0. -1.
          4    1    6    6  502    0 -0.19061803184E+03 -0.16695978405E+02  0.10890563124E+03  0.22016908564E+03  0.00000000000E+00 0. -1.
          3    1    5    5  503    0  0.57781456449E+01 -0.22110800641E+03 -0.32530577248E+03  0.39337765960E+03  0.00000000000E+00 0. -1.
         -4    1    5    5    0  503 -0.58010524382E+02 -0.24693368578E+03 -0.48057375259E+03  0.54340831590E+03  0.00000000000E+00 0.  1.
         -3    1    6    6    0  502 -0.44432446910E+02 -0.35196535118E+02  0.70506560867E+02  0.90466643289E+02  0.00000000000E+00 0.  1.
<mgrwt>
<rscale>  0 0.16949589E+04</rscale>
<asrwt>0</asrwt>
<pdfrwt beam="1">  1        2 0.24968028E+00 0.16949589E+04</pdfrwt>
<pdfrwt beam="2">  1       -2 0.68084363E-01 0.16949589E+04</pdfrwt>
<totfact> 0.20352422E+01</totfact>
</mgrwt>
</event>
<event>
12    1  0.1143325E-007  0.2012685E+04  0.7818608E-02  0.8600713E-01
          2   -1    0    0  501    0  0.00000000000E+00  0.00000000000E+00  0.18062107696E+04  0.18062107696E+04  0.00000000000E+00 0. -1.
         -2   -1    0    0    0  501 -0.00000000000E+00 -0.00000000000E+00 -0.56069060584E+03  0.56069060584E+03  0.00000000000E+00 0.  1.
         23    2    1    2    0    0 -0.63060074984E+03 -0.20402839919E+03  0.10274417052E+04  0.12262697208E+04  0.93893968329E+02 0.  0.
        254    2    1    2    0    0  0.63060074984E+03  0.20402839919E+03  0.21807845860E+03  0.11406316546E+04  0.90232891124E+03 0.  0.
        -24    2    4    4    0    0  0.17916613918E+03 -0.34927502500E+03  0.70591657667E+02  0.40663664883E+03  0.79225207600E+02 0.  0.
         24    2    4    4    0    0  0.45143461066E+03  0.55330342420E+03  0.14748680093E+03  0.73399500580E+03  0.84014434206E+02 0.  0.
         11    1    3    3    0    0 -0.97318353695E+02 -0.35229241095E+02  0.22993267319E+03  0.25215272276E+03  0.00000000000E+00 0.  1.
        -11    1    3    3    0    0 -0.53328239614E+03 -0.16879915810E+03  0.79750903197E+03  0.97411699805E+03  0.00000000000E+00 0. -1.
          4    1    6    6  502    0  0.56876776428E+02  0.84510689892E+02 -0.69307123053E+01  0.10210317907E+03  0.00000000000E+00 0. -1.
          1    1    5    5  503    0  0.19845796060E+02 -0.23464462258E+02  0.27804810009E+02  0.41443263264E+02  0.00000000000E+00 0. -1.
         -2    1    5    5    0  503  0.15932034312E+03 -0.32581056275E+03  0.42786847658E+02  0.36519338557E+03  0.00000000000E+00 0.  1.
         -3    1    6    6    0  502  0.39455783423E+03  0.46879273431E+03  0.15441751324E+03  0.63189182673E+03  0.00000000000E+00 0.  1.
<mgrwt>
<rscale>  0 0.20126852E+04</rscale>
<asrwt>0</asrwt>
<pdfrwt beam="1">  1        2 0.27787858E+00 0.20126852E+04</pdfrwt>
<pdfrwt beam="2">  1       -2 0.86260094E-01 0.20126852E+04</pdfrwt>
<totfact> 0.92563341E+00</totfact>
</mgrwt>
</event>
<event>
12    1  0.1114484E-007  0.1132673E+04  0.7818608E-02  0.9173919E-01
          2   -1    0    0  501    0  0.00000000000E+00  0.00000000000E+00  0.62439409144E+03  0.62439409144E+03  0.00000000000E+00 0. -1.
         -2   -1    0    0    0  501 -0.00000000000E+00 -0.00000000000E+00 -0.51367691569E+03  0.51367691569E+03  0.00000000000E+00 0.  1.
         23    2    1    2    0    0  0.73390845181E+02  0.18349883614E+03 -0.33123406208E+02  0.22029349644E+03  0.91509701764E+02 0.  0.
        254    2    1    2    0    0 -0.73390845181E+02 -0.18349883614E+03  0.14384058196E+03  0.91777751069E+03  0.88462840057E+03 0.  0.
        -24    2    4    4    0    0 -0.44267021559E+03 -0.68592603115E+02  0.23527856249E+03  0.51218472466E+03  0.79469020618E+02 0.  0.
         24    2    4    4    0    0  0.36927937040E+03 -0.11490623302E+03 -0.91437980537E+02  0.40559278603E+03  0.81079639863E+02 0.  0.
         13    1    3    3    0    0  0.29664856954E+02  0.33568818042E+02 -0.45215592637E+02  0.63649973294E+02  0.00000000000E+00 0. -1.
        -13    1    3    3    0    0  0.43725988227E+02  0.14993001810E+03  0.12092186428E+02  0.15664352315E+03  0.00000000000E+00 0.  1.
          2    1    6    6  502    0  0.35434428486E+03 -0.10990553140E+03 -0.67728863389E+02  0.37712901901E+03  0.00000000000E+00 0. -1.
          3    1    5    5  503    0 -0.25879650859E+03 -0.36687576290E+02  0.18063780975E+03  0.31772886149E+03  0.00000000000E+00 0. -1.
         -4    1    5    5    0  503 -0.18387370699E+03 -0.31905026825E+02  0.54640752741E+02  0.19445586317E+03  0.00000000000E+00 0.  1.
         -1    1    6    6    0  502  0.14935085548E+02 -0.50007016246E+01 -0.23709117148E+02  0.28463767020E+02  0.00000000000E+00 0.  1.
<mgrwt>
<rscale>  0 0.11326726E+04</rscale>
<asrwt>0</asrwt>
<pdfrwt beam="1">  1        2 0.96060630E-01 0.11326726E+04</pdfrwt>
<pdfrwt beam="2">  1       -2 0.79027217E-01 0.11326726E+04</pdfrwt>
<totfact> 0.66558405E+01</totfact>
</mgrwt>
</event>
<event>
12    1  0.1114484E-007  0.2923599E+04  0.7818608E-02  0.8265891E-01
         -1   -1    0    0    0  501 -0.00000000000E+00  0.00000000000E+00  0.65001847587E+03  0.65001847587E+03  0.00000000000E+00 0.  1.
          1   -1    0    0  501    0  0.00000000000E+00 -0.00000000000E+00 -0.32873800526E+04  0.32873800526E+04  0.00000000000E+00 0. -1.
         23    2    1    2    0    0  0.28018193167E+03 -0.84127525573E+03 -0.25159723248E+04  0.26691970925E+04  0.90831759260E+02 0.  0.
        254    2    1    2    0    0 -0.28018193167E+03  0.84127525573E+03 -0.12138925194E+03  0.12682014360E+04  0.89852855330E+03 0.  0.
        -24    2    4    4    0    0  0.26284940039E+03  0.85799234611E+02  0.10700647725E+03  0.30691282571E+03  0.79333350258E+02 0.  0.
         24    2    4    4    0    0 -0.54303133206E+03  0.75547602112E+03 -0.22839572919E+03  0.96128861031E+03  0.79272549619E+02 0.  0.
         11    1    3    3    0    0  0.25251172116E+03 -0.81322251034E+03 -0.24204721533E+04  0.25658874616E+04  0.00000000000E+00 0. -1.
        -11    1    3    3    0    0  0.27670210510E+02 -0.28052745386E+02 -0.95500171528E+02  0.10330963089E+03  0.00000000000E+00 0.  1.
          4    1    6    6  502    0 -0.41239082723E+03  0.62474100216E+03 -0.17241375084E+03  0.76817577132E+03  0.00000000000E+00 0. -1.
          3    1    5    5  503    0  0.17138223854E+03  0.81028785619E+02  0.10179360150E+03  0.21517312353E+03  0.00000000000E+00 0. -1.
         -4    1    5    5    0  503  0.91467161855E+02  0.47704489919E+01  0.52128757531E+01  0.91739702174E+02  0.00000000000E+00 0.  1.
         -1    1    6    6    0  502 -0.13064050484E+03  0.13073501896E+03 -0.55981978348E+02  0.19311283900E+03  0.00000000000E+00 0.  1.
<mgrwt>
<rscale>  0 0.29235990E+04</rscale>
<asrwt>0</asrwt>
<pdfrwt beam="1">  1        1 0.50575077E+00 0.29235990E+04</pdfrwt>
<pdfrwt beam="2">  1       -1 0.10000284E+00 0.29235990E+04</pdfrwt>
<totfact> 0.29787559E-01</totfact>
</mgrwt>
</event>
<event>
12    1  0.1114484E-007  0.1568829E+04  0.7818608E-02  0.8839929E-01
         -2   -1    0    0    0  501 -0.00000000000E+00  0.00000000000E+00  0.64666976852E+03  0.64666976852E+03  0.00000000000E+00 0.  1.
          2   -1    0    0  501    0  0.00000000000E+00 -0.00000000000E+00 -0.95150015605E+03  0.95150015605E+03  0.00000000000E+00 0. -1.
         23    2    1    2    0    0  0.23904890958E+03  0.80134349087E+02 -0.53143899285E+03  0.59504935690E+03  0.89946867347E+02 0.  0.
        254    2    1    2    0    0 -0.23904890958E+03 -0.80134349087E+02  0.22660860532E+03  0.10031205677E+04  0.94410461189E+03 0.  0.
        -24    2    4    4    0    0 -0.90429854727E+02 -0.21597669703E+02  0.58797930423E+03  0.60059983473E+03  0.79727544287E+02 0.  0.
         24    2    4    4    0    0 -0.14861905485E+03 -0.58536679384E+02 -0.36137069890E+03  0.40252073293E+03  0.76941484997E+02 0.  0.
         11    1    3    3    0    0  0.11141431725E+03  0.73514077071E+02 -0.33586820880E+03  0.36142070126E+03  0.00000000000E+00 0.  1.
        -11    1    3    3    0    0  0.12763459233E+03  0.66202720156E+01 -0.19557078406E+03  0.23362865564E+03  0.00000000000E+00 0. -1.
          2    1    6    6  502    0 -0.91641169429E+02  0.41701859141E+01 -0.16831188264E+03  0.19168824748E+03  0.00000000000E+00 0. -1.
          3    1    5    5  503    0 -0.46132630077E+02  0.17540917909E+01  0.10097851029E+03  0.11103132863E+03  0.00000000000E+00 0. -1.
         -4    1    5    5    0  503 -0.44297224650E+02 -0.23351761494E+02  0.48700079394E+03  0.48956850611E+03  0.00000000000E+00 0.  1.
         -1    1    6    6    0  502 -0.56977885423E+02 -0.62706865299E+02 -0.19305881627E+03  0.21083248545E+03  0.00000000000E+00 0.  1.
<mgrwt>
<rscale>  0 0.15688294E+04</rscale>
<asrwt>0</asrwt>
<pdfrwt beam="1">  1        2 0.14638464E+00 0.15688294E+04</pdfrwt>
<pdfrwt beam="2">  1       -2 0.99487656E-01 0.15688294E+04</pdfrwt>
<totfact> 0.21774765E+01</totfact>
</mgrwt>
</event>
<event>
12    1  0.1114484E-007  0.1558915E+04  0.7818608E-02  0.8846193E-01
         -2   -1    0    0    0  501 -0.00000000000E+00  0.00000000000E+00  0.19699387280E+03  0.19699387280E+03  0.00000000000E+00 0.  1.
          2   -1    0    0  501    0  0.00000000000E+00 -0.00000000000E+00 -0.30841257615E+04  0.30841257615E+04  0.00000000000E+00 0. -1.
         23    2    1    2    0    0  0.18602610299E+03 -0.33072244107E+03 -0.23194643117E+03  0.45386036498E+03  0.90592714669E+02 0.  0.
        254    2    1    2    0    0 -0.18602610299E+03  0.33072244107E+03 -0.26551854575E+04  0.28272592693E+04  0.89409290237E+03 0.  0.
        -24    2    4    4    0    0 -0.22828248535E+03 -0.24329649183E+03 -0.59507445804E+03  0.68676203588E+03  0.78882236614E+02 0.  0.
         24    2    4    4    0    0  0.42256382359E+02  0.57401893290E+03 -0.20601109995E+04  0.21404972334E+04  0.79923332036E+02 0.  0.
         13    1    3    3    0    0  0.44653090601E+01 -0.29569371138E+02 -0.49161571822E+02  0.57542565450E+02  0.00000000000E+00 0. -1.
        -13    1    3    3    0    0  0.18156079393E+03 -0.30115306993E+03 -0.18278485934E+03  0.39631779953E+03  0.00000000000E+00 0.  1.
          2    1    6    6  502    0  0.44065953511E+01  0.46698237927E+03 -0.16933020168E+04  0.17565203331E+04  0.00000000000E+00 0. -1.
          1    1    5    5  503    0 -0.18230561427E+03 -0.18999896266E+03 -0.39548545200E+03  0.47512491573E+03  0.00000000000E+00 0. -1.
         -2    1    5    5    0  503 -0.45976871076E+02 -0.53297529175E+02 -0.19958900605E+03  0.21163712015E+03  0.00000000000E+00 0.  1.
         -1    1    6    6    0  502  0.37849787008E+02  0.10703655363E+03 -0.36680898270E+03  0.38397690032E+03  0.00000000000E+00 0.  1.
<mgrwt>
<rscale>  0 0.15589149E+04</rscale>
<asrwt>0</asrwt>
<pdfrwt beam="1">  1        2 0.47448090E+00 0.15589149E+04</pdfrwt>
<pdfrwt beam="2">  1       -2 0.30306749E-01 0.15589149E+04</pdfrwt>
<totfact> 0.15018773E+01</totfact>
</mgrwt>
</event>
<event>
12    1  0.1114484E-007  0.1399801E+04  0.7818608E-02  0.8953963E-01
          2   -1    0    0  501    0  0.00000000000E+00  0.00000000000E+00  0.66476454817E+03  0.66476454817E+03  0.00000000000E+00 0. -1.
         -2   -1    0    0    0  501 -0.00000000000E+00 -0.00000000000E+00 -0.73689360710E+03  0.73689360710E+03  0.00000000000E+00 0.  1.
         23    2    1    2    0    0  0.34496037557E+03  0.70865995760E+02  0.16704334312E+03  0.40012602035E+03  0.90430656357E+02 0.  0.
        254    2    1    2    0    0 -0.34496037557E+03 -0.70865995760E+02 -0.23917240205E+03  0.10015321349E+04  0.90655586111E+03 0.  0.
        -24    2    4    4    0    0  0.17844305445E+03 -0.32129545969E+03 -0.16642197795E+03  0.41128947483E+03  0.79937858751E+02 0.  0.
         24    2    4    4    0    0 -0.52340343003E+03  0.25042946393E+03 -0.72750424094E+02  0.59024266009E+03  0.80172979378E+02 0.  0.
         13    1    3    3    0    0  0.14158154136E+03  0.68644065968E+02  0.48211214983E+02  0.16456506888E+03  0.00000000000E+00 0.  1.
        -13    1    3    3    0    0  0.20337883422E+03  0.22219297921E+01  0.11883212814E+03  0.23556095147E+03  0.00000000000E+00 0. -1.
          4    1    6    6  502    0 -0.24440543761E+03  0.14723425754E+03 -0.65165690849E+02  0.29267475427E+03  0.00000000000E+00 0. -1.
          3    1    5    5  503    0  0.32198500856E+02 -0.13038103433E+03 -0.43245290770E+02  0.14108902418E+03  0.00000000000E+00 0. -1.
         -4    1    5    5    0  503  0.14624455360E+03 -0.19091442536E+03 -0.12317668718E+03  0.27020045065E+03  0.00000000000E+00 0.  1.
         -3    1    6    6    0  502 -0.27899799242E+03  0.10319520638E+03 -0.75847332445E+01  0.29756790582E+03  0.00000000000E+00 0.  1.
<mgrwt>
<rscale>  0 0.13998011E+04</rscale>
<asrwt>0</asrwt>
<pdfrwt beam="1">  1        2 0.10227147E+00 0.13998011E+04</pdfrwt>
<pdfrwt beam="2">  1       -2 0.11336825E+00 0.13998011E+04</pdfrwt>
<totfact> 0.25984031E+01</totfact>
</mgrwt>
</event>
<event>
12    1  0.1114484E-007  0.1605283E+04  0.7818608E-02  0.8817309E-01
          2   -1    0    0  501    0  0.00000000000E+00  0.00000000000E+00  0.98198251815E+03  0.98198251815E+03  0.00000000000E+00 0.  1.
         -2   -1    0    0    0  501 -0.00000000000E+00 -0.00000000000E+00 -0.65605359668E+03  0.65605359668E+03  0.00000000000E+00 0. -1.
         23    2    1    2    0    0 -0.39040375934E+02 -0.31622197690E+03 -0.34090566246E+03  0.47483265745E+03  0.87914118642E+02 0.  0.
        254    2    1    2    0    0  0.39040375934E+02  0.31622197690E+03  0.66683458392E+03  0.11632034574E+04  0.89825020530E+03 0.  0.
        -24    2    4    4    0    0 -0.25634196089E+03  0.19689904981E+03  0.75231951077E+03  0.82280925154E+03  0.80931955328E+02 0.  0.
         24    2    4    4    0    0  0.29538233683E+03  0.11932292708E+03 -0.85484926853E+02  0.34039420584E+03  0.84094332840E+02 0.  0.
         13    1    3    3    0    0 -0.34457055308E+02 -0.15705105522E+03 -0.23060728550E+03  0.28112638214E+03  0.00000000000E+00 0.  1.
        -13    1    3    3    0    0 -0.45833206260E+01 -0.15917092168E+03 -0.11029837695E+03  0.19370627531E+03  0.00000000000E+00 0. -1.
          2    1    6    6  502    0  0.16173107373E+03  0.10384267474E+03 -0.71733225215E+02  0.20514847527E+03  0.00000000000E+00 0. -1.
          1    1    5    5  503    0 -0.90348881384E+02  0.61758101745E+02  0.35519035133E+03  0.37166809007E+03  0.00000000000E+00 0. -1.
         -2    1    5    5    0  503 -0.16599307951E+03  0.13514094807E+03  0.39712915945E+03  0.45114116147E+03  0.00000000000E+00 0.  1.
         -1    1    6    6    0  502  0.13365126310E+03  0.15480252348E+02 -0.13751701638E+02  0.13524573058E+03  0.00000000000E+00 0.  1.
<mgrwt>
<rscale>  0 0.16052827E+04</rscale>
<asrwt>0</asrwt>
<pdfrwt beam="1">  1        2 0.15107423E+00 0.16052827E+04</pdfrwt>
<pdfrwt beam="2">  1       -2 0.10093132E+00 0.16052827E+04</pdfrwt>
<totfact> 0.20042295E+01</totfact>
</mgrwt>
</event>
<event>
12    1  0.1114484E-007  0.1395605E+04  0.7818608E-02  0.8957006E-01
          2   -1    0    0  501    0  0.00000000000E+00  0.00000000000E+00  0.67349216723E+03  0.67349216723E+03  0.00000000000E+00 0. -1.
         -2   -1    0    0    0  501 -0.00000000000E+00 -0.00000000000E+00 -0.72299009851E+03  0.72299009851E+03  0.00000000000E+00 0.  1.
         23    2    1    2    0    0 -0.24877800147E+03 -0.41008523454E+02 -0.33024864479E+03  0.42553882259E+03  0.91907176682E+02 0.  0.
        254    2    1    2    0    0  0.24877800147E+03  0.41008523454E+02  0.28075071352E+03  0.97094344315E+03  0.89461612642E+03 0.  0.
        -24    2    4    4    0    0  0.26936291064E+03 -0.21342989555E+03  0.50904909159E+03  0.61935908059E+03  0.79787186355E+02 0.  0.
         24    2    4    4    0    0 -0.20584909170E+02  0.25443841900E+03 -0.22829837808E+03  0.35158436257E+03  0.79553548124E+02 0.  0.
         11    1    3    3    0    0 -0.56658984622E+02 -0.37831001905E+02 -0.45135269787E+02  0.81722810906E+02  0.00000000000E+00 0. -1.
        -11    1    3    3    0    0 -0.19211901685E+03 -0.31775215488E+01 -0.28511337501E+03  0.34381601168E+03  0.00000000000E+00 0.  1.
          4    1    6    6  502    0 -0.47854299217E+02  0.18999439120E+03 -0.15136207131E+03  0.24758509501E+03  0.00000000000E+00 0. -1.
          1    1    5    5  503    0  0.24995684956E+03 -0.21249028363E+03  0.44790325839E+03  0.55520075302E+03  0.00000000000E+00 0. -1.
         -2    1    5    5    0  503  0.19406061086E+02 -0.93961191453E+00  0.61145833210E+02  0.64158327568E+02  0.00000000000E+00 0.  1.
         -3    1    6    6    0  502  0.27269390047E+02  0.64444027802E+02 -0.76936306769E+02  0.10399926756E+03  0.00000000000E+00 0.  1.
<mgrwt>
<rscale>  0 0.13956048E+04</rscale>
<asrwt>0</asrwt>
<pdfrwt beam="1">  1        2 0.10361418E+00 0.13956048E+04</pdfrwt>
<pdfrwt beam="2">  1       -2 0.11122925E+00 0.13956048E+04</pdfrwt>
<totfact> 0.26785640E+01</totfact>
</mgrwt>
</event>
<event>
12    1  0.1114484E-007  0.1864052E+04  0.7818608E-02  0.8672960E-01
         -1   -1    0    0    0  501 -0.00000000000E+00  0.00000000000E+00  0.88544158121E+03  0.88544158121E+03  0.00000000000E+00 0.  1.
          1   -1    0    0  501    0  0.00000000000E+00 -0.00000000000E+00 -0.98106099452E+03  0.98106099452E+03  0.00000000000E+00 0. -1.
         23    2    1    2    0    0 -0.66855250305E+03 -0.11996646537E+03 -0.24127160893E+03  0.72785739307E+03  0.10104451107E+03 0.  0.
        254    2    1    2    0    0  0.66855250305E+03  0.11996646537E+03  0.14565219562E+03  0.11386451827E+04  0.90218838817E+03 0.  0.
        -24    2    4    4    0    0  0.69155997084E+03  0.38635737476E+03 -0.50336500342E+02  0.79750858483E+03  0.77194334742E+02 0.  0.
         24    2    4    4    0    0 -0.23007467790E+02 -0.26639090938E+03  0.19598869596E+03  0.34113659783E+03  0.80431021737E+02 0.  0.
         13    1    3    3    0    0 -0.12220939378E+03 -0.30550490402E+02 -0.53818525584E+01  0.12608502183E+03  0.00000000000E+00 0.  1.
        -13    1    3    3    0    0 -0.54634310927E+03 -0.89415974973E+02 -0.23588975638E+03  0.60177237124E+03  0.00000000000E+00 0. -1.
          2    1    6    6  502    0 -0.46336025806E+02 -0.20857229430E+03  0.12880221548E+03  0.24947833563E+03  0.00000000000E+00 0. -1.
          1    1    5    5  503    0  0.66484082828E+03  0.37262246881E+03 -0.33073993024E+02  0.76285956783E+03  0.00000000000E+00 0. -1.
         -2    1    5    5    0  503  0.26719142563E+02  0.13734905943E+02 -0.17262507318E+02  0.34649017006E+02  0.00000000000E+00 0.  1.
         -1    1    6    6    0  502  0.23328558017E+02 -0.57818615078E+02  0.67186480483E+02  0.91658262194E+02  0.00000000000E+00 0.  1.
<mgrwt>
<rscale>  0 0.18640517E+04</rscale>
<asrwt>0</asrwt>
<pdfrwt beam="1">  1        1 0.15093246E+00 0.18640517E+04</pdfrwt>
<pdfrwt beam="2">  1       -1 0.13622178E+00 0.18640517E+04</pdfrwt>
<totfact> 0.66150502E+00</totfact>
</mgrwt>
</event>
<event>
12    1  0.1114484E-007  0.2078221E+04  0.7818608E-02  0.8570898E-01
         -2   -1    0    0    0  501 -0.00000000000E+00  0.00000000000E+00  0.36228473704E+03  0.36228473704E+03  0.00000000000E+00 0.  1.
          2   -1    0    0  501    0  0.00000000000E+00 -0.00000000000E+00 -0.29803930960E+04  0.29803930960E+04  0.00000000000E+00 0. -1.
         23    2    1    2    0    0 -0.62383769076E+03 -0.63665052085E+02 -0.17241673943E+03  0.65686913272E+03  0.92319132404E+02 0.  0.
        254    2    1    2    0    0  0.62383769076E+03  0.63665052085E+02 -0.24456916196E+04  0.26858087004E+04  0.91593349849E+03 0.  0.
        -24    2    4    4    0    0  0.23632577381E+03  0.38297441558E+03 -0.18347397411E+04  0.18911114208E+04  0.86678797494E+02 0.  0.
         24    2    4    4    0    0  0.38751191695E+03 -0.31930936350E+03 -0.61095187845E+03  0.79469727955E+03  0.78470459098E+02 0.  0.
         11    1    3    3    0    0 -0.14174559745E+03  0.95861919612E+01 -0.80897677777E+01  0.14229952149E+03  0.00000000000E+00 0. -1.
        -11    1    3    3    0    0 -0.48209209331E+03 -0.73251244047E+02 -0.16432697165E+03  0.51456961123E+03  0.00000000000E+00 0.  1.
          2    1    6    6  502    0  0.42793366003E+02 -0.10033461417E+02 -0.39061847547E+02  0.58802809930E+02  0.00000000000E+00 0. -1.
          3    1    5    5  503    0  0.59298732984E+02  0.15964991693E+03 -0.58461762368E+03  0.60891887935E+03  0.00000000000E+00 0. -1.
         -4    1    5    5    0  503  0.17702704083E+03  0.22332449866E+03 -0.12501221174E+04  0.12821925415E+04  0.00000000000E+00 0.  1.
         -1    1    6    6    0  502  0.34471855095E+03 -0.30927590208E+03 -0.57189003091E+03  0.73589446962E+03  0.00000000000E+00 0.  1.
<mgrwt>
<rscale>  0 0.20782213E+04</rscale>
<asrwt>0</asrwt>
<pdfrwt beam="1">  1        2 0.45852203E+00 0.20782213E+04</pdfrwt>
<pdfrwt beam="2">  1       -2 0.55736112E-01 0.20782213E+04</pdfrwt>
<totfact> 0.50093386E+00</totfact>
</mgrwt>
</event>
<event>
12    1  0.1114484E-007  0.2671567E+04  0.7818608E-02  0.8344290E-01
         -1   -1    0    0    0  501 -0.00000000000E+00  0.00000000000E+00  0.18982002754E+04  0.18982002754E+04  0.00000000000E+00 0.  1.
          1   -1    0    0  501    0  0.00000000000E+00 -0.00000000000E+00 -0.94000496369E+03  0.94000496369E+03  0.00000000000E+00 0. -1.
         23    2    1    2    0    0 -0.11379508725E+03 -0.82712263547E+03  0.13140788645E+04  0.15595081622E+04  0.90450372725E+02 0.  0.
        254    2    1    2    0    0  0.11379508725E+03  0.82712263547E+03 -0.35588355280E+03  0.12786970768E+04  0.90073966006E+03 0.  0.
        -24    2    4    4    0    0 -0.62516263237E+02  0.60065088154E+03 -0.62676149576E+03  0.87453399818E+03  0.85381360556E+02 0.  0.
         24    2    4    4    0    0  0.17631135048E+03  0.22647175393E+03  0.27087794296E+03  0.40416307867E+03  0.87165282874E+02 0.  0.
         11    1    3    3    0    0 -0.10301187898E+03 -0.50666708919E+03  0.75635307543E+03  0.91618391232E+03  0.00000000000E+00 0.  1.
        -11    1    3    3    0    0 -0.10783208272E+02 -0.32045554628E+03  0.55772578905E+03  0.64332424989E+03  0.00000000000E+00 0. -1.
          4    1    6    6  502    0  0.15011415159E+03  0.17526697168E+03  0.16505093708E+03  0.28371567053E+03  0.00000000000E+00 0. -1.
          1    1    5    5  503    0 -0.78291152235E+02  0.45321866174E+03 -0.50108710389E+03  0.68016538103E+03  0.00000000000E+00 0. -1.
         -2    1    5    5    0  503  0.15774888998E+02  0.14743221980E+03 -0.12567439187E+03  0.19436861715E+03  0.00000000000E+00 0.  1.
         -3    1    6    6    0  502  0.26197198895E+02  0.51204782246E+02  0.10582700588E+03  0.12044740814E+03  0.00000000000E+00 0.  1.
<mgrwt>
<rscale>  0 0.26715671E+04</rscale>
<asrwt>0</asrwt>
<pdfrwt beam="1">  1        1 0.14461615E+00 0.26715671E+04</pdfrwt>
<pdfrwt beam="2">  1       -1 0.29203081E+00 0.26715671E+04</pdfrwt>
<totfact> 0.54967667E-01</totfact>
</mgrwt>
</event>
<event>
12    1  0.1114484E-007  0.2412385E+04  0.7818608E-02  0.8434881E-01
          1   -1    0    0  501    0  0.00000000000E+00  0.00000000000E+00  0.10275250785E+04  0.10275250785E+04  0.00000000000E+00 0. -1.
         -1   -1    0    0    0  501 -0.00000000000E+00 -0.00000000000E+00 -0.14159272781E+04  0.14159272781E+04  0.00000000000E+00 0.  1.
         23    2    1    2    0    0  0.99617253371E+03  0.29175118038E+03 -0.16649049427E+03  0.10552077225E+04  0.90916361919E+02 0.  0.
        254    2    1    2    0    0 -0.99617253371E+03 -0.29175118038E+03 -0.22191170528E+03  0.13882446341E+04  0.89470659491E+03 0.  0.
        -24    2    4    4    0    0 -0.10664286818E+04 -0.22431743000E+03 -0.40425036365E+03  0.11655285432E+04  0.86313299801E+02 0.  0.
         24    2    4    4    0    0  0.70256148102E+02 -0.67433750383E+02  0.18233865838E+03  0.22271609089E+03  0.82896524440E+02 0.  0.
         11    1    3    3    0    0  0.99112494556E+03  0.29469752654E+03 -0.17070046294E+03  0.10480047414E+04  0.00000000000E+00 0.  1.
        -11    1    3    3    0    0  0.50475881496E+01 -0.29463461562E+01  0.42099686690E+01  0.72029811880E+01  0.00000000000E+00 0. -1.
          2    1    6    6  502    0  0.61848837938E+02 -0.86397371930E+02  0.14195306539E+03  0.17731457189E+03  0.00000000000E+00 0. -1.
          3    1    5    5  503    0 -0.20424392520E+03 -0.10437126427E+02 -0.64218119499E+02  0.21435596904E+03  0.00000000000E+00 0. -1.
         -4    1    5    5    0  503 -0.86218475661E+03 -0.21388030357E+03 -0.34003224415E+03  0.95117257417E+03  0.00000000000E+00 0.  1.
         -1    1    6    6    0  502  0.84073101642E+01  0.18963621547E+02  0.40385592985E+02  0.45401518996E+02  0.00000000000E+00 0.  1.
<mgrwt>
<rscale>  0 0.24123854E+04</rscale>
<asrwt>0</asrwt>
<pdfrwt beam="1">  1        1 0.15808078E+00 0.24123854E+04</pdfrwt>
<pdfrwt beam="2">  1       -1 0.21783497E+00 0.24123854E+04</pdfrwt>
<totfact> 0.14670797E+00</totfact>
</mgrwt>
</event>
<event>
12    1  0.1114484E-007  0.2775168E+04  0.7818608E-02  0.8311019E-01
          2   -1    0    0  501    0  0.00000000000E+00  0.00000000000E+00  0.43609379084E+04  0.43609379084E+04  0.00000000000E+00 0. -1.
         -2   -1    0    0    0  501 -0.00000000000E+00 -0.00000000000E+00 -0.44150817303E+03  0.44150817303E+03  0.00000000000E+00 0.  1.
         23    2    1    2    0    0 -0.86696320057E+03  0.38040562585E+03  0.36887260233E+03  0.10202744380E+04  0.92516489095E+02 0.  0.
        254    2    1    2    0    0  0.86696320057E+03 -0.38040562585E+03  0.35505571330E+04  0.37821716434E+04  0.89556281417E+03 0.  0.
        -24    2    4    4    0    0  0.52974545870E+03 -0.37223674356E+03  0.91355540153E+03  0.11225070091E+04  0.79044730809E+02 0.  0.
         24    2    4    4    0    0  0.33721774187E+03 -0.81688822844E+01  0.26370017315E+04  0.26596646344E+04  0.79090449879E+02 0.  0.
         13    1    3    3    0    0 -0.38711500740E+03  0.12215086219E+03  0.17209331733E+03  0.44090245175E+03  0.00000000000E+00 0. -1.
        -13    1    3    3    0    0 -0.47984819317E+03  0.25825476366E+03  0.19677928500E+03  0.57937198625E+03  0.00000000000E+00 0.  1.
          4    1    6    6  502    0  0.14707020134E+03  0.34675496328E+02  0.12190017697E+04  0.12283311234E+04  0.00000000000E+00 0. -1.
          1    1    5    5  503    0  0.40635092325E+03 -0.32374642043E+03  0.73658968655E+03  0.90138625677E+03  0.00000000000E+00 0. -1.
         -2    1    5    5    0  503  0.12339453546E+03 -0.48490323134E+02  0.17696571498E+03  0.22112075230E+03  0.00000000000E+00 0.  1.
         -3    1    6    6    0  502  0.19014754053E+03 -0.42844378612E+02  0.14179999618E+04  0.14313335110E+04  0.00000000000E+00 0.  1.
<mgrwt>
<rscale>  0 0.27751683E+04</rscale>
<asrwt>0</asrwt>
<pdfrwt beam="1">  1        2 0.67091349E+00 0.27751683E+04</pdfrwt>
<pdfrwt beam="2">  1       -2 0.67924337E-01 0.27751683E+04</pdfrwt>
<totfact> 0.28927956E-01</totfact>
</mgrwt>
</event>
<event>
12    1  0.1114484E-007  0.1487860E+04  0.7818608E-02  0.8892566E-01
         -2   -1    0    0    0  501 -0.00000000000E+00  0.00000000000E+00  0.24997678487E+03  0.24997678487E+03  0.00000000000E+00 0.  1.
          2   -1    0    0  501    0  0.00000000000E+00 -0.00000000000E+00 -0.22139329707E+04  0.22139329707E+04  0.00000000000E+00 0. -1.
         23    2    1    2    0    0  0.27866265439E+03  0.34222024540E+03 -0.84414192459E+03  0.95585824924E+03  0.79509952040E+02 0.  0.
        254    2    1    2    0    0 -0.27866265439E+03 -0.34222024540E+03 -0.11198142612E+04  0.15080515063E+04  0.90855258227E+03 0.  0.
        -24    2    4    4    0    0  0.30167980258E+03  0.26496822142E+01 -0.49266664248E+03  0.58306283661E+03  0.78893134799E+02 0.  0.
         24    2    4    4    0    0 -0.58034245697E+03 -0.34486992762E+03 -0.62714761876E+03  0.92498866972E+03  0.80976966172E+02 0.  0.
         13    1    3    3    0    0  0.13124403210E+03  0.13404688079E+03 -0.28397486777E+03  0.34034583549E+03  0.00000000000E+00 0. -1.
        -13    1    3    3    0    0  0.14741862229E+03  0.20817336461E+03 -0.56016705682E+03  0.61551241375E+03  0.00000000000E+00 0.  1.
          4    1    6    6  502    0 -0.11834396321E+03 -0.35822929458E+02 -0.12717812106E+03  0.17737770542E+03  0.00000000000E+00 0. -1.
          3    1    5    5  503    0  0.27546319644E+02 -0.13115671613E+02 -0.20171817034E+02  0.36574892621E+02  0.00000000000E+00 0. -1.
         -4    1    5    5    0  503  0.27413348294E+03  0.15765353827E+02 -0.47249482545E+03  0.54648794399E+03  0.00000000000E+00 0.  1.
         -3    1    6    6    0  502 -0.46199849376E+03 -0.30904699816E+03 -0.49996949770E+03  0.74761096430E+03  0.00000000000E+00 0.  1.
<mgrwt>
<rscale>  0 0.14878600E+04</rscale>
<asrwt>0</asrwt>
<pdfrwt beam="1">  1        2 0.34060508E+00 0.14878600E+04</pdfrwt>
<pdfrwt beam="2">  1       -2 0.38457966E-01 0.14878600E+04</pdfrwt>
<totfact> 0.31358739E+01</totfact>
</mgrwt>
</event>
<event>
12    1  0.1114484E-007  0.2489433E+04  0.7818608E-02  0.8406760E-01
         -2   -1    0    0    0  501 -0.00000000000E+00  0.00000000000E+00  0.53029658176E+03  0.53029658176E+03  0.00000000000E+00 0.  1.
          2   -1    0    0  501    0  0.00000000000E+00 -0.00000000000E+00 -0.29216082665E+04  0.29216082665E+04  0.00000000000E+00 0. -1.
         23    2    1    2    0    0 -0.62578978855E+03 -0.12681965138E+03 -0.22494841814E+04  0.23401385639E+04  0.91505915741E+02 0.  0.
        254    2    1    2    0    0  0.62578978855E+03  0.12681965138E+03 -0.14182750332E+03  0.11117662843E+04  0.89900675571E+03 0.  0.
        -24    2    4    4    0    0 -0.21052962443E+03 -0.76494131678E+02 -0.88413171582E+01  0.23728768131E+03  0.77802312725E+02 0.  0.
         24    2    4    4    0    0  0.83631941298E+03  0.20331378306E+03 -0.13298618617E+03  0.87447860301E+03  0.79125511047E+02 0.  0.
         13    1    3    3    0    0 -0.33372157762E+03 -0.40700738364E+02 -0.10442964109E+04  0.10970786823E+04  0.00000000000E+00 0.  1.
        -13    1    3    3    0    0 -0.29206821094E+03 -0.86118913013E+02 -0.12051877705E+04  0.12430598816E+04  0.00000000000E+00 0. -1.
          4    1    6    6  502    0  0.23808340326E+03  0.38899957125E+02 -0.66704192043E+01  0.24133256735E+03  0.00000000000E+00 0. -1.
          1    1    5    5  503    0 -0.13878638240E+01 -0.20561914838E+02 -0.16889077441E+01  0.20677788015E+02  0.00000000000E+00 0. -1.
         -2    1    5    5    0  503 -0.20914176061E+03 -0.55932216840E+02 -0.71524094141E+01  0.21660989329E+03  0.00000000000E+00 0.  1.
         -3    1    6    6    0  502  0.59823600972E+03  0.16441382593E+03 -0.12631576696E+03  0.63314603566E+03  0.00000000000E+00 0.  1.
<mgrwt>
<rscale>  0 0.24894328E+04</rscale>
<asrwt>0</asrwt>
<pdfrwt beam="1">  1        2 0.44947819E+00 0.24894328E+04</pdfrwt>
<pdfrwt beam="2">  1       -2 0.81584090E-01 0.24894328E+04</pdfrwt>
<totfact> 0.23002364E+00</totfact>
</mgrwt>
</event>
<event>
12    1  0.1114484E-007  0.1419645E+04  0.7818608E-02  0.8939720E-01
         -2   -1    0    0    0  501 -0.00000000000E+00  0.00000000000E+00  0.10523232684E+04  0.10523232684E+04  0.00000000000E+00 0.  1.
          2   -1    0    0  501    0  0.00000000000E+00 -0.00000000000E+00 -0.47879555796E+03  0.47879555796E+03  0.00000000000E+00 0. -1.
         23    2    1    2    0    0  0.19991396458E+03 -0.28090809907E+02  0.56584770777E+03  0.60852117687E+03  0.96745581188E+02 0.  0.
        254    2    1    2    0    0 -0.19991396458E+03  0.28090809907E+02  0.76800027187E+01  0.92259764953E+03  0.90020706154E+03 0.  0.
        -24    2    4    4    0    0 -0.60234556929E+02  0.45427910956E+03 -0.28944348930E+02  0.46566207360E+03  0.77496323906E+02 0.  0.
         24    2    4    4    0    0 -0.13967940765E+03 -0.42618829966E+03  0.36624351649E+02  0.45693557593E+03  0.79384971688E+02 0.  0.
         11    1    3    3    0    0  0.21375049978E+01 -0.22033872511E+02  0.29820869172E+02  0.37139530202E+02  0.00000000000E+00 0. -1.
        -11    1    3    3    0    0  0.19777645959E+03 -0.60569373964E+01  0.53602683859E+03  0.57138164667E+03  0.00000000000E+00 0.  1.
          4    1    6    6  502    0 -0.55020359549E+02 -0.18802506642E+03 -0.22943711730E+02  0.19724877560E+03  0.00000000000E+00 0. -1.
          1    1    5    5  503    0 -0.57679548869E+01 -0.96908397057E+00  0.18495796949E+01  0.61342784716E+01  0.00000000000E+00 0. -1.
         -2    1    5    5    0  503 -0.54466602042E+02  0.45524819353E+03 -0.30793928625E+02  0.45952779513E+03  0.00000000000E+00 0.  1.
         -3    1    6    6    0  502 -0.84659048106E+02 -0.23816323324E+03  0.59568063379E+02  0.25968680033E+03  0.00000000000E+00 0.  1.
<mgrwt>
<rscale>  0 0.14196446E+04</rscale>
<asrwt>0</asrwt>
<pdfrwt beam="1">  1        2 0.73660855E-01 0.14196446E+04</pdfrwt>
<pdfrwt beam="2">  1       -2 0.16189589E+00 0.14196446E+04</pdfrwt>
<totfact> 0.15335506E+01</totfact>
</mgrwt>
</event>
<event>
12    1  0.1114484E-007  0.1909505E+04  0.7818608E-02  0.8650140E-01
         -2   -1    0    0    0  501 -0.00000000000E+00  0.00000000000E+00  0.98125527458E+03  0.98125527458E+03  0.00000000000E+00 0.  1.
          2   -1    0    0  501    0  0.00000000000E+00 -0.00000000000E+00 -0.92896545234E+03  0.92896545234E+03  0.00000000000E+00 0. -1.
         23    2    1    2    0    0 -0.63815276212E+03 -0.30070543006E+03  0.22092501144E+03  0.74484936252E+03  0.91268881269E+02 0.  0.
        254    2    1    2    0    0  0.63815276212E+03  0.30070543006E+03 -0.16863518920E+03  0.11653713644E+04  0.91213479621E+03 0.  0.
        -24    2    4    4    0    0  0.81554143628E+03  0.33148967326E+02 -0.15490082449E+03  0.83465305160E+03  0.80279279949E+02 0.  0.
         24    2    4    4    0    0 -0.17738867416E+03  0.26755646273E+03 -0.13734364709E+02  0.33071831280E+03  0.78311986179E+02 0.  0.
         13    1    3    3    0    0 -0.61176148086E+03 -0.30253233625E+03  0.20018081600E+03  0.71123152562E+03  0.00000000000E+00 0.  1.
        -13    1    3    3    0    0 -0.26391281258E+02  0.18269061915E+01  0.20744195446E+02  0.33617836894E+02  0.00000000000E+00 0. -1.
          2    1    6    6  502    0 -0.14051788178E+03  0.15249167183E+03  0.99106383068E+01  0.20759866529E+03  0.00000000000E+00 0. -1.
          1    1    5    5  503    0  0.71908503159E+03  0.36594285212E+01 -0.14180334528E+03  0.73294260540E+03  0.00000000000E+00 0. -1.
         -2    1    5    5    0  503  0.96456404691E+02  0.29489538805E+02 -0.13097479211E+02  0.10171044620E+03  0.00000000000E+00 0.  1.
         -1    1    6    6    0  502 -0.36870792375E+02  0.11506479091E+03 -0.23645003016E+02  0.12311964752E+03  0.00000000000E+00 0.  1.
<mgrwt>
<rscale>  0 0.19095049E+04</rscale>
<asrwt>0</asrwt>
<pdfrwt beam="1">  1        2 0.14291776E+00 0.19095049E+04</pdfrwt>
<pdfrwt beam="2">  1       -2 0.15096235E+00 0.19095049E+04</pdfrwt>
<totfact> 0.77272647E+00</totfact>
</mgrwt>
</event>
<event>
12    1  0.1114484E-007  0.1057381E+04  0.7818608E-02  0.9247757E-01
         -1   -1    0    0    0  501 -0.00000000000E+00  0.00000000000E+00  0.11857380349E+04  0.11857380349E+04  0.00000000000E+00 0.  1.
          1   -1    0    0  501    0  0.00000000000E+00 -0.00000000000E+00 -0.23572957947E+03  0.23572957947E+03  0.00000000000E+00 0. -1.
         23    2    1    2    0    0 -0.27724912118E+02  0.60644750331E+02  0.26906833167E+03  0.29215186728E+03  0.92241476301E+02 0.  0.
        254    2    1    2    0    0  0.27724912118E+02 -0.60644750331E+02  0.68094012373E+03  0.11293157471E+04  0.89845876254E+03 0.  0.
        -24    2    4    4    0    0 -0.31776271114E+03  0.14953434956E+03  0.33535216535E+02  0.36185484800E+03  0.80502534053E+02 0.  0.
         24    2    4    4    0    0  0.34548762326E+03 -0.21017909989E+03  0.64740490719E+03  0.76746089906E+03  0.79537198107E+02 0.  0.
         11    1    3    3    0    0  0.29711584316E+02  0.35416857400E+02  0.15763414927E+03  0.16427311723E+03  0.00000000000E+00 0.  1.
        -11    1    3    3    0    0 -0.57436496434E+02  0.25227892931E+02  0.11143418241E+03  0.12787875005E+03  0.00000000000E+00 0. -1.
          4    1    6    6  502    0  0.32427072557E+03 -0.16948250381E+03  0.56472111053E+03  0.67289356903E+03  0.00000000000E+00 0. -1.
          3    1    5    5  503    0 -0.16786798427E+03  0.36637529490E+02  0.28247722006E+02  0.17412611094E+03  0.00000000000E+00 0. -1.
         -4    1    5    5    0  503 -0.14989472686E+03  0.11289682007E+03  0.52874945288E+01  0.18772873707E+03  0.00000000000E+00 0.  1.
         -3    1    6    6    0  502  0.21216897681E+02 -0.40696596075E+02  0.82683796657E+02  0.94567330030E+02  0.00000000000E+00 0.  1.
<mgrwt>
<rscale>  0 0.10573808E+04</rscale>
<asrwt>0</asrwt>
<pdfrwt beam="1">  1        1 0.36266090E-01 0.10573808E+04</pdfrwt>
<pdfrwt beam="2">  1       -1 0.18242123E+00 0.10573808E+04</pdfrwt>
<totfact> 0.24001987E+01</totfact>
</mgrwt>
</event>
<event>
12    1  0.1114484E-007  0.3144613E+04  0.7818608E-02  0.8203600E-01
         -2   -1    0    0    0  501 -0.00000000000E+00  0.00000000000E+00  0.12089725799E+04  0.12089725799E+04  0.00000000000E+00 0.  1.
          2   -1    0    0  501    0  0.00000000000E+00 -0.00000000000E+00 -0.20448333507E+04  0.20448333507E+04  0.00000000000E+00 0. -1.
         23    2    1    2    0    0 -0.37521863573E+03  0.10569166905E+03  0.10534751271E+04  0.11277350473E+04  0.10008366455E+03 0.  0.
        254    2    1    2    0    0  0.37521863573E+03 -0.10569166905E+03 -0.18893358979E+04  0.21260708834E+04  0.89365961777E+03 0.  0.
        -24    2    4    4    0    0  0.18697574860E+03  0.33847464866E+03 -0.41757398259E+03  0.57511062392E+03  0.82820169385E+02 0.  0.
         24    2    4    4    0    0  0.18824288713E+03 -0.44416631771E+03 -0.14717619154E+04  0.15509602595E+04  0.81703663599E+02 0.  0.
         13    1    3    3    0    0 -0.12824298909E+03  0.62787518032E+02  0.27445578791E+03  0.30937762716E+03  0.00000000000E+00 0. -1.
        -13    1    3    3    0    0 -0.24697564665E+03  0.42904151017E+02  0.77901933919E+03  0.81835742011E+03  0.00000000000E+00 0.  1.
          4    1    6    6  502    0  0.11400381390E+03 -0.16615102740E+03 -0.59908952824E+03  0.63206905979E+03  0.00000000000E+00 0. -1.
          1    1    5    5  503    0  0.16611123865E+03  0.22473028589E+03 -0.28411932455E+03  0.39852281689E+03  0.00000000000E+00 0. -1.
         -2    1    5    5    0  503  0.20864509954E+02  0.11374436277E+03 -0.13345465803E+03  0.17658780702E+03  0.00000000000E+00 0.  1.
         -3    1    6    6    0  502  0.74239073231E+02 -0.27801529031E+03 -0.87267238711E+03  0.91889119969E+03  0.00000000000E+00 0.  1.
<mgrwt>
<rscale>  0 0.31446128E+04</rscale>
<asrwt>0</asrwt>
<pdfrwt beam="1">  1        2 0.31458974E+00 0.31446128E+04</pdfrwt>
<pdfrwt beam="2">  1       -2 0.18599578E+00 0.31446128E+04</pdfrwt>
<totfact> 0.88025146E-01</totfact>
</mgrwt>
</event>
<event>
12    1  0.1114484E-007  0.1106081E+04  0.7818608E-02  0.9199285E-01
         -1   -1    0    0    0  501 -0.00000000000E+00  0.00000000000E+00  0.12155702911E+03  0.12155702911E+03  0.00000000000E+00 0.  1.
          1   -1    0    0  501    0  0.00000000000E+00 -0.00000000000E+00 -0.25161351885E+04  0.25161351885E+04  0.00000000000E+00 0. -1.
         23    2    1    2    0    0 -0.57429142217E+02  0.73054392755E+02 -0.84739316269E+02  0.15634916450E+03  0.92893804106E+02 0.  0.
        254    2    1    2    0    0  0.57429142217E+02 -0.73054392755E+02 -0.23098388432E+04  0.24813430532E+04  0.90170550369E+03 0.  0.
        -24    2    4    4    0    0  0.20525219051E+03 -0.44590184025E+03 -0.13333142478E+04  0.14227694082E+04  0.74759566056E+02 0.  0.
         24    2    4    4    0    0 -0.14782304829E+03  0.37284744750E+03 -0.97652459536E+03  0.10585736449E+04  0.78172909037E+02 0.  0.
         13    1    3    3    0    0 -0.97209083284E+01  0.79188379813E+02 -0.34894187313E+02  0.87079847636E+02  0.00000000000E+00 0.  1.
        -13    1    3    3    0    0 -0.47708233889E+02 -0.61339870579E+01 -0.49845128957E+02  0.69269316863E+02  0.00000000000E+00 0. -1.
          4    1    6    6  502    0 -0.28632276117E+01  0.48038565515E+01 -0.60923546035E+02  0.61179682670E+02  0.00000000000E+00 0. -1.
          1    1    5    5  503    0  0.66207573103E+02 -0.18052702069E+03 -0.61880562101E+03  0.64799216394E+03  0.00000000000E+00 0. -1.
         -2    1    5    5    0  503  0.13904461740E+03 -0.26537481957E+03 -0.71450862679E+03  0.77477724427E+03  0.00000000000E+00 0.  1.
         -3    1    6    6    0  502 -0.14495982068E+03  0.36804359095E+03 -0.91560104933E+03  0.99739396227E+03  0.00000000000E+00 0.  1.
<mgrwt>
<rscale>  0 0.11060812E+04</rscale>
<asrwt>0</asrwt>
<pdfrwt beam="1">  1        1 0.38709774E+00 0.11060812E+04</pdfrwt>
<pdfrwt beam="2">  1       -1 0.18701081E-01 0.11060812E+04</pdfrwt>
<totfact> 0.30362459E+01</totfact>
</mgrwt>
</event>
<event>
12    1  0.1114484E-007  0.1432653E+04  0.7818608E-02  0.8930516E-01
          2   -1    0    0  501    0  0.00000000000E+00  0.00000000000E+00  0.20583340395E+04  0.20583340395E+04  0.00000000000E+00 0.  1.
         -2   -1    0    0    0  501 -0.00000000000E+00 -0.00000000000E+00 -0.24929070678E+03  0.24929070678E+03  0.00000000000E+00 0. -1.
         23    2    1    2    0    0  0.26091061596E+03  0.13267180251E+03  0.10298649041E+04  0.10747951114E+04  0.94269050677E+02 0.  0.
        254    2    1    2    0    0 -0.26091061596E+03 -0.13267180251E+03  0.77917842859E+03  0.12328296349E+04  0.90943593974E+03 0.  0.
        -24    2    4    4    0    0  0.16043614998E+03  0.22823391852E+03  0.22886634329E+02  0.29138062589E+03  0.80922131262E+02 0.  0.
         24    2    4    4    0    0 -0.42134676594E+03 -0.36090572103E+03  0.75629179426E+03  0.94144900904E+03  0.81011862886E+02 0.  0.
         11    1    3    3    0    0  0.15042659069E+02  0.18760915806E+01  0.11474663533E+02  0.19012343745E+02  0.00000000000E+00 0. -1.
        -11    1    3    3    0    0  0.24586795689E+03  0.13079571093E+03  0.10183902406E+04  0.10557827676E+04  0.00000000000E+00 0.  1.
          4    1    6    6  502    0 -0.21516205987E+03 -0.15940786677E+03  0.42452594216E+03  0.50192415320E+03  0.00000000000E+00 0. -1.
          1    1    5    5  503    0  0.95333848672E+02  0.15851714734E+03 -0.21407120183E+02  0.18621088447E+03  0.00000000000E+00 0. -1.
         -2    1    5    5    0  503  0.65102301311E+02  0.69716771181E+02  0.44293754512E+02  0.10516974141E+03  0.00000000000E+00 0.  1.
         -3    1    6    6    0  502 -0.20618470607E+03 -0.20149785426E+03  0.33176585209E+03  0.43952485585E+03  0.00000000000E+00 0.  1.
<mgrwt>
<rscale>  0 0.14326529E+04</rscale>
<asrwt>0</asrwt>
<pdfrwt beam="1">  1        2 0.31666676E+00 0.14326529E+04</pdfrwt>
<pdfrwt beam="2">  1       -2 0.38352418E-01 0.14326529E+04</pdfrwt>
<totfact> 0.38678727E+01</totfact>
</mgrwt>
</event>
<event>
12    1  0.1114484E-007  0.2481806E+04  0.7818608E-02  0.8409496E-01
         -1   -1    0    0    0  501 -0.00000000000E+00  0.00000000000E+00  0.13762162554E+04  0.13762162554E+04  0.00000000000E+00 0.  1.
          1   -1    0    0  501    0  0.00000000000E+00 -0.00000000000E+00 -0.11188944184E+04  0.11188944184E+04  0.00000000000E+00 0. -1.
         23    2    1    2    0    0  0.19280466025E+03  0.23919255120E+03  0.11496919854E+04  0.11915892092E+04  0.60880772542E+02 0.  0.
        254    2    1    2    0    0 -0.19280466025E+03 -0.23919255120E+03 -0.89237014844E+03  0.13035214647E+04  0.89914237668E+03 0.  0.
        -24    2    4    4    0    0 -0.23210599407E+03 -0.15231014277E+02 -0.10073038249E+04  0.10364237669E+04  0.73539463239E+02 0.  0.
         24    2    4    4    0    0  0.39301333822E+02 -0.22396153692E+03  0.11493367643E+03  0.26709769783E+03  0.80175216554E+02 0.  0.
         11    1    3    3    0    0  0.10448087876E+02  0.21358474264E+02  0.44324343788E+02  0.50299049845E+02  0.00000000000E+00 0. -1.
        -11    1    3    3    0    0  0.18235657237E+03  0.21783407693E+03  0.11053676416E+04  0.11412901593E+04  0.00000000000E+00 0.  1.
          2    1    6    6  502    0  0.25561341773E+02 -0.12808568813E+02  0.64484219527E+01  0.29309107355E+02  0.00000000000E+00 0. -1.
          3    1    5    5  503    0 -0.17886612057E+02  0.70084115641E+01 -0.29656326403E+02  0.35334776344E+02  0.00000000000E+00 0. -1.
         -4    1    5    5    0  503 -0.21421938201E+03 -0.22239425841E+02 -0.97764749846E+03  0.10010889905E+04  0.00000000000E+00 0.  1.
         -1    1    6    6    0  502  0.13739992050E+02 -0.21115296811E+03  0.10848525448E+03  0.23778859048E+03  0.00000000000E+00 0.  1.
<mgrwt>
<rscale>  0 0.24818063E+04</rscale>
<asrwt>0</asrwt>
<pdfrwt beam="1">  1        1 0.17213760E+00 0.24818063E+04</pdfrwt>
<pdfrwt beam="2">  1       -1 0.21172558E+00 0.24818063E+04</pdfrwt>
<totfact> 0.13663149E+00</totfact>
</mgrwt>
</event>
<event>
12    1  0.1114484E-007  0.1955090E+04  0.7818608E-02  0.8627910E-01
         -2   -1    0    0    0  501 -0.00000000000E+00  0.00000000000E+00  0.50893395618E+03  0.50893395618E+03  0.00000000000E+00 0.  1.
          2   -1    0    0  501    0  0.00000000000E+00 -0.00000000000E+00 -0.18776398773E+04  0.18776398773E+04  0.00000000000E+00 0. -1.
         23    2    1    2    0    0  0.30810241239E+03  0.99220184676E+02  0.31526022118E+03  0.46088598956E+03  0.90857838100E+02 0.  0.
        254    2    1    2    0    0 -0.30810241239E+03 -0.99220184676E+02 -0.16839661423E+04  0.19256878439E+04  0.87621912910E+03 0.  0.
        -24    2    4    4    0    0 -0.36397533858E+03 -0.33342022666E+03 -0.15686707446E+04  0.16464090768E+04  0.79295955646E+02 0.  0.
         24    2    4    4    0    0  0.55872926184E+02  0.23420004199E+03 -0.11529539774E+03  0.27927876714E+03  0.82049725715E+02 0.  0.
         11    1    3    3    0    0  0.97942201686E+02  0.57455430191E+02  0.16034735721E+03  0.19648174545E+03  0.00000000000E+00 0. -1.
        -11    1    3    3    0    0  0.21016021071E+03  0.41764754484E+02  0.15491286397E+03  0.26440424412E+03  0.00000000000E+00 0.  1.
          2    1    6    6  502    0  0.92403819955E+01  0.31089946455E+02 -0.52353794821E+02  0.61586437323E+02  0.00000000000E+00 0. -1.
          1    1    5    5  503    0 -0.56234968428E+02 -0.85777013996E+02 -0.26290541498E+03  0.28220440292E+03  0.00000000000E+00 0. -1.
         -2    1    5    5    0  503 -0.30774037015E+03 -0.24764321267E+03 -0.13057653296E+04  0.13642046739E+04  0.00000000000E+00 0.  1.
         -1    1    6    6    0  502  0.46632544188E+02  0.20311009553E+03 -0.62941602922E+02  0.21769232982E+03  0.00000000000E+00 0.  1.
<mgrwt>
<rscale>  0 0.19550905E+04</rscale>
<asrwt>0</asrwt>
<pdfrwt beam="1">  1        2 0.28886768E+00 0.19550905E+04</pdfrwt>
<pdfrwt beam="2">  1       -2 0.78297531E-01 0.19550905E+04</pdfrwt>
<totfact> 0.10568508E+01</totfact>
</mgrwt>
</event>
<event>
12    1  0.1114484E-007  0.3173343E+04  0.7818608E-02  0.8195893E-01
         -1   -1    0    0    0  501 -0.00000000000E+00  0.00000000000E+00  0.74357244163E+03  0.74357244163E+03  0.00000000000E+00 0.  1.
          1   -1    0    0  501    0  0.00000000000E+00 -0.00000000000E+00 -0.33857182079E+04  0.33857182079E+04  0.00000000000E+00 0. -1.
         23    2    1    2    0    0  0.32828766460E+03 -0.40481319791E+03  0.55525332145E+03  0.76865032730E+03  0.10426197171E+03 0.  0.
        254    2    1    2    0    0 -0.32828766460E+03  0.40481319791E+03 -0.31973990877E+04  0.33606403222E+04  0.89380978586E+03 0.  0.
        -24    2    4    4    0    0  0.26090827704E+02  0.32296767457E+03 -0.33006471489E+03  0.46916901056E+03  0.78663805792E+02 0.  0.
         24    2    4    4    0    0 -0.35437849230E+03  0.81845523342E+02 -0.28673343728E+04  0.28914713117E+04  0.81958130300E+02 0.  0.
         13    1    3    3    0    0  0.19741365813E+03 -0.21499032495E+03  0.23884623013E+03  0.37714786740E+03  0.00000000000E+00 0.  1.
        -13    1    3    3    0    0  0.13087400647E+03 -0.18982287296E+03  0.31640709132E+03  0.39150245990E+03  0.00000000000E+00 0. -1.
          4    1    6    6  502    0 -0.20823267289E+03  0.59427933680E+02 -0.19922224558E+04  0.20039567957E+04  0.00000000000E+00 0. -1.
          1    1    5    5  503    0  0.21696785319E+02  0.32460179127E+03 -0.31291448481E+03  0.45138957475E+03  0.00000000000E+00 0. -1.
         -2    1    5    5    0  503  0.43940423849E+01 -0.16341166966E+01 -0.17150230076E+02  0.17779435804E+02  0.00000000000E+00 0.  1.
         -3    1    6    6    0  502 -0.14614581942E+03  0.22417589662E+02 -0.87511191697E+03  0.88751451598E+03  0.00000000000E+00 0.  1.
<mgrwt>
<rscale>  0 0.31733432E+04</rscale>
<asrwt>0</asrwt>
<pdfrwt beam="1">  1        1 0.52087973E+00 0.31733432E+04</pdfrwt>
<pdfrwt beam="2">  1       -1 0.11439576E+00 0.31733432E+04</pdfrwt>
<totfact> 0.17869742E-01</totfact>
</mgrwt>
</event>
<event>
12    1  0.1114484E-007  0.1324283E+04  0.7818608E-02  0.9010527E-01
         -4   -1    0    0    0  501 -0.00000000000E+00  0.00000000000E+00  0.26916696779E+03  0.26916696779E+03  0.00000000000E+00 0.  1.
          4   -1    0    0  501    0  0.00000000000E+00 -0.00000000000E+00 -0.16288451897E+04  0.16288451897E+04  0.00000000000E+00 0. -1.
         23    2    1    2    0    0 -0.28037225560E+03  0.14428369128E+03 -0.59045768640E+03  0.67520422512E+03  0.88510343541E+02 0.  0.
        254    2    1    2    0    0  0.28037225560E+03 -0.14428369128E+03 -0.76922053552E+03  0.12228079324E+04  0.89673442107E+03 0.  0.
        -24    2    4    4    0    0  0.44643009773E+03 -0.57030774183E+02 -0.33185457869E+02  0.45896164935E+03  0.83619253736E+02 0.  0.
         24    2    4    4    0    0 -0.16605784213E+03 -0.87252917099E+02 -0.73603507765E+03  0.76384628303E+03  0.80778896317E+02 0.  0.
         11    1    3    3    0    0 -0.22623118930E+03  0.12421260207E+03 -0.54006800173E+03  0.59856726273E+03  0.00000000000E+00 0. -1.
        -11    1    3    3    0    0 -0.54141066308E+02  0.20071089216E+02 -0.50389684666E+02  0.76636962388E+02  0.00000000000E+00 0.  1.
          4    1    6    6  502    0 -0.10658325529E+02 -0.34154983249E+02 -0.20156772199E+03  0.20471861013E+03  0.00000000000E+00 0. -1.
          1    1    5    5  503    0  0.19642164373E+03 -0.17057589749E+02  0.26234235011E+02  0.19889861382E+03  0.00000000000E+00 0. -1.
         -2    1    5    5    0  503  0.25000845400E+03 -0.39973184433E+02 -0.59419692880E+02  0.26006303552E+03  0.00000000000E+00 0.  1.
         -1    1    6    6    0  502 -0.15539951660E+03 -0.53097933850E+02 -0.53446735566E+03  0.55912767290E+03  0.00000000000E+00 0.  1.
<mgrwt>
<rscale>  0 0.13242829E+04</rscale>
<asrwt>0</asrwt>
<pdfrwt beam="1">  1        4 0.25059157E+00 0.13242829E+04</pdfrwt>
<pdfrwt beam="2">  1       -4 0.41410302E-01 0.13242829E+04</pdfrwt>
<totfact> 0.69909622E-01</totfact>
</mgrwt>
</event>
<event>
12    1  0.1114484E-007  0.1310878E+04  0.7818608E-02  0.9020983E-01
         -1   -1    0    0    0  501 -0.00000000000E+00  0.00000000000E+00  0.85924103497E+03  0.85924103497E+03  0.00000000000E+00 0.  1.
          1   -1    0    0  501    0  0.00000000000E+00 -0.00000000000E+00 -0.49997624532E+03  0.49997624532E+03  0.00000000000E+00 0. -1.
         23    2    1    2    0    0 -0.44913150684E+02  0.13996544844E+03  0.42099765424E+03  0.45516639231E+03  0.91268296502E+02 0.  0.
        254    2    1    2    0    0  0.44913150684E+02 -0.13996544844E+03 -0.61732864593E+02  0.90405088798E+03  0.88988175823E+03 0.  0.
        -24    2    4    4    0    0  0.99766113281E+02 -0.15204878405E+03  0.39251434751E+03  0.43924786290E+03  0.76151572312E+02 0.  0.
         24    2    4    4    0    0 -0.54852962596E+02  0.12083335609E+02 -0.45424721210E+03  0.46480302508E+03  0.80910246073E+02 0.  0.
         11    1    3    3    0    0 -0.10604165610E+02 -0.11289035629E+02  0.65541629846E+02  0.67346832862E+02  0.00000000000E+00 0. -1.
        -11    1    3    3    0    0 -0.34308985075E+02  0.15125448407E+03  0.35545602440E+03  0.38781955945E+03  0.00000000000E+00 0.  1.
          2    1    6    6  502    0  0.76184007969E+01  0.23593305480E+02 -0.52439376884E+02  0.58004933774E+02  0.00000000000E+00 0. -1.
          3    1    5    5  503    0  0.43402162506E+02 -0.11379689789E+02  0.74406876709E+02  0.86888597361E+02  0.00000000000E+00 0. -1.
         -4    1    5    5    0  503  0.56363950775E+02 -0.14066909426E+03  0.31810747080E+03  0.35235926553E+03  0.00000000000E+00 0.  1.
         -3    1    6    6    0  502 -0.62471363393E+02 -0.11509969871E+02 -0.40180783522E+03  0.40679809131E+03  0.00000000000E+00 0.  1.
<mgrwt>
<rscale>  0 0.13108777E+04</rscale>
<asrwt>0</asrwt>
<pdfrwt beam="1">  1        1 0.76919422E-01 0.13108777E+04</pdfrwt>
<pdfrwt beam="2">  1       -1 0.13219093E+00 0.13108777E+04</pdfrwt>
<totfact> 0.21157598E+01</totfact>
</mgrwt>
</event>
<event>
12    1  0.1114484E-007  0.1415446E+04  0.7818608E-02  0.8942713E-01
         -1   -1    0    0    0  501 -0.00000000000E+00  0.00000000000E+00  0.13011131464E+04  0.13011131464E+04  0.00000000000E+00 0.  1.
          1   -1    0    0  501    0  0.00000000000E+00 -0.00000000000E+00 -0.38495635844E+03  0.38495635844E+03  0.00000000000E+00 0. -1.
         23    2    1    2    0    0 -0.28451999715E+03  0.27814289796E+03  0.41705380734E+03  0.58333428253E+03  0.89609745566E+02 0.  0.
        254    2    1    2    0    0  0.28451999715E+03 -0.27814289796E+03  0.49910298067E+03  0.11027352224E+04  0.89922526924E+03 0.  0.
        -24    2    4    4    0    0  0.38400789146E+03  0.20997909295E+03  0.91728752931E+02  0.45400169212E+03  0.78422523244E+02 0.  0.
         24    2    4    4    0    0 -0.99487894309E+02 -0.48812199091E+03  0.40737422774E+03  0.64873353023E+03  0.82100625454E+02 0.  0.
         11    1    3    3    0    0 -0.26410397634E+03  0.25395246816E+03  0.33923042941E+03  0.49931958768E+03  0.00000000000E+00 0.  1.
        -11    1    3    3    0    0 -0.20416020813E+02  0.24190429800E+02  0.77823377924E+02  0.84014694853E+02  0.00000000000E+00 0. -1.
          4    1    6    6  502    0  0.21306043358E+00 -0.18823853051E+03  0.16769692364E+03  0.25210324861E+03  0.00000000000E+00 0. -1.
          3    1    5    5  503    0  0.21804919533E+03  0.10379373514E+03  0.13030715359E+02  0.24184373174E+03  0.00000000000E+00 0. -1.
         -4    1    5    5    0  503  0.16595869613E+03  0.10618535782E+03  0.78698037572E+02  0.21215796038E+03  0.00000000000E+00 0.  1.
         -3    1    6    6    0  502 -0.99700954742E+02 -0.29988346040E+03  0.23967730410E+03  0.39663028162E+03  0.00000000000E+00 0.  1.
<mgrwt>
<rscale>  0 0.14154459E+04</rscale>
<asrwt>0</asrwt>
<pdfrwt beam="1">  1        1 0.59224056E-01 0.14154459E+04</pdfrwt>
<pdfrwt beam="2">  1       -1 0.20017125E+00 0.14154459E+04</pdfrwt>
<totfact> 0.92286634E+00</totfact>
</mgrwt>
</event>
<event>
12    1  0.1114484E-007  0.2807323E+04  0.7818608E-02  0.8300998E-01
         -1   -1    0    0    0  501 -0.00000000000E+00  0.00000000000E+00  0.21239397629E+04  0.21239397629E+04  0.00000000000E+00 0.  1.
          1   -1    0    0  501    0  0.00000000000E+00 -0.00000000000E+00 -0.92764691448E+03  0.92764691448E+03  0.00000000000E+00 0. -1.
         23    2    1    2    0    0  0.88878579739E+03  0.31279499504E+03  0.14404551335E+04  0.17239994010E+04  0.97375770137E+02 0.  0.
        254    2    1    2    0    0 -0.88878579739E+03 -0.31279499504E+03 -0.24416228505E+03  0.13275872764E+04  0.90282437515E+03 0.  0.
        -24    2    4    4    0    0 -0.42274353946E+03 -0.36641948734E+03  0.27089307917E+03  0.62645399075E+03  0.78014109770E+02 0.  0.
         24    2    4    4    0    0 -0.46604225793E+03  0.53624492295E+02 -0.51505536422E+03  0.70113328562E+03  0.78961279337E+02 0.  0.
         13    1    3    3    0    0  0.15935465912E+03  0.95211701909E+02  0.26249778392E+03  0.32150312926E+03  0.00000000000E+00 0. -1.
        -13    1    3    3    0    0  0.72943113828E+03  0.21758329313E+03  0.11779573496E+04  0.14024962718E+04  0.00000000000E+00 0.  1.
          4    1    6    6  502    0 -0.31748358021E+03  0.69830759488E+02 -0.32920455875E+03  0.46265300191E+03  0.00000000000E+00 0. -1.
          3    1    5    5  503    0 -0.75030505203E+02 -0.43550088508E+02  0.68747721332E+02  0.11069072277E+03  0.00000000000E+00 0. -1.
         -4    1    5    5    0  503 -0.34771303426E+03 -0.32286939883E+03  0.20214535784E+03  0.51576326798E+03  0.00000000000E+00 0.  1.
         -3    1    6    6    0  502 -0.14855867772E+03 -0.16206267193E+02 -0.18585080547E+03  0.23848028371E+03  0.00000000000E+00 0.  1.
<mgrwt>
<rscale>  0 0.28073234E+04</rscale>
<asrwt>0</asrwt>
<pdfrwt beam="1">  1        1 0.14271491E+00 0.28073234E+04</pdfrwt>
<pdfrwt beam="2">  1       -1 0.32675996E+00 0.28073234E+04</pdfrwt>
<totfact> 0.33039556E-01</totfact>
</mgrwt>
</event>
<event>
12    1  0.1114484E-007  0.2200593E+04  0.7818608E-02  0.8518181E-01
          1   -1    0    0  501    0  0.00000000000E+00  0.00000000000E+00  0.73709328646E+03  0.73709328646E+03  0.00000000000E+00 0. -1.
         -1   -1    0    0    0  501 -0.00000000000E+00 -0.00000000000E+00 -0.16424682922E+04  0.16424682922E+04  0.00000000000E+00 0.  1.
         23    2    1    2    0    0 -0.13941288486E+03 -0.51336440472E+03  0.42581494859E+03  0.68751522320E+03  0.91541505310E+02 0.  0.
        254    2    1    2    0    0  0.13941288486E+03  0.51336440472E+03 -0.13311899543E+04  0.16920463554E+04  0.89887441282E+03 0.  0.
        -24    2    4    4    0    0  0.15950921008E+03 -0.87302451464E+02 -0.96196307706E+03  0.98225762873E+03  0.79951119023E+02 0.  0.
         24    2    4    4    0    0 -0.20096325223E+02  0.60066685618E+03 -0.36922687725E+03  0.70978872672E+03  0.79164482517E+02 0.  0.
         11    1    3    3    0    0 -0.26578188341E+02 -0.21143247489E+03  0.21284008196E+03  0.30118265558E+03  0.00000000000E+00 0.  1.
        -11    1    3    3    0    0 -0.11283469652E+03 -0.30193192983E+03  0.21297486663E+03  0.38633256762E+03  0.00000000000E+00 0. -1.
          4    1    6    6  502    0  0.11675707063E+01  0.56025427561E+03 -0.34689203527E+03  0.65895394429E+03  0.00000000000E+00 0. -1.
          3    1    5    5  503    0  0.14528128718E+03 -0.10122559626E+03 -0.81956788950E+03  0.83847766771E+03  0.00000000000E+00 0. -1.
         -4    1    5    5    0  503  0.14227922909E+02  0.13923144794E+02 -0.14239518755E+03  0.14377996102E+03  0.00000000000E+00 0.  1.
         -3    1    6    6    0  502 -0.21263895930E+02  0.40412580572E+02 -0.22334841988E+02  0.50834782435E+02  0.00000000000E+00 0.  1.
<mgrwt>
<rscale>  0 0.22005930E+04</rscale>
<asrwt>0</asrwt>
<pdfrwt beam="1">  1        1 0.11339897E+00 0.22005930E+04</pdfrwt>
<pdfrwt beam="2">  1       -1 0.25268743E+00 0.22005930E+04</pdfrwt>
<totfact> 0.15360479E+00</totfact>
</mgrwt>
</event>
<event>
12    1  0.1114484E-007  0.1739109E+04  0.7818608E-02  0.8739368E-01
         -1   -1    0    0    0  501 -0.00000000000E+00  0.00000000000E+00  0.11161180734E+04  0.11161180734E+04  0.00000000000E+00 0.  1.
          1   -1    0    0  501    0  0.00000000000E+00 -0.00000000000E+00 -0.67745976601E+03  0.67745976601E+03  0.00000000000E+00 0. -1.
         23    2    1    2    0    0 -0.46870438811E+03  0.24178701426E+03 -0.19932360939E+03  0.56981919903E+03  0.82578778369E+02 0.  0.
        254    2    1    2    0    0  0.46870438811E+03 -0.24178701426E+03  0.63798191681E+03  0.12237586404E+04  0.90134317556E+03 0.  0.
        -24    2    4    4    0    0  0.33144408778E+03  0.27401170376E+03  0.75043865186E+02  0.44392289213E+03  0.80612377041E+02 0.  0.
         24    2    4    4    0    0  0.13726030033E+03 -0.51579871802E+03  0.56293805162E+03  0.77983574829E+03  0.79723502109E+02 0.  0.
         13    1    3    3    0    0 -0.43877613292E+03  0.24457464344E+03 -0.17789546413E+03  0.53290528914E+03  0.00000000000E+00 0. -1.
        -13    1    3    3    0    0 -0.29928255186E+02 -0.27876291773E+01 -0.21428145255E+02  0.36913909899E+02  0.00000000000E+00 0.  1.
          2    1    6    6  502    0  0.12091838148E+03 -0.42870437145E+03  0.42350136921E+03  0.61462354560E+03  0.00000000000E+00 0. -1.
          1    1    5    5  503    0  0.26626039636E+03  0.25721934911E+03  0.64618866558E+02  0.37580844874E+03  0.00000000000E+00 0. -1.
         -2    1    5    5    0  503  0.65183691422E+02  0.16792354644E+02  0.10424998628E+02  0.68114443389E+02  0.00000000000E+00 0.  1.
         -1    1    6    6    0  502  0.16341918843E+02 -0.87094346571E+02  0.13943668241E+03  0.16521220269E+03  0.00000000000E+00 0.  1.
<mgrwt>
<rscale>  0 0.17391091E+04</rscale>
<asrwt>0</asrwt>
<pdfrwt beam="1">  1        1 0.10422458E+00 0.17391091E+04</pdfrwt>
<pdfrwt beam="2">  1       -1 0.17171047E+00 0.17391091E+04</pdfrwt>
<totfact> 0.64907721E+00</totfact>
</mgrwt>
</event>
<event>
12    1  0.1114484E-007  0.1367737E+04  0.7818608E-02  0.8977509E-01
         -1   -1    0    0    0  501 -0.00000000000E+00  0.00000000000E+00  0.44953199663E+03  0.44953199663E+03  0.00000000000E+00 0.  1.
          1   -1    0    0  501    0  0.00000000000E+00 -0.00000000000E+00 -0.10403623802E+04  0.10403623802E+04  0.00000000000E+00 0. -1.
         23    2    1    2    0    0  0.44312108899E+02  0.24231861895E+03 -0.55721006449E+03  0.61551636662E+03  0.87723802513E+02 0.  0.
        254    2    1    2    0    0 -0.44312108899E+02 -0.24231861895E+03 -0.33620319040E+02  0.87437801017E+03  0.83828676640E+03 0.  0.
        -24    2    4    4    0    0 -0.32268683811E+03 -0.41792490131E+03 -0.81971928367E+01  0.53421719329E+03  0.80825719969E+02 0.  0.
         24    2    4    4    0    0  0.27837472921E+03  0.17560628236E+03 -0.25423126203E+02  0.34016081688E+03  0.82054797084E+02 0.  0.
         13    1    3    3    0    0  0.38113917458E+02  0.16471063132E+03 -0.27542442810E+03  0.32317313992E+03  0.00000000000E+00 0. -1.
        -13    1    3    3    0    0  0.61981914408E+01  0.77607987627E+02 -0.28178563639E+03  0.29234322670E+03  0.00000000000E+00 0.  1.
          4    1    6    6  502    0  0.15282179143E+02  0.66675806820E+01 -0.21840686543E+02  0.27477576680E+02  0.00000000000E+00 0. -1.
          1    1    5    5  503    0 -0.21640120607E+02 -0.44076106031E+01 -0.53172007851E+01  0.22715511777E+02  0.00000000000E+00 0. -1.
         -2    1    5    5    0  503 -0.30104671750E+03 -0.41351729071E+03 -0.28799920515E+01  0.51150168151E+03  0.00000000000E+00 0.  1.
         -3    1    6    6    0  502  0.26309255007E+03  0.16893870168E+03 -0.35824396598E+01  0.31268324020E+03  0.00000000000E+00 0.  1.
<mgrwt>
<rscale>  0 0.13677371E+04</rscale>
<asrwt>0</asrwt>
<pdfrwt beam="1">  1        1 0.16005575E+00 0.13677371E+04</pdfrwt>
<pdfrwt beam="2">  1       -1 0.69158768E-01 0.13677371E+04</pdfrwt>
<totfact> 0.29109314E+01</totfact>
</mgrwt>
</event>
<event>
12    1  0.1114484E-007  0.1201447E+04  0.7818608E-02  0.9111591E-01
          1   -1    0    0  501    0  0.00000000000E+00  0.00000000000E+00  0.45311543795E+03  0.45311543795E+03  0.00000000000E+00 0. -1.
         -1   -1    0    0    0  501 -0.00000000000E+00 -0.00000000000E+00 -0.79641671125E+03  0.79641671125E+03  0.00000000000E+00 0.  1.
         23    2    1    2    0    0  0.38361399157E+02  0.81591539437E+02 -0.34295813443E+03  0.36572500630E+03  0.89474700373E+02 0.  0.
        254    2    1    2    0    0 -0.38361399157E+02 -0.81591539437E+02 -0.34313886450E+00  0.88380714290E+03  0.87919632156E+03 0.  0.
        -24    2    4    4    0    0 -0.17379098105E+03  0.19092392111E+03  0.33153507769E+03  0.42645998949E+03  0.72783007270E+02 0.  0.
         24    2    4    4    0    0  0.13542958189E+03 -0.27251546055E+03 -0.33187821656E+03  0.45734715342E+03  0.80108802398E+02 0.  0.
         11    1    3    3    0    0  0.92147077266E+01  0.22589290024E+02 -0.10067816197E+02  0.26392191748E+02  0.00000000000E+00 0. -1.
        -11    1    3    3    0    0  0.29146691431E+02  0.59002249413E+02 -0.33289031823E+03  0.33933281455E+03  0.00000000000E+00 0.  1.
          4    1    6    6  502    0  0.89667570778E+01 -0.10157733443E+03 -0.10293978749E+03  0.14489636797E+03  0.00000000000E+00 0. -1.
          3    1    5    5  503    0 -0.26629041412E+02 -0.44359290841E+00  0.28225589061E+02  0.38807041874E+02  0.00000000000E+00 0. -1.
         -2    1    5    5    0  503 -0.14716193963E+03  0.19136751402E+03  0.30330948863E+03  0.38765294761E+03  0.00000000000E+00 0.  1.
         -3    1    6    6    0  502  0.12646282481E+03 -0.17093812612E+03 -0.22893842907E+03  0.31245078544E+03  0.00000000000E+00 0.  1.
<mgrwt>
<rscale>  0 0.12014470E+04</rscale>
<asrwt>0</asrwt>
<pdfrwt beam="1">  1        1 0.69710068E-01 0.12014470E+04</pdfrwt>
<pdfrwt beam="2">  1       -1 0.12252565E+00 0.12014470E+04</pdfrwt>
<totfact> 0.29533903E+01</totfact>
</mgrwt>
</event>
<event>
12    1  0.1114484E-007  0.1356601E+04  0.7818608E-02  0.8985847E-01
          1   -1    0    0  501    0  0.00000000000E+00  0.00000000000E+00  0.38022455514E+03  0.38022455514E+03  0.00000000000E+00 0.  1.
         -1   -1    0    0    0  501 -0.00000000000E+00 -0.00000000000E+00 -0.12100514294E+04  0.12100514294E+04  0.00000000000E+00 0. -1.
         23    2    1    2    0    0  0.67400703679E+02  0.29746461346E+03 -0.49022818065E+03  0.58451216997E+03  0.91119463474E+02 0.  0.
        254    2    1    2    0    0 -0.67400703679E+02 -0.29746461346E+03 -0.33959869357E+03  0.10057638145E+04  0.89621734351E+03 0.  0.
        -24    2    4    4    0    0 -0.35042681298E+03  0.96550131023E+02  0.54793020420E+02  0.37595770110E+03  0.78873562558E+02 0.  0.
         24    2    4    4    0    0  0.28302610931E+03 -0.39401474448E+03 -0.39439171399E+03  0.62980611342E+03  0.75891495026E+02 0.  0.
         13    1    3    3    0    0  0.10723482390E+02  0.10634065670E+03 -0.10026272029E+03  0.14654672095E+03  0.00000000000E+00 0. -1.
        -13    1    3    3    0    0  0.56677221290E+02  0.19112395676E+03 -0.38996546037E+03  0.43796544903E+03  0.00000000000E+00 0.  1.
          4    1    6    6  502    0  0.65701835515E+02 -0.13852062108E+03 -0.96148334035E+02  0.18096738876E+03  0.00000000000E+00 0. -1.
          3    1    5    5  503    0 -0.17816774207E+03  0.72057788688E+02 -0.42107283685E+01  0.19223371052E+03  0.00000000000E+00 0. -1.
         -4    1    5    5    0  503 -0.17225907091E+03  0.24492342334E+02  0.59003748788E+02  0.18372399058E+03  0.00000000000E+00 0.  1.
         -1    1    6    6    0  502  0.21732427379E+03 -0.25549412340E+03 -0.29824337995E+03  0.44883872466E+03  0.00000000000E+00 0.  1.
<mgrwt>
<rscale>  0 0.13566006E+04</rscale>
<asrwt>0</asrwt>
<pdfrwt beam="1">  1        1 0.58496086E-01 0.13566006E+04</pdfrwt>
<pdfrwt beam="2">  1       -1 0.18616176E+00 0.13566006E+04</pdfrwt>
<totfact> 0.11808577E+01</totfact>
</mgrwt>
</event>
<event>
12    1  0.1114484E-007  0.2202144E+04  0.7818608E-02  0.8517536E-01
          2   -1    0    0  501    0  0.00000000000E+00  0.00000000000E+00  0.26122082346E+04  0.26122082346E+04  0.00000000000E+00 0. -1.
         -2   -1    0    0    0  501 -0.00000000000E+00 -0.00000000000E+00 -0.46411272395E+03  0.46411272395E+03  0.00000000000E+00 0.  1.
         23    2    1    2    0    0 -0.42970069025E+03  0.78913236482E+03  0.11182278591E+04  0.14380442083E+04  0.10082176307E+03 0.  0.
        254    2    1    2    0    0  0.42970069025E+03 -0.78913236482E+03  0.10298676516E+04  0.16382767502E+04  0.90329992702E+03 0.  0.
        -24    2    4    4    0    0  0.35238604862E+01 -0.26657508531E+03 -0.12001654114E+03  0.30287277148E+03  0.79077505387E+02 0.  0.
         24    2    4    4    0    0  0.42617682976E+03 -0.52255727951E+03  0.11498841927E+04  0.13354039788E+04  0.79858181745E+02 0.  0.
         11    1    3    3    0    0 -0.39019764864E+03  0.74715311565E+03  0.10108502587E+04  0.13161725680E+04  0.00000000000E+00 0. -1.
        -11    1    3    3    0    0 -0.39503041610E+02  0.41979249171E+02  0.10737760037E+03  0.12187164033E+03  0.00000000000E+00 0.  1.
          2    1    6    6  502    0  0.14185770490E+03 -0.21172727283E+03  0.37475642138E+03  0.45320461369E+03  0.00000000000E+00 0. -1.
          1    1    5    5  503    0  0.34146938809E+02 -0.16733738350E+03 -0.97314450847E+02  0.19656529625E+03  0.00000000000E+00 0. -1.
         -2    1    5    5    0  503 -0.30623078323E+02 -0.99237701806E+02 -0.22702090288E+02  0.10630747523E+03  0.00000000000E+00 0.  1.
         -1    1    6    6    0  502  0.28431912486E+03 -0.31083000668E+03  0.77512777134E+03  0.88219936507E+03  0.00000000000E+00 0.  1.
<mgrwt>
<rscale>  0 0.22021436E+04</rscale>
<asrwt>0</asrwt>
<pdfrwt beam="1">  1        2 0.40187818E+00 0.22021436E+04</pdfrwt>
<pdfrwt beam="2">  1       -2 0.71401959E-01 0.22021436E+04</pdfrwt>
<totfact> 0.48701927E+00</totfact>
</mgrwt>
</event>
<event>
12    1  0.1114484E-007  0.1968723E+04  0.7818608E-02  0.8621385E-01
          1   -1    0    0  501    0  0.00000000000E+00  0.00000000000E+00  0.12246747057E+04  0.12246747057E+04  0.00000000000E+00 0. -1.
         -1   -1    0    0    0  501 -0.00000000000E+00 -0.00000000000E+00 -0.79120414558E+03  0.79120414558E+03  0.00000000000E+00 0.  1.
         23    2    1    2    0    0 -0.30461727355E+03 -0.15207406822E+02  0.90336003077E+03  0.95775164645E+03  0.90586547082E+02 0.  0.
        254    2    1    2    0    0  0.30461727355E+03  0.15207406822E+02 -0.46988947065E+03  0.10581272048E+04  0.89767149804E+03 0.  0.
        -24    2    4    4    0    0  0.19554724935E+03 -0.18834555443E+03 -0.67894071358E+03  0.73562003666E+03  0.80396338139E+02 0.  0.
         24    2    4    4    0    0  0.10907002420E+03  0.20355296125E+03  0.20905124293E+03  0.32250716816E+03  0.83536657427E+02 0.  0.
         11    1    3    3    0    0 -0.12049683217E+03  0.62980956520E+01  0.23507947247E+03  0.26423760321E+03  0.00000000000E+00 0.  1.
        -11    1    3    3    0    0 -0.18412044138E+03 -0.21505502474E+02  0.66828055830E+03  0.69351404324E+03  0.00000000000E+00 0. -1.
          2    1    6    6  502    0  0.70977401330E+02  0.16891261385E+03  0.11807036457E+03  0.21796759761E+03  0.00000000000E+00 0. -1.
          1    1    5    5  503    0  0.17070005821E+03 -0.13720543896E+03 -0.46087915109E+03  0.51026800238E+03  0.00000000000E+00 0. -1.
         -4    1    5    5    0  503  0.24847191148E+02 -0.51140115476E+02 -0.21806156249E+03  0.22535203428E+03  0.00000000000E+00 0.  1.
         -1    1    6    6    0  502  0.38092622865E+02  0.34640347403E+02  0.90980878360E+02  0.10453957056E+03  0.00000000000E+00 0.  1.
<mgrwt>
<rscale>  0 0.19687231E+04</rscale>
<asrwt>0</asrwt>
<pdfrwt beam="1">  1        1 0.18841149E+00 0.19687231E+04</pdfrwt>
<pdfrwt beam="2">  1       -1 0.12172371E+00 0.19687231E+04</pdfrwt>
<totfact> 0.57000989E+00</totfact>
</mgrwt>
</event>
<event>
12    1  0.1114484E-007  0.1303942E+04  0.7818608E-02  0.9026445E-01
          3   -1    0    0  501    0  0.00000000000E+00  0.00000000000E+00  0.21900143473E+04  0.21900143473E+04  0.00000000000E+00 0. -1.
         -3   -1    0    0    0  501 -0.00000000000E+00 -0.00000000000E+00 -0.19409299052E+03  0.19409299052E+03  0.00000000000E+00 0.  1.
         23    2    1    2    0    0 -0.15095593774E+03 -0.28833933695E+03  0.39772843257E+03  0.52133507226E+03  0.87607551704E+02 0.  0.
        254    2    1    2    0    0  0.15095593774E+03  0.28833933695E+03  0.15981929242E+04  0.18627722656E+04  0.89987367004E+03 0.  0.
        -24    2    4    4    0    0  0.21460949693E+03  0.57190204221E+03  0.12971464597E+04  0.14359790713E+04  0.79484422874E+02 0.  0.
         24    2    4    4    0    0 -0.63653559190E+02 -0.28356270525E+03  0.30104646459E+03  0.42679319427E+03  0.84046852524E+02 0.  0.
         13    1    3    3    0    0 -0.56663814018E+02 -0.71547269777E+02  0.60517967543E+02  0.10950901345E+03  0.00000000000E+00 0. -1.
        -13    1    3    3    0    0 -0.94292123725E+02 -0.21679206718E+03  0.33721046503E+03  0.41182605880E+03  0.00000000000E+00 0.  1.
          4    1    6    6  502    0  0.17447454969E+02 -0.21271830656E+02  0.34694644413E+02  0.44278920665E+02  0.00000000000E+00 0. -1.
          3    1    5    5  503    0  0.58847655162E+02  0.76142335125E+02  0.21255076311E+03  0.23332065621E+03  0.00000000000E+00 0. -1.
         -4    1    5    5    0  503  0.15576184177E+03  0.49575970708E+03  0.10845956966E+04  0.12026584151E+04  0.00000000000E+00 0.  1.
         -3    1    6    6    0  502 -0.81101014158E+02 -0.26229087460E+03  0.26635182018E+03  0.38251427360E+03  0.00000000000E+00 0.  1.
<mgrwt>
<rscale>  0 0.13039424E+04</rscale>
<asrwt>0</asrwt>
<pdfrwt beam="1">  1        3 0.33692527E+00 0.13039424E+04</pdfrwt>
<pdfrwt beam="2">  1       -3 0.29860462E-01 0.13039424E+04</pdfrwt>
<totfact> 0.69004038E-01</totfact>
</mgrwt>
</event>
<event>
12    1  0.1114484E-007  0.1680164E+04  0.7818608E-02  0.8772759E-01
         -1   -1    0    0    0  501 -0.00000000000E+00  0.00000000000E+00  0.32163183959E+03  0.32163183959E+03  0.00000000000E+00 0.  1.
          1   -1    0    0  501    0  0.00000000000E+00 -0.00000000000E+00 -0.21942398459E+04  0.21942398459E+04  0.00000000000E+00 0. -1.
         23    2    1    2    0    0  0.20003027669E+03  0.19335178483E+03 -0.14559266348E+04  0.14845141033E+04  0.81625564952E+02 0.  0.
        254    2    1    2    0    0 -0.20003027669E+03 -0.19335178483E+03 -0.41668137151E+03  0.10313575821E+04  0.90148659034E+03 0.  0.
        -24    2    4    4    0    0 -0.16908013057E+03  0.21960157622E+03  0.14963158349E+03  0.32540068876E+03  0.81749951877E+02 0.  0.
         24    2    4    4    0    0 -0.30950146118E+02 -0.41295336105E+03 -0.56631295501E+03  0.70595689337E+03  0.78589963402E+02 0.  0.
         13    1    3    3    0    0  0.99704343175E+02  0.82465499374E+02 -0.47722193822E+03  0.49445150718E+03  0.00000000000E+00 0. -1.
        -13    1    3    3    0    0  0.10032593351E+03  0.11088628546E+03 -0.97870469656E+03  0.99006259615E+03  0.00000000000E+00 0.  1.
          2    1    6    6  502    0 -0.11471549700E+02 -0.35915103950E+03 -0.52133517890E+03  0.63317567419E+03  0.00000000000E+00 0. -1.
          3    1    5    5  503    0 -0.97020540092E+02  0.14705805357E+03  0.51191734325E+02  0.18346566432E+03  0.00000000000E+00 0. -1.
         -4    1    5    5    0  503 -0.72059590477E+02  0.72543522648E+02  0.98439849167E+02  0.14193502444E+03  0.00000000000E+00 0.  1.
         -1    1    6    6    0  502 -0.19478596418E+02 -0.53802321550E+02 -0.44977776107E+02  0.72781219185E+02  0.00000000000E+00 0.  1.
<mgrwt>
<rscale>  0 0.16801636E+04</rscale>
<asrwt>0</asrwt>
<pdfrwt beam="1">  1        1 0.33757537E+00 0.16801636E+04</pdfrwt>
<pdfrwt beam="2">  1       -1 0.49481820E-01 0.16801636E+04</pdfrwt>
<totfact> 0.85853048E+00</totfact>
</mgrwt>
</event>
<event>
12    1  0.1114484E-007  0.2337060E+04  0.7818608E-02  0.8463451E-01
         -1   -1    0    0    0  501 -0.00000000000E+00  0.00000000000E+00  0.59669052038E+03  0.59669052038E+03  0.00000000000E+00 0.  1.
          1   -1    0    0  501    0  0.00000000000E+00 -0.00000000000E+00 -0.22883921582E+04  0.22883921582E+04  0.00000000000E+00 0. -1.
         23    2    1    2    0    0 -0.26807607155E+03  0.68691236270E+03 -0.15363977759E+04  0.17064968010E+04  0.88880997951E+02 0.  0.
        254    2    1    2    0    0  0.26807607155E+03 -0.68691236270E+03 -0.15530386194E+03  0.11785858776E+04  0.90621852067E+03 0.  0.
        -24    2    4    4    0    0  0.21203759046E+03 -0.81833054284E+02 -0.44089464540E+03  0.50231314832E+03  0.79207462307E+02 0.  0.
         24    2    4    4    0    0  0.56038481086E+02 -0.60507930842E+03  0.28559078347E+03  0.67627272929E+03  0.80755358612E+02 0.  0.
         13    1    3    3    0    0 -0.15923375965E+03  0.44855667233E+03 -0.10798163629E+04  0.11800685811E+04  0.00000000000E+00 0.  1.
        -13    1    3    3    0    0 -0.10884231190E+03  0.23835569037E+03 -0.45658141297E+03  0.52642821986E+03  0.00000000000E+00 0. -1.
          4    1    6    6  502    0  0.40669617101E+02 -0.51917310318E+03  0.21254864151E+03  0.56246924700E+03  0.00000000000E+00 0. -1.
          1    1    5    5  503    0  0.17522304221E+03 -0.67973814340E+02 -0.28396586769E+03  0.34052924686E+03  0.00000000000E+00 0. -1.
         -2    1    5    5    0  503  0.36814548255E+02 -0.13859239944E+02 -0.15692877772E+03  0.16178390146E+03  0.00000000000E+00 0.  1.
         -3    1    6    6    0  502  0.15368863985E+02 -0.85906205242E+02  0.73042141959E+02  0.11380348229E+03  0.00000000000E+00 0.  1.
<mgrwt>
<rscale>  0 0.23370596E+04</rscale>
<asrwt>0</asrwt>
<pdfrwt beam="1">  1        1 0.35206034E+00 0.23370596E+04</pdfrwt>
<pdfrwt beam="2">  1       -1 0.91798540E-01 0.23370596E+04</pdfrwt>
<totfact> 0.19740558E+00</totfact>
</mgrwt>
</event>
<event>
12    1  0.1114484E-007  0.1469047E+04  0.7818608E-02  0.8905301E-01
         -1   -1    0    0    0  501 -0.00000000000E+00  0.00000000000E+00  0.30470552720E+03  0.30470552720E+03  0.00000000000E+00 0.  1.
          1   -1    0    0  501    0  0.00000000000E+00 -0.00000000000E+00 -0.17706431629E+04  0.17706431629E+04  0.00000000000E+00 0. -1.
         23    2    1    2    0    0  0.29550032780E+03  0.32410533336E+03 -0.69149129405E+03  0.82405402812E+03  0.92412773269E+02 0.  0.
        254    2    1    2    0    0 -0.29550032780E+03 -0.32410533336E+03 -0.77444634163E+03  0.12512946620E+04  0.87954902318E+03 0.  0.
        -24    2    4    4    0    0  0.23906744871E+03 -0.64638841544E+02  0.14418733189E+02  0.26061529125E+03  0.79881194889E+02 0.  0.
         24    2    4    4    0    0 -0.53456777651E+03 -0.25946649182E+03 -0.78886507482E+03  0.99067937072E+03  0.77794223773E+02 0.  0.
         11    1    3    3    0    0  0.24433647417E+03  0.29778720979E+03 -0.55152878014E+03  0.67272693587E+03  0.00000000000E+00 0. -1.
        -11    1    3    3    0    0  0.51163853625E+02  0.26318123568E+02 -0.13996251391E+03  0.15132709224E+03  0.00000000000E+00 0.  1.
          4    1    6    6  502    0 -0.45331394681E+03 -0.19441702513E+03 -0.68010082527E+03  0.84013608812E+03  0.00000000000E+00 0. -1.
          1    1    5    5  503    0  0.22020910803E+03 -0.32449339124E+02  0.16887910186E+02  0.22322681823E+03  0.00000000000E+00 0. -1.
         -2    1    5    5    0  503  0.18858340680E+02 -0.32189502420E+02 -0.24691769970E+01  0.37388473014E+02  0.00000000000E+00 0.  1.
         -3    1    6    6    0  502 -0.81253829694E+02 -0.65049466682E+02 -0.10876424955E+03  0.15054328260E+03  0.00000000000E+00 0.  1.
<mgrwt>
<rscale>  0 0.14690470E+04</rscale>
<asrwt>0</asrwt>
<pdfrwt beam="1">  1        1 0.27240664E+00 0.14690470E+04</pdfrwt>
<pdfrwt beam="2">  1       -1 0.46877774E-01 0.14690470E+04</pdfrwt>
<totfact> 0.18766571E+01</totfact>
</mgrwt>
</event>
<event>
12    1  0.1402534E-007  0.1683919E+04  0.7818608E-02  0.8770589E-01
          3   -1    0    0  501    0  0.00000000000E+00  0.00000000000E+00  0.14615408979E+04  0.14615408979E+04  0.00000000000E+00 0. -1.
         -3   -1    0    0    0  501 -0.00000000000E+00 -0.00000000000E+00 -0.48503317557E+03  0.48503317557E+03  0.00000000000E+00 0.  1.
         23    2    1    2    0    0 -0.33118100679E+03 -0.99262377303E+02 -0.19904010344E+03  0.40880507713E+03  0.89279054133E+02 0.  0.
        254    2    1    2    0    0  0.33118100679E+03  0.99262377303E+02  0.11755478258E+04  0.15377689963E+04  0.92913234614E+03 0.  0.
        -24    2    4    4    0    0  0.29981542459E+03  0.49603381437E+03  0.72031250705E+03  0.92771562604E+03  0.76598571601E+02 0.  0.
         24    2    4    4    0    0  0.31365582202E+02 -0.39677143707E+03  0.45523531872E+03  0.61005337030E+03  0.80712738714E+02 0.  0.
         11    1    3    3    0    0 -0.19506297705E+01  0.68226327467E+01 -0.15905445368E+02  0.17416557250E+02  0.00000000000E+00 0. -1.
        -11    1    3    3    0    0 -0.32923037702E+03 -0.10608501005E+03 -0.18313465807E+03  0.39138851988E+03  0.00000000000E+00 0.  1.
          2    1    6    6  502    0  0.40236859822E+02 -0.91784696676E+02  0.96701490720E+02  0.13926454588E+03  0.00000000000E+00 0. -1.
          3    1    5    5  503    0  0.55467377525E+01  0.39556998962E+02  0.33622771816E+02  0.52211236829E+02  0.00000000000E+00 0. -1.
         -4    1    5    5    0  503  0.29426868684E+03  0.45647681541E+03  0.68668973524E+03  0.87550438921E+03  0.00000000000E+00 0.  1.
         -1    1    6    6    0  502 -0.88712776194E+01 -0.30498674039E+03  0.35853382800E+03  0.47078882442E+03  0.00000000000E+00 0.  1.
<mgrwt>
<rscale>  0 0.16839190E+04</rscale>
<asrwt>0</asrwt>
<pdfrwt beam="1">  1        3 0.22485244E+00 0.16839190E+04</pdfrwt>
<pdfrwt beam="2">  1       -3 0.74620489E-01 0.16839190E+04</pdfrwt>
<totfact> 0.43903356E-01</totfact>
</mgrwt>
</event>
<event>
12    1  0.1114484E-007  0.1619140E+04  0.7818608E-02  0.8808875E-01
         -2   -1    0    0    0  501 -0.00000000000E+00  0.00000000000E+00  0.88252603668E+03  0.88252603668E+03  0.00000000000E+00 0.  1.
          2   -1    0    0  501    0  0.00000000000E+00 -0.00000000000E+00 -0.74264517899E+03  0.74264517899E+03  0.00000000000E+00 0. -1.
         23    2    1    2    0    0  0.45103477538E+03  0.24272477792E+03  0.24943759814E+03  0.57664213298E+03  0.89159114756E+02 0.  0.
        254    2    1    2    0    0 -0.45103477538E+03 -0.24272477792E+03 -0.10955674045E+03  0.10485290827E+04  0.90832971515E+03 0.  0.
        -24    2    4    4    0    0 -0.42013262801E+03  0.25089532786E+03  0.10090896143E+03  0.50555815393E+03  0.77113797990E+02 0.  0.
         24    2    4    4    0    0 -0.30902147372E+02 -0.49362010578E+03 -0.21046570188E+03  0.54297092875E+03  0.76849634072E+02 0.  0.
         13    1    3    3    0    0  0.38948826411E+03  0.17214227861E+03  0.21325623062E+03  0.47624814106E+03  0.00000000000E+00 0.  1.
        -13    1    3    3    0    0  0.61546511275E+02  0.70582499312E+02  0.36181367524E+02  0.10039399193E+03  0.00000000000E+00 0. -1.
          2    1    6    6  502    0  0.10213243693E+02 -0.61510320541E+02 -0.44794840077E+01  0.62513163868E+02  0.00000000000E+00 0. -1.
          1    1    5    5  503    0 -0.19401578673E+03  0.72628599500E+02  0.33794621964E+02  0.20990263324E+03  0.00000000000E+00 0. -1.
         -2    1    5    5    0  503 -0.22611684128E+03  0.17826672836E+03  0.67114339470E+02  0.29565552069E+03  0.00000000000E+00 0.  1.
         -1    1    6    6    0  502 -0.41115391065E+02 -0.43210978524E+03 -0.20598621787E+03  0.48045776489E+03  0.00000000000E+00 0.  1.
<mgrwt>
<rscale>  0 0.16191402E+04</rscale>
<asrwt>0</asrwt>
<pdfrwt beam="1">  1        2 0.11425310E+00 0.16191402E+04</pdfrwt>
<pdfrwt beam="2">  1       -2 0.13577324E+00 0.16191402E+04</pdfrwt>
<totfact> 0.14135281E+01</totfact>
</mgrwt>
</event>
<event>
12    1  0.1114484E-007  0.1667701E+04  0.7818608E-02  0.8780003E-01
         -1   -1    0    0    0  501 -0.00000000000E+00  0.00000000000E+00  0.10758617094E+04  0.10758617094E+04  0.00000000000E+00 0.  1.
          1   -1    0    0  501    0  0.00000000000E+00 -0.00000000000E+00 -0.64627892451E+03  0.64627892451E+03  0.00000000000E+00 0. -1.
         23    2    1    2    0    0  0.27412510473E+03  0.51789786531E+03  0.12929883276E+03  0.60659836719E+03  0.88772850519E+02 0.  0.
        254    2    1    2    0    0 -0.27412510473E+03 -0.51789786531E+03  0.30028395214E+03  0.11155422667E+04  0.90050059688E+03 0.  0.
        -24    2    4    4    0    0  0.78228372637E+02  0.22220094330E+03  0.10379545553E+03  0.26908082753E+03  0.78345757181E+02 0.  0.
         24    2    4    4    0    0 -0.35235347737E+03 -0.74009880860E+03  0.19648849661E+03  0.84646143919E+03  0.77395214485E+02 0.  0.
         11    1    3    3    0    0  0.42988129576E+02  0.85335791480E+02 -0.11760549903E+02  0.96272982326E+02  0.00000000000E+00 0.  1.
        -11    1    3    3    0    0  0.23113697516E+03  0.43256207383E+03  0.14105938266E+03  0.51032538486E+03  0.00000000000E+00 0. -1.
          4    1    6    6  502    0 -0.28499335515E+01 -0.37311796799E+02  0.18008394461E+02  0.41528238257E+02  0.00000000000E+00 0. -1.
          1    1    5    5  503    0 -0.57459666784E+01  0.21015530645E+02 -0.90585127918E+01  0.23595027344E+02  0.00000000000E+00 0. -1.
         -2    1    5    5    0  503  0.83974339315E+02  0.20118541265E+03  0.11285396832E+03  0.24548580018E+03  0.00000000000E+00 0.  1.
         -3    1    6    6    0  502 -0.34950354382E+03 -0.70278701180E+03  0.17848010215E+03  0.80493320093E+03  0.00000000000E+00 0.  1.
<mgrwt>
<rscale>  0 0.16677011E+04</rscale>
<asrwt>0</asrwt>
<pdfrwt beam="1">  1        1 0.99427527E-01 0.16677011E+04</pdfrwt>
<pdfrwt beam="2">  1       -1 0.16551719E+00 0.16677011E+04</pdfrwt>
<totfact> 0.77847785E+00</totfact>
</mgrwt>
</event>
<event>
12    1  0.1114484E-007  0.2821919E+04  0.7818608E-02  0.8296496E-01
          2   -1    0    0  501    0  0.00000000000E+00  0.00000000000E+00  0.13016207634E+04  0.13016207634E+04  0.00000000000E+00 0.  1.
         -2   -1    0    0    0  501 -0.00000000000E+00 -0.00000000000E+00 -0.15294825196E+04  0.15294825196E+04  0.00000000000E+00 0. -1.
         23    2    1    2    0    0  0.19864924071E+03  0.20993184258E+03  0.11349990922E+04  0.11746568721E+04  0.89793810417E+02 0.  0.
        254    2    1    2    0    0 -0.19864924071E+03 -0.20993184258E+03 -0.13628608485E+04  0.16564464109E+04  0.89604247700E+03 0.  0.
        -24    2    4    4    0    0 -0.28682192593E+03 -0.51918364097E+03 -0.74436918227E+03  0.95511985245E+03  0.79686779188E+02 0.  0.
         24    2    4    4    0    0  0.88172685229E+02  0.30925179839E+03 -0.61849166622E+03  0.70132655849E+03  0.76914908984E+02 0.  0.
         13    1    3    3    0    0  0.19618160778E+03  0.21292028784E+03  0.10391209048E+04  0.10787003880E+04  0.00000000000E+00 0.  1.
        -13    1    3    3    0    0  0.24676329222E+01 -0.29884452669E+01  0.95878187450E+02  0.95956484127E+02  0.00000000000E+00 0. -1.
          2    1    6    6  502    0  0.37197780596E+02  0.14612135393E+03 -0.37183999266E+03  0.40124818392E+03  0.00000000000E+00 0. -1.
          1    1    5    5  503    0 -0.18650280132E+03 -0.35360419684E+03 -0.44091190698E+03  0.59516597067E+03  0.00000000000E+00 0. -1.
         -2    1    5    5    0  503 -0.10031912461E+03 -0.16557944413E+03 -0.30345727529E+03  0.35995388178E+03  0.00000000000E+00 0.  1.
         -1    1    6    6    0  502  0.50974904633E+02  0.16313044447E+03 -0.24665167356E+03  0.30007837457E+03  0.00000000000E+00 0.  1.
<mgrwt>
<rscale>  0 0.28219186E+04</rscale>
<asrwt>0</asrwt>
<pdfrwt beam="1">  1        2 0.20024935E+00 0.28219186E+04</pdfrwt>
<pdfrwt beam="2">  1       -2 0.23530500E+00 0.28219186E+04</pdfrwt>
<totfact> 0.11350662E+00</totfact>
</mgrwt>
</event>
<event>
12    1  0.1114484E-007  0.2620289E+04  0.7818608E-02  0.8361342E-01
         -1   -1    0    0    0  501 -0.00000000000E+00  0.00000000000E+00  0.10287204859E+04  0.10287204859E+04  0.00000000000E+00 0.  1.
          1   -1    0    0  501    0  0.00000000000E+00 -0.00000000000E+00 -0.16685573856E+04  0.16685573856E+04  0.00000000000E+00 0. -1.
         23    2    1    2    0    0 -0.56776538016E+03  0.55535933450E+01  0.75039823379E+03  0.94538540373E+03  0.90926800231E+02 0.  0.
        254    2    1    2    0    0  0.56776538016E+03 -0.55535933450E+01 -0.13902351334E+04  0.17518924678E+04  0.90221124088E+03 0.  0.
        -24    2    4    4    0    0  0.25240044574E+03  0.43533855558E+03 -0.78114782742E+03  0.93269110438E+03  0.80592337903E+02 0.  0.
         24    2    4    4    0    0  0.31536493442E+03 -0.44089214892E+03 -0.60908730602E+03  0.81920136342E+03  0.79136582078E+02 0.  0.
         13    1    3    3    0    0 -0.21863604650E+03 -0.29338788897E+02  0.34189482708E+03  0.40688396153E+03  0.00000000000E+00 0. -1.
        -13    1    3    3    0    0 -0.34912933366E+03  0.34892382242E+02  0.40850340671E+03  0.53850144221E+03  0.00000000000E+00 0.  1.
          4    1    6    6  502    0  0.89419532077E+02 -0.15058903342E+03 -0.24904711582E+03  0.30446243709E+03  0.00000000000E+00 0. -1.
          1    1    5    5  503    0  0.13990729038E+03  0.18160488445E+03 -0.30491929181E+03  0.38148415232E+03  0.00000000000E+00 0. -1.
         -2    1    5    5    0  503  0.11249315536E+03  0.25373367113E+03 -0.47622853561E+03  0.55120695206E+03  0.00000000000E+00 0.  1.
         -3    1    6    6    0  502  0.22594540235E+03 -0.29030311551E+03 -0.36004019020E+03  0.51473892633E+03  0.00000000000E+00 0.  1.
<mgrwt>
<rscale>  0 0.26202894E+04</rscale>
<asrwt>0</asrwt>
<pdfrwt beam="1">  1        1 0.25670113E+00 0.26202894E+04</pdfrwt>
<pdfrwt beam="2">  1       -1 0.15826469E+00 0.26202894E+04</pdfrwt>
<totfact> 0.13263856E+00</totfact>
</mgrwt>
</event>
<event>
12    1  0.1114484E-007  0.1445410E+04  0.7818608E-02  0.8921589E-01
          4   -1    0    0  501    0  0.00000000000E+00  0.00000000000E+00  0.79978809231E+03  0.79978809231E+03  0.00000000000E+00 0.  1.
         -4   -1    0    0    0  501 -0.00000000000E+00 -0.00000000000E+00 -0.65305135503E+03  0.65305135503E+03  0.00000000000E+00 0. -1.
         23    2    1    2    0    0 -0.14610003112E+02 -0.37343207211E+03  0.25956228235E+03  0.46465988628E+03  0.94187402672E+02 0.  0.
        254    2    1    2    0    0  0.14610003112E+02  0.37343207211E+03 -0.11282554507E+03  0.98817956107E+03  0.90780189283E+03 0.  0.
        -24    2    4    4    0    0 -0.18660585660E+03  0.58545114929E+03 -0.23100121594E+03  0.66132496368E+03  0.80089649060E+02 0.  0.
         24    2    4    4    0    0  0.20121585971E+03 -0.21201907718E+03  0.11817567087E+03  0.32685459740E+03  0.86188905124E+02 0.  0.
         13    1    3    3    0    0 -0.15934642737E+01 -0.29717967504E+02 -0.56916835050E+01  0.30300032707E+02  0.00000000000E+00 0. -1.
        -13    1    3    3    0    0 -0.13016538838E+02 -0.34371410461E+03  0.26525396586E+03  0.43435985357E+03  0.00000000000E+00 0.  1.
          2    1    6    6  502    0  0.54045165860E+02 -0.17760142554E+02  0.44572147535E+02  0.72270180242E+02  0.00000000000E+00 0. -1.
          3    1    5    5  503    0 -0.44847953680E+02  0.65268998413E+02 -0.44431779496E+02  0.90805088692E+02  0.00000000000E+00 0. -1.
         -4    1    5    5    0  503 -0.14175790291E+03  0.52018215088E+03 -0.18656943645E+03  0.57051987498E+03  0.00000000000E+00 0.  1.
         -3    1    6    6    0  502  0.14717069385E+03 -0.19425893463E+03  0.73603523338E+02  0.25458441715E+03  0.00000000000E+00 0.  1.
<mgrwt>
<rscale>  0 0.14454102E+04</rscale>
<asrwt>0</asrwt>
<pdfrwt beam="1">  1        4 0.12304432E+00 0.14454102E+04</pdfrwt>
<pdfrwt beam="2">  1       -4 0.10046944E+00 0.14454102E+04</pdfrwt>
<totfact> 0.78714147E-01</totfact>
</mgrwt>
</event>
<event>
12    1  0.1114484E-007  0.2352946E+04  0.7818608E-02  0.8457333E-01
         -2   -1    0    0    0  501 -0.00000000000E+00  0.00000000000E+00  0.59737562577E+03  0.59737562577E+03  0.00000000000E+00 0.  1.
          2   -1    0    0  501    0  0.00000000000E+00 -0.00000000000E+00 -0.23169478652E+04  0.23169478652E+04  0.00000000000E+00 0. -1.
         23    2    1    2    0    0 -0.12151059991E+03  0.52049366463E+03  0.30592843372E+03  0.62277005170E+03  0.92584285540E+02 0.  0.
        254    2    1    2    0    0  0.12151059991E+03 -0.52049366463E+03 -0.20255006731E+04  0.22915534393E+04  0.92891641568E+03 0.  0.
        -24    2    4    4    0    0 -0.80698778556E+02 -0.29447834235E+03 -0.19408955187E+04  0.19667990286E+04  0.89404795588E+02 0.  0.
         24    2    4    4    0    0  0.20220937847E+03 -0.22601532228E+03 -0.84605154423E+02  0.32475441064E+03  0.79597967486E+02 0.  0.
         11    1    3    3    0    0 -0.66688296797E+02  0.43275739321E+03  0.23127279519E+03  0.49519026253E+03  0.00000000000E+00 0.  1.
        -11    1    3    3    0    0 -0.54822303116E+02  0.87736271418E+02  0.74655638529E+02  0.12757978917E+03  0.00000000000E+00 0. -1.
          4    1    6    6  502    0  0.32470900871E+02 -0.20695566833E+01 -0.87533120751E+01  0.33693663210E+02  0.00000000000E+00 0. -1.
          3    1    5    5  503    0 -0.23620843740E+02 -0.14993679051E+02 -0.96451014867E+02  0.10042685368E+03  0.00000000000E+00 0. -1.
         -4    1    5    5    0  503 -0.57077934817E+02 -0.27948466330E+03 -0.18444445038E+04  0.18663721750E+04  0.00000000000E+00 0.  1.
         -3    1    6    6    0  502  0.16973847760E+03 -0.22394576559E+03 -0.75851842347E+02  0.29106074743E+03  0.00000000000E+00 0.  1.
<mgrwt>
<rscale>  0 0.23529455E+04</rscale>
<asrwt>0</asrwt>
<pdfrwt beam="1">  1        2 0.35645352E+00 0.23529455E+04</pdfrwt>
<pdfrwt beam="2">  1       -2 0.91903942E-01 0.23529455E+04</pdfrwt>
<totfact> 0.40294461E+00</totfact>
</mgrwt>
</event>
<event>
12    1  0.1114484E-007  0.3167691E+04  0.7818608E-02  0.8197402E-01
         -1   -1    0    0    0  501 -0.00000000000E+00  0.00000000000E+00  0.15550889659E+04  0.15550889659E+04  0.00000000000E+00 0.  1.
          1   -1    0    0  501    0  0.00000000000E+00 -0.00000000000E+00 -0.16131338349E+04  0.16131338349E+04  0.00000000000E+00 0. -1.
         23    2    1    2    0    0 -0.29078875366E+03 -0.11791581069E+04 -0.82688004578E+03  0.14720461695E+04  0.90649735208E+02 0.  0.
        254    2    1    2    0    0  0.29078875366E+03  0.11791581069E+04  0.76883517669E+03  0.16961766313E+04  0.90051968069E+03 0.  0.
        -24    2    4    4    0    0  0.99144222904E+02  0.11981090495E+04  0.84688206002E+03  0.14726953627E+04  0.79545811733E+02 0.  0.
         24    2    4    4    0    0  0.19164453075E+03 -0.18950942572E+02 -0.78046883325E+02  0.22348126866E+03  0.82254465256E+02 0.  0.
         11    1    3    3    0    0 -0.21038977927E+03 -0.72070337495E+03 -0.47320050030E+03  0.88746601477E+03  0.00000000000E+00 0. -1.
        -11    1    3    3    0    0 -0.80398974386E+02 -0.45845473200E+03 -0.35367954548E+03  0.58458015470E+03  0.00000000000E+00 0.  1.
          2    1    6    6  502    0  0.85511430317E+02 -0.41618382517E+02 -0.10568367499E+02  0.95686910650E+02  0.00000000000E+00 0. -1.
          3    1    5    5  503    0  0.39407554277E+02  0.19811471188E+03  0.11950857001E+03  0.23470128398E+03  0.00000000000E+00 0. -1.
         -4    1    5    5    0  503  0.59736668627E+02  0.99999433764E+03  0.72737349001E+03  0.12379940787E+04  0.00000000000E+00 0.  1.
         -1    1    6    6    0  502  0.10613310044E+03  0.22667439945E+02 -0.67478515826E+02  0.12779435801E+03  0.00000000000E+00 0.  1.
<mgrwt>
<rscale>  0 0.31676910E+04</rscale>
<asrwt>0</asrwt>
<pdfrwt beam="1">  1        1 0.24817444E+00 0.31676910E+04</pdfrwt>
<pdfrwt beam="2">  1       -1 0.23924446E+00 0.31676910E+04</pdfrwt>
<totfact> 0.37603475E-01</totfact>
</mgrwt>
</event>
<event>
12    1  0.1114484E-007  0.2085243E+04  0.7818608E-02  0.8567772E-01
         -2   -1    0    0    0  501 -0.00000000000E+00  0.00000000000E+00  0.72545347933E+03  0.72545347933E+03  0.00000000000E+00 0. -1.
          2   -1    0    0  501    0  0.00000000000E+00 -0.00000000000E+00 -0.14984553631E+04  0.14984553631E+04  0.00000000000E+00 0.  1.
         23    2    1    2    0    0  0.76043425767E+03 -0.91606494363E+02  0.46483123543E+02  0.77262789774E+03  0.90228474137E+02 0.  0.
        254    2    1    2    0    0 -0.76043425767E+03  0.91606494363E+02 -0.81948500734E+03  0.14512809447E+04  0.92087387475E+03 0.  0.
        -24    2    4    4    0    0  0.99450427043E+02 -0.21027005153E+03 -0.41473311027E+02  0.25035471087E+03  0.82786253192E+02 0.  0.
         24    2    4    4    0    0 -0.85988468471E+03  0.30187654589E+03 -0.77801169631E+03  0.12009262338E+04  0.79940600338E+02 0.  0.
         11    1    3    3    0    0  0.25553511877E+03  0.74171939083E+01 -0.36895114474E+01  0.25566936497E+03  0.00000000000E+00 0.  1.
        -11    1    3    3    0    0  0.50489913890E+03 -0.99023688272E+02  0.50172634991E+02  0.51695853277E+03  0.00000000000E+00 0. -1.
          4    1    6    6  502    0 -0.61444534281E+02  0.10237690639E+02 -0.77549255604E+02  0.99469232164E+02  0.00000000000E+00 0. -1.
          3    1    5    5  503    0  0.55783450503E+02 -0.12981216187E+03 -0.65464120835E+02  0.15571943307E+03  0.00000000000E+00 0. -1.
         -4    1    5    5    0  503  0.43666976540E+02 -0.80457889658E+02  0.23990809808E+02  0.94635277796E+02  0.00000000000E+00 0.  1.
         -1    1    6    6    0  502 -0.79844015043E+03  0.29163885525E+03 -0.70046244071E+03  0.11014570017E+04  0.00000000000E+00 0.  1.
<mgrwt>
<rscale>  0 0.20852431E+04</rscale>
<asrwt>0</asrwt>
<pdfrwt beam="1">  1        2 0.23053159E+00 0.20852431E+04</pdfrwt>
<pdfrwt beam="2">  1       -2 0.11160823E+00 0.20852431E+04</pdfrwt>
<totfact> 0.74447274E+00</totfact>
</mgrwt>
</event>
<event>
12    1  0.1114484E-007  0.1229164E+04  0.7818608E-02  0.9087705E-01
          1   -1    0    0  501    0  0.00000000000E+00  0.00000000000E+00  0.52212689895E+03  0.52212689895E+03  0.00000000000E+00 0. -1.
         -1   -1    0    0    0  501 -0.00000000000E+00 -0.00000000000E+00 -0.72340903112E+03  0.72340903112E+03  0.00000000000E+00 0.  1.
         23    2    1    2    0    0  0.13013562175E+03 -0.28589250840E+02 -0.27907035185E+03  0.32229305343E+03  0.90774036453E+02 0.  0.
        254    2    1    2    0    0 -0.13013562175E+03  0.28589250840E+02  0.77788219682E+02  0.92324287664E+03  0.91026027972E+03 0.  0.
        -24    2    4    4    0    0  0.18432075769E+03 -0.13093095184E+01 -0.33944331728E+03  0.39419380995E+03  0.78683785825E+02 0.  0.
         24    2    4    4    0    0 -0.31445637945E+03  0.29898560358E+02  0.41723153696E+03  0.52904906669E+03  0.77678961404E+02 0.  0.
         11    1    3    3    0    0 -0.12109812380E+02 -0.13053773638E+02 -0.37756931726E+02  0.41744873403E+02  0.00000000000E+00 0. -1.
        -11    1    3    3    0    0  0.14224543413E+03 -0.15535477202E+02 -0.24131342012E+03  0.28054818003E+03  0.00000000000E+00 0.  1.
          4    1    6    6  502    0 -0.90932828491E+02 -0.66913105419E+00  0.18003296260E+03  0.20169554942E+03  0.00000000000E+00 0. -1.
          3    1    5    5  503    0  0.72111626010E+01 -0.18459749679E+02 -0.17928283257E+02  0.26724269210E+02  0.00000000000E+00 0. -1.
         -4    1    5    5    0  503  0.17710959509E+03  0.17150440161E+02 -0.32151503402E+03  0.36746954074E+03  0.00000000000E+00 0.  1.
         -3    1    6    6    0  502 -0.22352355096E+03  0.30567691413E+02  0.23719857436E+03  0.32735351727E+03  0.00000000000E+00 0.  1.
<mgrwt>
<rscale>  0 0.12291645E+04</rscale>
<asrwt>0</asrwt>
<pdfrwt beam="1">  1        1 0.80327215E-01 0.12291645E+04</pdfrwt>
<pdfrwt beam="2">  1       -1 0.11129370E+00 0.12291645E+04</pdfrwt>
<totfact> 0.30610870E+01</totfact>
</mgrwt>
</event>
<event>
12    1  0.1114484E-007  0.1556532E+04  0.7818608E-02  0.8847706E-01
          1   -1    0    0  501    0  0.00000000000E+00  0.00000000000E+00  0.65403055815E+03  0.65403055815E+03  0.00000000000E+00 0. -1.
         -1   -1    0    0    0  501 -0.00000000000E+00 -0.00000000000E+00 -0.92610098393E+03  0.92610098393E+03  0.00000000000E+00 0.  1.
         23    2    1    2    0    0 -0.45595590384E+03  0.15349132446E+03  0.75273966698E+02  0.49561356777E+03  0.92256520413E+02 0.  0.
        254    2    1    2    0    0  0.45595590384E+03 -0.15349132446E+03 -0.34734439248E+03  0.10845179743E+04  0.90778617343E+03 0.  0.
        -24    2    4    4    0    0  0.51715559103E+03 -0.21773191313E+03  0.13984418007E+03  0.58290381933E+03  0.73235077369E+02 0.  0.
         24    2    4    4    0    0 -0.61199687188E+02  0.64240588666E+02 -0.48718857255E+03  0.50161415498E+03  0.79948735510E+02 0.  0.
         13    1    3    3    0    0 -0.43509213825E+03  0.12172735057E+03  0.67328644100E+02  0.45678864145E+03  0.00000000000E+00 0. -1.
        -13    1    3    3    0    0 -0.20863765594E+02  0.31763973895E+02  0.79453225983E+01  0.38824926317E+02  0.00000000000E+00 0.  1.
          4    1    6    6  502    0  0.15387754674E+02  0.94667682407E+01 -0.16390037949E+03  0.16489310807E+03  0.00000000000E+00 0. -1.
          1    1    5    5  503    0  0.31951570480E+02 -0.18096977000E+02 -0.84508491794E+01  0.37680502711E+02  0.00000000000E+00 0. -1.
         -2    1    5    5    0  503  0.48520402055E+03 -0.19963493613E+03  0.14829502925E+03  0.54522331661E+03  0.00000000000E+00 0.  1.
         -3    1    6    6    0  502 -0.76587441862E+02  0.54773820425E+02 -0.32328819306E+03  0.33672104691E+03  0.00000000000E+00 0.  1.
<mgrwt>
<rscale>  0 0.15565325E+04</rscale>
<asrwt>0</asrwt>
<pdfrwt beam="1">  1        1 0.10062009E+00 0.15565325E+04</pdfrwt>
<pdfrwt beam="2">  1       -1 0.14247707E+00 0.15565325E+04</pdfrwt>
<totfact> 0.11633190E+01</totfact>
</mgrwt>
</event>
<event>
12    1  0.1114484E-007  0.1461693E+04  0.7818608E-02  0.8910334E-01
          2   -1    0    0  501    0  0.00000000000E+00  0.00000000000E+00  0.22890418075E+04  0.22890418075E+04  0.00000000000E+00 0. -1.
         -2   -1    0    0    0  501 -0.00000000000E+00 -0.00000000000E+00 -0.23334513951E+03  0.23334513951E+03  0.00000000000E+00 0.  1.
         23    2    1    2    0    0  0.19150484972E+03 -0.39736550023E+03  0.55724680569E+03  0.71697235793E+03  0.94614540905E+02 0.  0.
        254    2    1    2    0    0 -0.19150484972E+03  0.39736550023E+03  0.14984498623E+04  0.18054145891E+04  0.90531563577E+03 0.  0.
        -24    2    4    4    0    0 -0.20784772408E+03  0.57690183311E+03  0.52165974197E+03  0.80894004231E+03  0.78985468309E+02 0.  0.
         24    2    4    4    0    0  0.16342874360E+02 -0.17953633288E+03  0.97679012030E+03  0.99647454674E+03  0.79637923272E+02 0.  0.
         13    1    3    3    0    0  0.13338242485E+03 -0.20143377926E+03  0.35530777372E+03  0.42966271976E+03  0.00000000000E+00 0.  1.
        -13    1    3    3    0    0  0.58122424869E+02 -0.19593172096E+03  0.20193903197E+03  0.28730963817E+03  0.00000000000E+00 0. -1.
          4    1    6    6  502    0  0.12331397963E+02 -0.25452014165E+02  0.34486885181E+03  0.34602657896E+03  0.00000000000E+00 0. -1.
          1    1    5    5  503    0 -0.12828324281E+03  0.24772811572E+03  0.21733613679E+03  0.35363937290E+03  0.00000000000E+00 0. -1.
         -2    1    5    5    0  503 -0.79564481266E+02  0.32917371739E+03  0.30432360518E+03  0.45530066941E+03  0.00000000000E+00 0.  1.
         -3    1    6    6    0  502  0.40114763979E+01 -0.15408431872E+03  0.63192126849E+03  0.65044796778E+03  0.00000000000E+00 0.  1.
<mgrwt>
<rscale>  0 0.14616932E+04</rscale>
<asrwt>0</asrwt>
<pdfrwt beam="1">  1        2 0.35216026E+00 0.14616932E+04</pdfrwt>
<pdfrwt beam="2">  1       -2 0.35899254E-01 0.14616932E+04</pdfrwt>
<totfact> 0.32570994E+01</totfact>
</mgrwt>
</event>
<event>
12    1  0.1114484E-007  0.1055450E+04  0.7818608E-02  0.9249735E-01
          2   -1    0    0  501    0  0.00000000000E+00  0.00000000000E+00  0.42395187118E+03  0.42395187118E+03  0.00000000000E+00 0. -1.
         -2   -1    0    0    0  501 -0.00000000000E+00 -0.00000000000E+00 -0.65689980343E+03  0.65689980343E+03  0.00000000000E+00 0.  1.
         23    2    1    2    0    0 -0.40697364250E+02  0.12948081872E+03 -0.11108308046E+02  0.16093861624E+03  0.85768792793E+02 0.  0.
        254    2    1    2    0    0  0.40697364250E+02 -0.12948081872E+03 -0.22183962420E+03  0.91991305837E+03  0.88238634295E+03 0.  0.
        -24    2    4    4    0    0  0.17282509416E+03 -0.35918905264E+03  0.16957573238E+03  0.44040728057E+03  0.79481790709E+02 0.  0.
         24    2    4    4    0    0 -0.13212772991E+03  0.22970823392E+03 -0.39141535658E+03  0.47950577781E+03  0.80599006441E+02 0.  0.
         11    1    3    3    0    0 -0.26719070016E+02  0.13919630490E+03 -0.17375538814E+02  0.14279856214E+03  0.00000000000E+00 0.  1.
        -11    1    3    3    0    0 -0.13978294235E+02 -0.97154861786E+01  0.62672307681E+01  0.18140054104E+02  0.00000000000E+00 0. -1.
          4    1    6    6  502    0 -0.11669232644E+03  0.12745304120E+03 -0.26184428359E+03  0.31372568529E+03  0.00000000000E+00 0. -1.
          3    1    5    5  503    0  0.17440857171E+03 -0.33437242651E+03  0.17369274245E+03  0.41520168385E+03  0.00000000000E+00 0. -1.
         -4    1    5    5    0  503 -0.15834775481E+01 -0.24816626132E+02 -0.41170100696E+01  0.25205596712E+02  0.00000000000E+00 0.  1.
         -3    1    6    6    0  502 -0.15435403466E+02  0.10225519272E+03 -0.12957107300E+03  0.16578009252E+03  0.00000000000E+00 0.  1.
<mgrwt>
<rscale>  0 0.10554504E+04</rscale>
<asrwt>0</asrwt>
<pdfrwt beam="1">  1        2 0.65223365E-01 0.10554504E+04</pdfrwt>
<pdfrwt beam="2">  1       -2 0.10106151E+00 0.10554504E+04</pdfrwt>
<totfact> 0.59705208E+01</totfact>
</mgrwt>
</event>
<event>
12    1  0.1114484E-007  0.1722635E+04  0.7818608E-02  0.8748559E-01
         -1   -1    0    0    0  501 -0.00000000000E+00  0.00000000000E+00  0.39652852094E+03  0.39652852094E+03  0.00000000000E+00 0.  1.
          1   -1    0    0  501    0  0.00000000000E+00 -0.00000000000E+00 -0.18709055912E+04  0.18709055912E+04  0.00000000000E+00 0. -1.
         23    2    1    2    0    0 -0.12102947377E+03 -0.58029906427E+03 -0.51295183201E+03  0.78911131393E+03  0.90454111578E+02 0.  0.
        254    2    1    2    0    0  0.12102947377E+03  0.58029906427E+03 -0.96142523822E+03  0.14783227982E+04  0.95378439355E+03 0.  0.
        -24    2    4    4    0    0 -0.38003251699E+02  0.24675892389E+03  0.15169094587E+03  0.30279418222E+03  0.79623866205E+02 0.  0.
         24    2    4    4    0    0  0.15903272547E+03  0.33354014039E+03 -0.11131161841E+04  0.11755286159E+04  0.79369103565E+02 0.  0.
         13    1    3    3    0    0 -0.91811307761E+02 -0.30348317762E+03 -0.22624913929E+03  0.38951255225E+03  0.00000000000E+00 0. -1.
        -13    1    3    3    0    0 -0.29218166012E+02 -0.27681588666E+03 -0.28670269271E+03  0.39959876168E+03  0.00000000000E+00 0.  1.
          2    1    6    6  502    0  0.12175576464E+03  0.21983364312E+03 -0.64141820354E+03  0.68888940237E+03  0.00000000000E+00 0. -1.
          3    1    5    5  503    0 -0.25229841701E+02  0.57399312479E+02  0.75856045645E+02  0.98414255300E+02  0.00000000000E+00 0. -1.
         -4    1    5    5    0  503 -0.12773409997E+02  0.18935961141E+03  0.75834900227E+02  0.20437992692E+03  0.00000000000E+00 0.  1.
         -1    1    6    6    0  502  0.37276960833E+02  0.11370649727E+03 -0.47169798055E+03  0.48663921357E+03  0.00000000000E+00 0.  1.
<mgrwt>
<rscale>  0 0.17226345E+04</rscale>
<asrwt>0</asrwt>
<pdfrwt beam="1">  1        1 0.28783163E+00 0.17226345E+04</pdfrwt>
<pdfrwt beam="2">  1       -1 0.61004389E-01 0.17226345E+04</pdfrwt>
<totfact> 0.94385575E+00</totfact>
</mgrwt>
</event>
<event>
12    1  0.1114484E-007  0.1434866E+04  0.7818608E-02  0.8928960E-01
          2   -1    0    0  501    0  0.00000000000E+00  0.00000000000E+00  0.11506778376E+04  0.11506778376E+04  0.00000000000E+00 0.  1.
         -2   -1    0    0    0  501 -0.00000000000E+00 -0.00000000000E+00 -0.44731065211E+03  0.44731065211E+03  0.00000000000E+00 0. -1.
         23    2    1    2    0    0  0.11477031359E+03 -0.35568299409E+03 -0.19650474430E+02  0.38496589775E+03  0.90166424603E+02 0.  0.
        254    2    1    2    0    0 -0.11477031359E+03  0.35568299409E+03  0.72301765994E+03  0.12130225920E+04  0.89943685431E+03 0.  0.
        -24    2    4    4    0    0 -0.36828135163E+03  0.34326461705E+03  0.78802793185E+03  0.93848915790E+03  0.79448894541E+02 0.  0.
         24    2    4    4    0    0  0.25351103804E+03  0.12418377031E+02 -0.65010271906E+02  0.27453343407E+03  0.81976877683E+02 0.  0.
         13    1    3    3    0    0  0.12402122417E+03 -0.34120971002E+03 -0.61231263302E+01  0.36310167025E+03  0.00000000000E+00 0. -1.
        -13    1    3    3    0    0 -0.92509105755E+01 -0.14473284061E+02 -0.13527348100E+02  0.21864227510E+02  0.00000000000E+00 0.  1.
          4    1    6    6  502    0  0.45869095795E+01 -0.71219152354E+01 -0.18776758390E+02  0.20599225028E+02  0.00000000000E+00 0. -1.
          1    1    5    5  503    0 -0.68026763266E+02  0.34880151534E+02  0.15736772921E+03  0.17495390161E+03  0.00000000000E+00 0. -1.
         -2    1    5    5    0  503 -0.30025458836E+03  0.30838446552E+03  0.63066020263E+03  0.76353525629E+03  0.00000000000E+00 0.  1.
         -3    1    6    6    0  502  0.24892412846E+03  0.19540292266E+02 -0.46233513516E+02  0.25393420904E+03  0.00000000000E+00 0.  1.
<mgrwt>
<rscale>  0 0.14348665E+04</rscale>
<asrwt>0</asrwt>
<pdfrwt beam="1">  1        2 0.17702736E+00 0.14348665E+04</pdfrwt>
<pdfrwt beam="2">  1       -2 0.68817024E-01 0.14348665E+04</pdfrwt>
<totfact> 0.37997458E+01</totfact>
</mgrwt>
</event>
<event>
12    1  0.1114484E-007  0.1910632E+04  0.7818608E-02  0.8649582E-01
         -2   -1    0    0    0  501 -0.00000000000E+00  0.00000000000E+00  0.83334442816E+03  0.83334442816E+03  0.00000000000E+00 0.  1.
          2   -1    0    0  501    0  0.00000000000E+00 -0.00000000000E+00 -0.10951402537E+04  0.10951402537E+04  0.00000000000E+00 0. -1.
         23    2    1    2    0    0 -0.43324108520E+02 -0.53249997611E+02 -0.84656875038E+03  0.85428133261E+03  0.91680998630E+02 0.  0.
        254    2    1    2    0    0  0.43324108520E+02  0.53249997611E+02  0.58477292480E+03  0.10742033493E+04  0.89846587103E+03 0.  0.
        -24    2    4    4    0    0 -0.33663815742E+02  0.14527059398E+03  0.79847220562E+03  0.81604669076E+03  0.78342455904E+02 0.  0.
         24    2    4    4    0    0  0.76987924263E+02 -0.92020596367E+02 -0.21369928082E+03  0.25815665851E+03  0.81132897607E+02 0.  0.
         11    1    3    3    0    0  0.19089219411E+02 -0.22933612824E+02 -0.49687525157E+03  0.49777039337E+03  0.00000000000E+00 0.  1.
        -11    1    3    3    0    0 -0.62413327931E+02 -0.30316384788E+02 -0.34969349881E+03  0.35651093924E+03  0.00000000000E+00 0. -1.
          4    1    6    6  502    0  0.14584202046E+02 -0.57905082739E+02 -0.44050493215E+02  0.74203392839E+02  0.00000000000E+00 0. -1.
          1    1    5    5  503    0  0.25699762239E+02  0.44984261261E+02  0.23294736801E+03  0.23863892768E+03  0.00000000000E+00 0. -1.
         -2    1    5    5    0  503 -0.59363577982E+02  0.10028633272E+03  0.56552483761E+03  0.57740776308E+03  0.00000000000E+00 0.  1.
         -3    1    6    6    0  502  0.62403722217E+02 -0.34115513628E+02 -0.16964878761E+03  0.18395326568E+03  0.00000000000E+00 0.  1.
<mgrwt>
<rscale>  0 0.19106324E+04</rscale>
<asrwt>0</asrwt>
<pdfrwt beam="1">  1        2 0.16848312E+00 0.19106324E+04</pdfrwt>
<pdfrwt beam="2">  1       -2 0.12820684E+00 0.19106324E+04</pdfrwt>
<totfact> 0.92352478E+00</totfact>
</mgrwt>
</event>
<event>
12    1  0.1293443E-007  0.1410296E+04  0.7818608E-02  0.8946400E-01
          2   -1    0    0  501    0  0.00000000000E+00  0.00000000000E+00  0.19537886210E+04  0.19537886210E+04  0.00000000000E+00 0.  1.
         -2   -1    0    0    0  501 -0.00000000000E+00 -0.00000000000E+00 -0.25449707619E+03  0.25449707619E+03  0.00000000000E+00 0. -1.
         23    2    1    2    0    0  0.71464861365E+02  0.34054733048E+03  0.16068287093E+03  0.39386818553E+03  0.90738370357E+02 0.  0.
        254    2    1    2    0    0 -0.71464861365E+02 -0.34054733048E+03  0.15386086739E+04  0.18144175116E+04  0.89650127973E+03 0.  0.
        -24    2    4    4    0    0  0.17428834463E+03 -0.39468012766E+03  0.26456904758E+03  0.51327596758E+03  0.85478697435E+02 0.  0.
         24    2    4    4    0    0 -0.24575320599E+03  0.54132797182E+02  0.12740396263E+04  0.13011415441E+04  0.80419838175E+02 0.  0.
         11    1    3    3    0    0  0.62576283237E+02  0.33404718316E+03  0.16948178450E+03  0.37977280982E+03  0.00000000000E+00 0. -1.
        -11    1    3    3    0    0  0.88885781281E+01  0.65001473156E+01 -0.87989135707E+01  0.14095375706E+02  0.00000000000E+00 0.  1.
          2    1    6    6  502    0 -0.67639562704E+02 -0.10219741903E+02  0.22591232852E+03  0.23604222873E+03  0.00000000000E+00 0. -1.
          3    1    5    5  503    0  0.38550227620E+02 -0.59186224480E+02  0.80994491526E+02  0.10746737587E+03  0.00000000000E+00 0. -1.
         -4    1    5    5    0  503  0.13573811700E+03 -0.33549390318E+03  0.18357455606E+03  0.40580859171E+03  0.00000000000E+00 0.  1.
         -1    1    6    6    0  502 -0.17811364329E+03  0.64352539085E+02  0.10481272978E+04  0.10650993153E+04  0.00000000000E+00 0.  1.
<mgrwt>
<rscale>  0 0.14102957E+04</rscale>
<asrwt>0</asrwt>
<pdfrwt beam="1">  1        2 0.30058285E+00 0.14102957E+04</pdfrwt>
<pdfrwt beam="2">  1       -2 0.39153398E-01 0.14102957E+04</pdfrwt>
<totfact> 0.42535502E+01</totfact>
</mgrwt>
</event>
<event>
12    1  0.1114484E-007  0.1633213E+04  0.7818608E-02  0.8800400E-01
          1   -1    0    0  501    0  0.00000000000E+00  0.00000000000E+00  0.52257950366E+03  0.52257950366E+03  0.00000000000E+00 0. -1.
         -1   -1    0    0    0  501 -0.00000000000E+00 -0.00000000000E+00 -0.12760671591E+04  0.12760671591E+04  0.00000000000E+00 0.  1.
         23    2    1    2    0    0 -0.42574998643E+02  0.55321639084E+03 -0.22101327567E+03  0.60362109993E+03  0.87467471923E+02 0.  0.
        254    2    1    2    0    0  0.42574998643E+02 -0.55321639084E+03 -0.53247437972E+03  0.11950255628E+04  0.91471095163E+03 0.  0.
        -24    2    4    4    0    0 -0.40342157416E+03 -0.12688682220E+03 -0.11464043003E+03  0.44568799370E+03  0.81523784179E+02 0.  0.
         24    2    4    4    0    0  0.44599657280E+03 -0.42632956864E+03 -0.41783394969E+03  0.74933756908E+03  0.79067938282E+02 0.  0.
         11    1    3    3    0    0 -0.10751750996E+02  0.49267465810E+03 -0.18544940957E+03  0.52653148281E+03  0.00000000000E+00 0.  1.
        -11    1    3    3    0    0 -0.31823247647E+02  0.60541732744E+02 -0.35563866105E+02  0.77089617114E+02  0.00000000000E+00 0. -1.
          4    1    6    6  502    0  0.34081207727E+03 -0.31659916208E+03 -0.35363926753E+03  0.58433606168E+03  0.00000000000E+00 0. -1.
          3    1    5    5  503    0 -0.39480523971E+03 -0.10722081264E+03 -0.10664943923E+03  0.42277840869E+03  0.00000000000E+00 0. -1.
         -4    1    5    5    0  503 -0.86163344514E+01 -0.19666009566E+02 -0.79909907988E+01  0.22909585015E+02  0.00000000000E+00 0.  1.
         -3    1    6    6    0  502  0.10518449553E+03 -0.10973040656E+03 -0.64194682165E+02  0.16500150740E+03  0.00000000000E+00 0.  1.
<mgrwt>
<rscale>  0 0.16332134E+04</rscale>
<asrwt>0</asrwt>
<pdfrwt beam="1">  1        1 0.80396848E-01 0.16332134E+04</pdfrwt>
<pdfrwt beam="2">  1       -1 0.19631802E+00 0.16332134E+04</pdfrwt>
<totfact> 0.63651049E+00</totfact>
</mgrwt>
</event>
<event>
12    1  0.1114484E-007  0.1930149E+04  0.7818608E-02  0.8639993E-01
         -2   -1    0    0    0  501 -0.00000000000E+00  0.00000000000E+00  0.19548196921E+04  0.19548196921E+04  0.00000000000E+00 0. -1.
          2   -1    0    0  501    0  0.00000000000E+00 -0.00000000000E+00 -0.47644758828E+03  0.47644758828E+03  0.00000000000E+00 0.  1.
         23    2    1    2    0    0 -0.62724638980E+03  0.40511056855E+03  0.65177044272E+03  0.99534994751E+03  0.91456009733E+02 0.  0.
        254    2    1    2    0    0  0.62724638980E+03 -0.40511056855E+03  0.82660166113E+03  0.14359173329E+04  0.90611018893E+03 0.  0.
        -24    2    4    4    0    0  0.42245100591E+03  0.23259560705E+03  0.25312093079E+03  0.55057903035E+03  0.80631843818E+02 0.  0.
         24    2    4    4    0    0  0.20479538389E+03 -0.63770617561E+03  0.57348073034E+03  0.88533830256E+03  0.79582951937E+02 0.  0.
         11    1    3    3    0    0 -0.20564383310E+03  0.86299811873E+02  0.17425377666E+03  0.28302194667E+03  0.00000000000E+00 0. -1.
        -11    1    3    3    0    0 -0.42160255670E+03  0.31881075668E+03  0.47751666607E+03  0.71232800083E+03  0.00000000000E+00 0.  1.
          2    1    6    6  502    0  0.80457939787E+02 -0.36591322844E+03  0.29547744809E+03  0.47715080755E+03  0.00000000000E+00 0. -1.
          1    1    5    5  503    0  0.35764641324E+03  0.16259997256E+03  0.21499364391E+03  0.44785262632E+03  0.00000000000E+00 0. -1.
         -2    1    5    5    0  503  0.64804592675E+02  0.69995634495E+02  0.38127286878E+02  0.10272640403E+03  0.00000000000E+00 0.  1.
         -1    1    6    6    0  502  0.12433744410E+03 -0.27179294717E+03  0.27800328225E+03  0.40818749501E+03  0.00000000000E+00 0.  1.
<mgrwt>
<rscale>  0 0.19301493E+04</rscale>
<asrwt>0</asrwt>
<pdfrwt beam="1">  1        2 0.73299630E-01 0.19301493E+04</pdfrwt>
<pdfrwt beam="2">  1       -2 0.30074149E+00 0.19301493E+04</pdfrwt>
<totfact> 0.19162346E+00</totfact>
</mgrwt>
</event>
<event>
12    1  0.1114484E-007  0.2052921E+04  0.7818608E-02  0.8582270E-01
          2   -1    0    0  501    0  0.00000000000E+00  0.00000000000E+00  0.71962819965E+03  0.71962819965E+03  0.00000000000E+00 0. -1.
         -2   -1    0    0    0  501 -0.00000000000E+00 -0.00000000000E+00 -0.14641194530E+04  0.14641194530E+04  0.00000000000E+00 0.  1.
         23    2    1    2    0    0  0.70465020867E+03 -0.27122978399E+03  0.45332542212E+02  0.76212711542E+03  0.93194358045E+02 0.  0.
        254    2    1    2    0    0 -0.70465020867E+03  0.27122978399E+03 -0.78982379551E+03  0.14216205372E+04  0.90944258284E+03 0.  0.
        -24    2    4    4    0    0 -0.68148195779E+02  0.49086431484E+03 -0.37907353498E+03  0.62898286888E+03  0.79566024486E+02 0.  0.
         24    2    4    4    0    0 -0.63650201290E+03 -0.21963453085E+03 -0.41075026054E+03  0.79263766831E+03  0.78641955241E+02 0.  0.
         11    1    3    3    0    0  0.13144203436E+03 -0.13081886416E+02  0.10461937911E+02  0.13250508026E+03  0.00000000000E+00 0.  1.
        -11    1    3    3    0    0  0.57320817431E+03 -0.25814789757E+03  0.34870604301E+02  0.62962203516E+03  0.00000000000E+00 0. -1.
          2    1    6    6  502    0 -0.10596290563E+03 -0.47993598691E+02 -0.10497720971E+03  0.15668994047E+03  0.00000000000E+00 0. -1.
          1    1    5    5  503    0 -0.21428005694E+01  0.12267582438E+02  0.32608906270E+01  0.12873172912E+02  0.00000000000E+00 0. -1.
         -2    1    5    5    0  503 -0.66005395209E+02  0.47859673240E+03 -0.38233442560E+03  0.61610969596E+03  0.00000000000E+00 0.  1.
         -1    1    6    6    0  502 -0.53053910727E+03 -0.17164093216E+03 -0.30577305082E+03  0.63594772784E+03  0.00000000000E+00 0.  1.
<mgrwt>
<rscale>  0 0.20529215E+04</rscale>
<asrwt>0</asrwt>
<pdfrwt beam="1">  1        2 0.11071203E+00 0.20529215E+04</pdfrwt>
<pdfrwt beam="2">  1       -2 0.22524914E+00 0.20529215E+04</pdfrwt>
<totfact> 0.33491693E+00</totfact>
</mgrwt>
</event>
<event>
12    1  0.1114484E-007  0.1177933E+04  0.7818608E-02  0.9132394E-01
         -1   -1    0    0    0  501 -0.00000000000E+00  0.00000000000E+00  0.15360279051E+03  0.15360279051E+03  0.00000000000E+00 0.  1.
          1   -1    0    0  501    0  0.00000000000E+00 -0.00000000000E+00 -0.22583005492E+04  0.22583005492E+04  0.00000000000E+00 0. -1.
         23    2    1    2    0    0 -0.19242215005E+03  0.94717227463E+02 -0.27388950771E+03  0.36017753405E+03  0.93352860649E+02 0.  0.
        254    2    1    2    0    0  0.19242215005E+03 -0.94717227463E+02 -0.18308082509E+04  0.20517258056E+04  0.90095632120E+03 0.  0.
        -24    2    4    4    0    0  0.50664182083E+03 -0.22554673817E+03 -0.93670136293E+03  0.10914128714E+04  0.78837470507E+02 0.  0.
         24    2    4    4    0    0 -0.31421967078E+03  0.13082951071E+03 -0.89410688802E+03  0.96031293426E+03  0.83207224003E+02 0.  0.
         11    1    3    3    0    0 -0.17723049741E+03  0.65000227354E+02 -0.18121466588E+03  0.26167620048E+03  0.00000000000E+00 0.  1.
        -11    1    3    3    0    0 -0.15191652633E+02  0.29717000110E+02 -0.92674841835E+02  0.98501333567E+02  0.00000000000E+00 0. -1.
          2    1    6    6  502    0 -0.61818751056E+02  0.97999800381E+01 -0.96572400341E+02  0.11508182349E+03  0.00000000000E+00 0. -1.
          3    1    5    5  503    0  0.28425664967E+03 -0.99039191257E+02 -0.56474008163E+03  0.63995465783E+03  0.00000000000E+00 0. -1.
         -4    1    5    5    0  503  0.22238517116E+03 -0.12650754691E+03 -0.37196128130E+03  0.45145821353E+03  0.00000000000E+00 0.  1.
         -1    1    6    6    0  502 -0.25240091972E+03  0.12102953067E+03 -0.79753448767E+03  0.84523111076E+03  0.00000000000E+00 0.  1.
<mgrwt>
<rscale>  0 0.11779325E+04</rscale>
<asrwt>0</asrwt>
<pdfrwt beam="1">  1        1 0.34743087E+00 0.11779325E+04</pdfrwt>
<pdfrwt beam="2">  1       -1 0.23631198E-01 0.11779325E+04</pdfrwt>
<totfact> 0.30520782E+01</totfact>
</mgrwt>
</event>
<event>
12    1  0.1114484E-007  0.2547153E+04  0.7818608E-02  0.8386377E-01
         -2   -1    0    0    0  501 -0.00000000000E+00  0.00000000000E+00  0.12879878570E+04  0.12879878570E+04  0.00000000000E+00 0.  1.
          2   -1    0    0  501    0  0.00000000000E+00 -0.00000000000E+00 -0.12593260900E+04  0.12593260900E+04  0.00000000000E+00 0. -1.
         23    2    1    2    0    0  0.10595297042E+04 -0.66608305390E+02 -0.30489477416E+03  0.11083524766E+04  0.91894116656E+02 0.  0.
        254    2    1    2    0    0 -0.10595297042E+04  0.66608305390E+02  0.33355654114E+03  0.14389614704E+04  0.91231041138E+03 0.  0.
        -24    2    4    4    0    0 -0.77228846102E+03 -0.26002122876E+03  0.50803149303E+03  0.96351335463E+03  0.78876360270E+02 0.  0.
         24    2    4    4    0    0 -0.28724124319E+03  0.32662953415E+03 -0.17447495189E+03  0.47544811578E+03  0.80093804934E+02 0.  0.
         13    1    3    3    0    0  0.34396944163E+02 -0.11134328893E+02 -0.25936492015E+02  0.44495220706E+02  0.00000000000E+00 0. -1.
        -13    1    3    3    0    0  0.10251327601E+04 -0.55473976497E+02 -0.27895828215E+03  0.10638572559E+04  0.00000000000E+00 0.  1.
          2    1    6    6  502    0 -0.13700479390E+03  0.21483292581E+03 -0.10775898492E+03  0.27665049864E+03  0.00000000000E+00 0. -1.
          1    1    5    5  503    0 -0.73176629701E+03 -0.24424682094E+03  0.45774572697E+03  0.89703376388E+03  0.00000000000E+00 0. -1.
         -2    1    5    5    0  503 -0.40522164009E+02 -0.15774407820E+02  0.50285766062E+02  0.66479590752E+02  0.00000000000E+00 0.  1.
         -1    1    6    6    0  502 -0.15023644929E+03  0.11179660834E+03 -0.66715966967E+02  0.19879761714E+03  0.00000000000E+00 0.  1.
<mgrwt>
<rscale>  0 0.25471527E+04</rscale>
<asrwt>0</asrwt>
<pdfrwt beam="1">  1        2 0.19374247E+00 0.25471527E+04</pdfrwt>
<pdfrwt beam="2">  1       -2 0.19815198E+00 0.25471527E+04</pdfrwt>
<totfact> 0.21223581E+00</totfact>
</mgrwt>
</event>
<event>
12    1  0.1114484E-007  0.1999066E+04  0.7818608E-02  0.8607057E-01
         -2   -1    0    0    0  501 -0.00000000000E+00  0.00000000000E+00  0.46763677277E+03  0.46763677277E+03  0.00000000000E+00 0.  1.
          2   -1    0    0  501    0  0.00000000000E+00 -0.00000000000E+00 -0.21364152579E+04  0.21364152579E+04  0.00000000000E+00 0. -1.
         23    2    1    2    0    0  0.21965419346E+03  0.45662185206E+03  0.13635542864E+03  0.53294513369E+03  0.93199957718E+02 0.  0.
        254    2    1    2    0    0 -0.21965419346E+03 -0.45662185206E+03 -0.18051339138E+04  0.20711068970E+04  0.87989990999E+03 0.  0.
        -24    2    4    4    0    0 -0.45355931570E+03 -0.17198800184E+03 -0.15229459949E+04  0.16002397185E+04  0.78145553918E+02 0.  0.
         24    2    4    4    0    0  0.23390512223E+03 -0.28463385023E+03 -0.28218791884E+03  0.47086717847E+03  0.79736085439E+02 0.  0.
         13    1    3    3    0    0  0.13927216581E+02  0.61704125096E+02 -0.10377020055E+02  0.64101863941E+02  0.00000000000E+00 0. -1.
        -13    1    3    3    0    0  0.20572697688E+03  0.39491772697E+03  0.14673244870E+03  0.46884326975E+03  0.00000000000E+00 0.  1.
          4    1    6    6  502    0  0.18282785170E+03 -0.16399376302E+03 -0.19339277482E+03  0.31260317180E+03  0.00000000000E+00 0. -1.
          3    1    5    5  503    0 -0.43581880801E+03 -0.18039844983E+03 -0.14596225693E+04  0.15339425279E+04  0.00000000000E+00 0. -1.
         -4    1    5    5    0  503 -0.17740507683E+02  0.84104479892E+01 -0.63323425666E+02  0.66297190636E+02  0.00000000000E+00 0.  1.
         -3    1    6    6    0  502  0.51077270532E+02 -0.12064008721E+03 -0.88795144023E+02  0.15826400667E+03  0.00000000000E+00 0.  1.
<mgrwt>
<rscale>  0 0.19990661E+04</rscale>
<asrwt>0</asrwt>
<pdfrwt beam="1">  1        2 0.32867928E+00 0.19990661E+04</pdfrwt>
<pdfrwt beam="2">  1       -2 0.71944118E-01 0.19990661E+04</pdfrwt>
<totfact> 0.91184420E+00</totfact>
</mgrwt>
</event>
<event>
12    1  0.1114484E-007  0.1521725E+04  0.7818608E-02  0.8870133E-01
         -1   -1    0    0    0  501 -0.00000000000E+00  0.00000000000E+00  0.24284799629E+03  0.24284799629E+03  0.00000000000E+00 0.  1.
          1   -1    0    0  501    0  0.00000000000E+00 -0.00000000000E+00 -0.23838444154E+04  0.23838444154E+04  0.00000000000E+00 0. -1.
         23    2    1    2    0    0 -0.38456077659E+03 -0.17903407262E+03 -0.27797465366E+03  0.51512199531E+03  0.90225118038E+02 0.  0.
        254    2    1    2    0    0  0.38456077659E+03  0.17903407262E+03 -0.18630217654E+04  0.21115704164E+04  0.89885445693E+03 0.  0.
        -24    2    4    4    0    0 -0.35258653441E+02  0.35081895971E+03 -0.14456382239E+04  0.14901398856E+04  0.79560602068E+02 0.  0.
         24    2    4    4    0    0  0.41981943003E+03 -0.17178488708E+03 -0.41738354159E+03  0.62143053072E+03  0.78793924059E+02 0.  0.
         13    1    3    3    0    0 -0.21613732842E+03 -0.80145767210E+02 -0.19870793145E+03  0.30434114207E+03  0.00000000000E+00 0. -1.
        -13    1    3    3    0    0 -0.16842344817E+03 -0.98888305413E+02 -0.79266722205E+02  0.21078085323E+03  0.00000000000E+00 0.  1.
          2    1    6    6  502    0  0.98036965224E+02 -0.57585527017E+02 -0.65955981180E+02  0.13144402202E+03  0.00000000000E+00 0. -1.
          1    1    5    5  503    0  0.22500420080E+02  0.13769421622E+03 -0.61781261236E+03  0.63337065773E+03  0.00000000000E+00 0. -1.
         -2    1    5    5    0  503 -0.57759073520E+02  0.21312474349E+03 -0.82782561149E+03  0.85676922791E+03  0.00000000000E+00 0.  1.
         -1    1    6    6    0  502  0.32178246480E+03 -0.11419936006E+03 -0.35142756041E+03  0.48998650870E+03  0.00000000000E+00 0.  1.
<mgrwt>
<rscale>  0 0.15217251E+04</rscale>
<asrwt>0</asrwt>
<pdfrwt beam="1">  1        1 0.36674528E+00 0.15217251E+04</pdfrwt>
<pdfrwt beam="2">  1       -1 0.37361231E-01 0.15217251E+04</pdfrwt>
<totfact> 0.10877452E+01</totfact>
</mgrwt>
</event>
<event>
12    1  0.1114484E-007  0.1634341E+04  0.7818608E-02  0.8799725E-01
          2   -1    0    0  501    0  0.00000000000E+00  0.00000000000E+00  0.25203446881E+04  0.25203446881E+04  0.00000000000E+00 0.  1.
         -2   -1    0    0    0  501 -0.00000000000E+00 -0.00000000000E+00 -0.26495082807E+03  0.26495082807E+03  0.00000000000E+00 0. -1.
         23    2    1    2    0    0  0.46125781251E+03  0.29556775572E+03  0.55378804307E+03  0.78422649548E+03  0.90614191719E+02 0.  0.
        254    2    1    2    0    0 -0.46125781251E+03 -0.29556775572E+03  0.17016058170E+04  0.20010690207E+04  0.89927515337E+03 0.  0.
        -24    2    4    4    0    0 -0.16746783790E+03  0.31125703635E+03  0.45705889929E+03  0.58343329242E+03  0.81025612469E+02 0.  0.
         24    2    4    4    0    0 -0.29378997462E+03 -0.60682479206E+03  0.12445469177E+04  0.14176357283E+04  0.79026263812E+02 0.  0.
         13    1    3    3    0    0  0.49203926260E+02  0.69779324719E+02  0.82156533922E+02  0.11848998516E+03  0.00000000000E+00 0.  1.
        -13    1    3    3    0    0  0.41205388625E+03  0.22578843100E+03  0.47163150915E+03  0.66573651032E+03  0.00000000000E+00 0. -1.
          2    1    6    6  502    0 -0.21140166166E+03 -0.50055195460E+03  0.10270637617E+04  0.11619392808E+04  0.00000000000E+00 0. -1.
          3    1    5    5  503    0 -0.14904057475E+03  0.21486301867E+03  0.29728952404E+03  0.39592962862E+03  0.00000000000E+00 0. -1.
         -4    1    5    5    0  503 -0.18427263150E+02  0.96394017678E+02  0.15976937525E+03  0.18750366380E+03  0.00000000000E+00 0.  1.
         -1    1    6    6    0  502 -0.82388312959E+02 -0.10627283746E+03  0.21748315601E+03  0.25569644745E+03  0.00000000000E+00 0.  1.
<mgrwt>
<rscale>  0 0.16343407E+04</rscale>
<asrwt>0</asrwt>
<pdfrwt beam="1">  1        2 0.38774532E+00 0.16343407E+04</pdfrwt>
<pdfrwt beam="2">  1       -2 0.40761668E-01 0.16343407E+04</pdfrwt>
<totfact> 0.18503776E+01</totfact>
</mgrwt>
</event>
<event>
12    1  0.1114484E-007  0.1485286E+04  0.7818608E-02  0.8894297E-01
          1   -1    0    0  501    0  0.00000000000E+00  0.00000000000E+00  0.37860911646E+03  0.37860911646E+03  0.00000000000E+00 0. -1.
         -1   -1    0    0    0  501 -0.00000000000E+00 -0.00000000000E+00 -0.14566965356E+04  0.14566965356E+04  0.00000000000E+00 0.  1.
         23    2    1    2    0    0  0.24789919409E+03 -0.21799732566E+03  0.59282454126E+02  0.34806247611E+03  0.93038881534E+02 0.  0.
        254    2    1    2    0    0 -0.24789919409E+03  0.21799732566E+03 -0.11373698733E+04  0.14872431760E+04  0.89961391241E+03 0.  0.
        -24    2    4    4    0    0  0.14973702450E+02  0.25830124851E+03  0.45705522571E+02  0.27206723793E+03  0.70624644535E+02 0.  0.
         24    2    4    4    0    0 -0.26287289654E+03 -0.40303922847E+02 -0.11830753959E+04  0.12151759381E+04  0.79111327770E+02 0.  0.
         11    1    3    3    0    0  0.24401940529E+03 -0.17774182244E+03  0.45291049299E+02  0.30526857806E+03  0.00000000000E+00 0. -1.
        -11    1    3    3    0    0  0.38797888017E+01 -0.40255503228E+02  0.13991404827E+02  0.42793898050E+02  0.00000000000E+00 0.  1.
          2    1    6    6  502    0 -0.25527486607E+03 -0.52566900331E+02 -0.11486939461E+04  0.11778906223E+04  0.00000000000E+00 0. -1.
          1    1    5    5  503    0 -0.11974088185E+02  0.22213782728E+03  0.30880084640E+02  0.22459334969E+03  0.00000000000E+00 0. -1.
         -4    1    5    5    0  503  0.26947790635E+02  0.36163421229E+02  0.14825437932E+02  0.47473888243E+02  0.00000000000E+00 0.  1.
         -1    1    6    6    0  502 -0.75980304734E+01  0.12262977484E+02 -0.34381449764E+02  0.37285315765E+02  0.00000000000E+00 0.  1.
<mgrwt>
<rscale>  0 0.14852859E+04</rscale>
<asrwt>0</asrwt>
<pdfrwt beam="1">  1        1 0.58247556E-01 0.14852859E+04</pdfrwt>
<pdfrwt beam="2">  1       -1 0.22410716E+00 0.14852859E+04</pdfrwt>
<totfact> 0.64589247E+00</totfact>
</mgrwt>
</event>
<event>
12    1  0.1114484E-007  0.2515726E+04  0.7818608E-02  0.8397404E-01
         -1   -1    0    0    0  501 -0.00000000000E+00  0.00000000000E+00  0.11952397792E+04  0.11952397792E+04  0.00000000000E+00 0.  1.
          1   -1    0    0  501    0  0.00000000000E+00 -0.00000000000E+00 -0.13237673941E+04  0.13237673941E+04  0.00000000000E+00 0. -1.
         23    2    1    2    0    0  0.30383239344E+03 -0.74456864037E+03 -0.79967998551E+03  0.11377332573E+04  0.90842181572E+02 0.  0.
        254    2    1    2    0    0 -0.30383239344E+03  0.74456864037E+03  0.67115237059E+03  0.13812739161E+04  0.90043075427E+03 0.  0.
        -24    2    4    4    0    0  0.26664972420E+03  0.11051310129E+03  0.36309583613E+03  0.47099337507E+03  0.81737091808E+02 0.  0.
         24    2    4    4    0    0 -0.57048211763E+03  0.63405553908E+03  0.30805653446E+03  0.91028054103E+03  0.78965573305E+02 0.  0.
         13    1    3    3    0    0  0.25925232661E+03 -0.68521591860E+03 -0.74980659710E+03  0.10483046108E+04  0.00000000000E+00 0. -1.
        -13    1    3    3    0    0  0.44580066823E+02 -0.59352721775E+02 -0.49873388415E+02  0.89428646485E+02  0.00000000000E+00 0.  1.
          4    1    6    6  502    0 -0.69173130750E+00 -0.18080030720E+01 -0.11005433061E+01  0.22267830785E+01  0.00000000000E+00 0. -1.
          1    1    5    5  503    0 -0.10243649994E+00  0.16412914779E+02  0.13207208938E+02  0.21067145813E+02  0.00000000000E+00 0. -1.
         -2    1    5    5    0  503  0.26675216070E+03  0.94100186508E+02  0.34988862719E+03  0.44992622926E+03  0.00000000000E+00 0.  1.
         -3    1    6    6    0  502 -0.56979038633E+03  0.63586354216E+03  0.30915707777E+03  0.90805375795E+03  0.00000000000E+00 0.  1.
<mgrwt>
<rscale>  0 0.25157261E+04</rscale>
<asrwt>0</asrwt>
<pdfrwt beam="1">  1        1 0.20365652E+00 0.25157261E+04</pdfrwt>
<pdfrwt beam="2">  1       -1 0.18388304E+00 0.25157261E+04</pdfrwt>
<totfact> 0.15066620E+00</totfact>
</mgrwt>
</event>
<event>
12    1  0.1114484E-007  0.1560454E+04  0.7818608E-02  0.8845218E-01
          1   -1    0    0  501    0  0.00000000000E+00  0.00000000000E+00  0.10503173059E+04  0.10503173059E+04  0.00000000000E+00 0. -1.
         -1   -1    0    0    0  501 -0.00000000000E+00 -0.00000000000E+00 -0.57959105763E+03  0.57959105763E+03  0.00000000000E+00 0.  1.
         23    2    1    2    0    0 -0.36116118508E+03 -0.48671111498E+02 -0.21909330080E+03  0.44157129845E+03  0.11906745336E+03 0.  0.
        254    2    1    2    0    0  0.36116118508E+03  0.48671111498E+02  0.68981954906E+03  0.11883370651E+04  0.89637474933E+03 0.  0.
        -24    2    4    4    0    0  0.15593337454E+03  0.36651374252E+03  0.69010819099E+03  0.80085265138E+03  0.80424580878E+02 0.  0.
         24    2    4    4    0    0  0.20522781054E+03 -0.31784263102E+03 -0.28864192522E+00  0.38748441368E+03  0.83676132915E+02 0.  0.
         13    1    3    3    0    0 -0.34652078554E+03 -0.20890171378E+02 -0.21844885151E+03  0.41016210795E+03  0.00000000000E+00 0.  1.
        -13    1    3    3    0    0 -0.14640399544E+02 -0.27780940120E+02 -0.64444928860E+00  0.31409190496E+02  0.00000000000E+00 0. -1.
          4    1    6    6  502    0  0.20909382866E+03 -0.31172685795E+03 -0.98579380670E+01  0.37548773893E+03  0.00000000000E+00 0. -1.
          3    1    5    5  503    0  0.57776024328E+02  0.16754568084E+03  0.38269451297E+03  0.42174010292E+03  0.00000000000E+00 0. -1.
         -4    1    5    5    0  503  0.98157350213E+02  0.19896806168E+03  0.30741367802E+03  0.37911254846E+03  0.00000000000E+00 0.  1.
         -3    1    6    6    0  502 -0.38660181152E+01 -0.61157730724E+01  0.95692961418E+01  0.11996674747E+02  0.00000000000E+00 0.  1.
<mgrwt>
<rscale>  0 0.15604544E+04</rscale>
<asrwt>0</asrwt>
<pdfrwt beam="1">  1        1 0.16158728E+00 0.15604544E+04</pdfrwt>
<pdfrwt beam="2">  1       -1 0.89167855E-01 0.15604544E+04</pdfrwt>
<totfact> 0.16419811E+01</totfact>
</mgrwt>
</event>
<event>
12    1  0.1114484E-007  0.1128971E+04  0.7818608E-02  0.9177406E-01
          1   -1    0    0  501    0  0.00000000000E+00  0.00000000000E+00  0.38452397923E+03  0.38452397923E+03  0.00000000000E+00 0. -1.
         -1   -1    0    0    0  501 -0.00000000000E+00 -0.00000000000E+00 -0.82867147186E+03  0.82867147186E+03  0.00000000000E+00 0.  1.
         23    2    1    2    0    0 -0.45258022221E+02 -0.16294548434E+02  0.11409984977E+03  0.15337184829E+03  0.90500537270E+02 0.  0.
        254    2    1    2    0    0  0.45258022221E+02  0.16294548434E+02 -0.55824734240E+03  0.10598236028E+04  0.89959556072E+03 0.  0.
        -24    2    4    4    0    0  0.31420965300E+03  0.29621007543E+03 -0.48994585215E+03  0.65776351130E+03  0.78344010163E+02 0.  0.
         24    2    4    4    0    0 -0.26895163078E+03 -0.27991552700E+03 -0.68301490252E+02  0.40206009150E+03  0.79369651984E+02 0.  0.
         11    1    3    3    0    0  0.12491429743E+01 -0.46552853528E+02  0.45069127682E+02  0.64807058256E+02  0.00000000000E+00 0.  1.
        -11    1    3    3    0    0 -0.46507165195E+02  0.30258305094E+02  0.69030722085E+02  0.88564790031E+02  0.00000000000E+00 0. -1.
          4    1    6    6  502    0 -0.14633880105E+03 -0.17646698881E+03 -0.75815125069E+02  0.24146133442E+03  0.00000000000E+00 0. -1.
          1    1    5    5  503    0  0.21873168912E+03  0.21830944244E+03 -0.29561749595E+03  0.42765905625E+03  0.00000000000E+00 0. -1.
         -2    1    5    5    0  503  0.95477963878E+02  0.77900632991E+02 -0.19432835620E+03  0.23010445504E+03  0.00000000000E+00 0.  1.
         -3    1    6    6    0  502 -0.12261282973E+03 -0.10344853819E+03  0.75136348172E+01  0.16059875708E+03  0.00000000000E+00 0.  1.
<mgrwt>
<rscale>  0 0.11289713E+04</rscale>
<asrwt>0</asrwt>
<pdfrwt beam="1">  1        1 0.59157535E-01 0.11289713E+04</pdfrwt>
<pdfrwt beam="2">  1       -1 0.12748792E+00 0.11289713E+04</pdfrwt>
<totfact> 0.33512809E+01</totfact>
</mgrwt>
</event>
<event>
12    1  0.1228700E-007  0.1892833E+04  0.7818608E-02  0.8658432E-01
         -2   -1    0    0    0  501 -0.00000000000E+00  0.00000000000E+00  0.45986540496E+03  0.45986540496E+03  0.00000000000E+00 0.  1.
          2   -1    0    0  501    0  0.00000000000E+00 -0.00000000000E+00 -0.19477527232E+04  0.19477527232E+04  0.00000000000E+00 0. -1.
         23    2    1    2    0    0  0.66289182765E+01  0.45206879135E+03  0.14149948006E+03  0.48230874242E+03  0.90495776034E+02 0.  0.
        254    2    1    2    0    0 -0.66289182765E+01 -0.45206879135E+03 -0.16293867983E+04  0.19253093857E+04  0.92060021598E+03 0.  0.
        -24    2    4    4    0    0 -0.43186573302E+03 -0.39225208955E+03 -0.94746151999E+03  0.11155650842E+04  0.80202320059E+02 0.  0.
         24    2    4    4    0    0  0.42523681474E+03 -0.59816701808E+02 -0.68192527831E+03  0.80974430153E+03  0.79116131249E+02 0.  0.
         13    1    3    3    0    0 -0.13360516408E+02  0.50320320761E+02 -0.89896493654E+01  0.52834192299E+02  0.00000000000E+00 0. -1.
        -13    1    3    3    0    0  0.19989434685E+02  0.40174847059E+03  0.15048912943E+03  0.42947455012E+03  0.00000000000E+00 0.  1.
          2    1    6    6  502    0  0.15804302343E+02 -0.18979886112E+02 -0.30407141057E+02  0.39174051062E+02  0.00000000000E+00 0. -1.
          3    1    5    5  503    0 -0.37308988491E+02 -0.95536979286E+01 -0.49351268334E+02  0.62600171346E+02  0.00000000000E+00 0. -1.
         -4    1    5    5    0  503 -0.39455674453E+03 -0.38269839162E+03 -0.89811025166E+03  0.10529649129E+04  0.00000000000E+00 0.  1.
         -1    1    6    6    0  502  0.40943251240E+03 -0.40836815696E+02 -0.65151813726E+03  0.77057025046E+03  0.00000000000E+00 0.  1.
<mgrwt>
<rscale>  0 0.18928329E+04</rscale>
<asrwt>0</asrwt>
<pdfrwt beam="1">  1        2 0.29965426E+00 0.18928329E+04</pdfrwt>
<pdfrwt beam="2">  1       -2 0.70748524E-01 0.18928329E+04</pdfrwt>
<totfact> 0.12156603E+01</totfact>
</mgrwt>
</event>
<event>
12    1  0.1114484E-007  0.2495493E+04  0.7818608E-02  0.8404593E-01
          2   -1    0    0  501    0  0.00000000000E+00  0.00000000000E+00  0.19128948121E+04  0.19128948121E+04  0.00000000000E+00 0.  1.
         -2   -1    0    0    0  501 -0.00000000000E+00 -0.00000000000E+00 -0.81388220817E+03  0.81388220817E+03  0.00000000000E+00 0. -1.
         23    2    1    2    0    0 -0.80579262756E+03 -0.62951115278E+03  0.91554827517E+02  0.10306644871E+04  0.91109540637E+02 0.  0.
        254    2    1    2    0    0  0.80579262756E+03  0.62951115278E+03  0.10074577764E+04  0.16961125332E+04  0.90346029457E+03 0.  0.
        -24    2    4    4    0    0 -0.13253055331E+03  0.29194910666E+03  0.99165072280E+02  0.34487875448E+03  0.79429310044E+02 0.  0.
         24    2    4    4    0    0  0.93832318088E+03  0.33756204612E+03  0.90829270414E+03  0.13512337787E+04  0.80240647861E+02 0.  0.
         13    1    3    3    0    0 -0.59590811900E+03 -0.42592100242E+03  0.92256254815E+02  0.73825903526E+03  0.00000000000E+00 0. -1.
        -13    1    3    3    0    0 -0.20988450856E+03 -0.20359015036E+03 -0.70142729790E+00  0.29240545183E+03  0.00000000000E+00 0.  1.
          2    1    6    6  502    0  0.37176038468E+03  0.16533332824E+03  0.40512166230E+03  0.57416413534E+03  0.00000000000E+00 0. -1.
          1    1    5    5  503    0 -0.44251868147E+02  0.36173365917E+02  0.13862489532E+01  0.57172212852E+02  0.00000000000E+00 0. -1.
         -2    1    5    5    0  503 -0.88278685166E+02  0.25577574074E+03  0.97778823327E+02  0.28770654163E+03  0.00000000000E+00 0.  1.
         -1    1    6    6    0  502  0.56656279619E+03  0.17222871789E+03  0.50317104184E+03  0.77706964337E+03  0.00000000000E+00 0.  1.
<mgrwt>
<rscale>  0 0.24954928E+04</rscale>
<asrwt>0</asrwt>
<pdfrwt beam="1">  1        2 0.29429151E+00 0.24954928E+04</pdfrwt>
<pdfrwt beam="2">  1       -2 0.12521265E+00 0.24954928E+04</pdfrwt>
<totfact> 0.31818923E+00</totfact>
</mgrwt>
</event>
<event>
12    1  0.1114484E-007  0.1405835E+04  0.7818608E-02  0.8949606E-01
          1   -1    0    0  501    0  0.00000000000E+00  0.00000000000E+00  0.12658388732E+04  0.12658388732E+04  0.00000000000E+00 0. -1.
         -1   -1    0    0    0  501 -0.00000000000E+00 -0.00000000000E+00 -0.39032852412E+03  0.39032852412E+03  0.00000000000E+00 0.  1.
         23    2    1    2    0    0 -0.23724326718E+03  0.19089498239E+03  0.22181338882E+02  0.31921891381E+03  0.93184982787E+02 0.  0.
        254    2    1    2    0    0  0.23724326718E+03 -0.19089498239E+03  0.85332901020E+03  0.13369484835E+04  0.98312541713E+03 0.  0.
        -24    2    4    4    0    0 -0.29618350685E+03  0.19376546448E+03  0.24868529785E+03  0.43997919307E+03  0.80421315667E+02 0.  0.
         24    2    4    4    0    0  0.53342677403E+03 -0.38466044686E+03  0.60464371234E+03  0.89696929044E+03  0.80325005384E+02 0.  0.
         13    1    3    3    0    0 -0.38461932419E+01  0.97861852563E+01 -0.18229943867E+02  0.21045034515E+02  0.00000000000E+00 0. -1.
        -13    1    3    3    0    0 -0.23339707393E+03  0.18110879713E+03  0.40411282749E+02  0.29817387929E+03  0.00000000000E+00 0.  1.
          2    1    6    6  502    0  0.30982848240E+03 -0.24762708556E+03  0.40942902852E+03  0.57003946478E+03  0.00000000000E+00 0. -1.
          3    1    5    5  503    0 -0.11997798536E+03  0.10419144626E+03  0.70447049009E+02  0.17381991013E+03  0.00000000000E+00 0. -1.
         -4    1    5    5    0  503 -0.17620552149E+03  0.89574018218E+02  0.17823824884E+03  0.26615928294E+03  0.00000000000E+00 0.  1.
         -1    1    6    6    0  502  0.22359829162E+03 -0.13703336130E+03  0.19521468382E+03  0.32692982566E+03  0.00000000000E+00 0.  1.
<mgrwt>
<rscale>  0 0.14058350E+04</rscale>
<asrwt>0</asrwt>
<pdfrwt beam="1">  1        1 0.19474444E+00 0.14058350E+04</pdfrwt>
<pdfrwt beam="2">  1       -1 0.60050543E-01 0.14058350E+04</pdfrwt>
<totfact> 0.26228621E+01</totfact>
</mgrwt>
</event>
<event>
12    1  0.1114484E-007  0.2241613E+04  0.7818608E-02  0.8501305E-01
          2   -1    0    0  501    0  0.00000000000E+00  0.00000000000E+00  0.27776606895E+04  0.27776606895E+04  0.00000000000E+00 0. -1.
         -2   -1    0    0    0  501 -0.00000000000E+00 -0.00000000000E+00 -0.45225369838E+03  0.45225369838E+03  0.00000000000E+00 0.  1.
         23    2    1    2    0    0  0.45887446361E+03 -0.74053087600E+03  0.47357174944E+03  0.99570730162E+03  0.90614993108E+02 0.  0.
        254    2    1    2    0    0 -0.45887446361E+03  0.74053087600E+03  0.18518352417E+04  0.22342070863E+04  0.89634579839E+03 0.  0.
        -24    2    4    4    0    0 -0.42566205115E+03 -0.52284681145E+02  0.49071018698E+03  0.65658833733E+03  0.79936771561E+02 0.  0.
         24    2    4    4    0    0 -0.33212412458E+02  0.79281555715E+03  0.13611250547E+04  0.15776187489E+04  0.80993397351E+02 0.  0.
         13    1    3    3    0    0  0.40125631023E+03 -0.66985783092E+03  0.45115723175E+03  0.90180873133E+03  0.00000000000E+00 0. -1.
        -13    1    3    3    0    0  0.57618153381E+02 -0.70673045081E+02  0.22414517693E+02  0.93898570295E+02  0.00000000000E+00 0.  1.
          4    1    6    6  502    0 -0.31875541788E+02  0.70118515092E+03  0.11472597599E+04  0.13449466988E+04  0.00000000000E+00 0. -1.
          1    1    5    5  503    0 -0.39975694247E+03 -0.28820294725E+02  0.44231087608E+03  0.59688787350E+03  0.00000000000E+00 0. -1.
         -2    1    5    5    0  503 -0.25905108681E+02 -0.23464386420E+02  0.48399310901E+02  0.59700463830E+02  0.00000000000E+00 0.  1.
         -3    1    6    6    0  502 -0.13368706695E+01  0.91630406229E+02  0.21386529480E+03  0.23267205008E+03  0.00000000000E+00 0.  1.
<mgrwt>
<rscale>  0 0.22416131E+04</rscale>
<asrwt>0</asrwt>
<pdfrwt beam="1">  1        2 0.42733240E+00 0.22416131E+04</pdfrwt>
<pdfrwt beam="2">  1       -2 0.69577494E-01 0.22416131E+04</pdfrwt>
<totfact> 0.40951333E+00</totfact>
</mgrwt>
</event>
<event>
12    1  0.1114484E-007  0.1103903E+04  0.7818608E-02  0.9201396E-01
         -2   -1    0    0    0  501 -0.00000000000E+00  0.00000000000E+00  0.79533923106E+03  0.79533923106E+03  0.00000000000E+00 0.  1.
          2   -1    0    0  501    0  0.00000000000E+00 -0.00000000000E+00 -0.38304448909E+03  0.38304448909E+03  0.00000000000E+00 0. -1.
         23    2    1    2    0    0  0.69497521322E+01 -0.16962075662E+03  0.92099256915E+02  0.21232881292E+03  0.88214236619E+02 0.  0.
        254    2    1    2    0    0 -0.69497521322E+01  0.16962075662E+03  0.32019548505E+03  0.96605490723E+03  0.89549842826E+03 0.  0.
        -24    2    4    4    0    0  0.16475157044E+03 -0.21787562758E+03  0.43498677701E+03  0.51981185523E+03  0.79862379220E+02 0.  0.
         24    2    4    4    0    0 -0.17170132257E+03  0.38749638420E+03 -0.11479129196E+03  0.44624305200E+03  0.79504898000E+02 0.  0.
         11    1    3    3    0    0 -0.20183401317E+01 -0.18963873653E+02  0.53139112992E+02  0.56457661397E+02  0.00000000000E+00 0.  1.
        -11    1    3    3    0    0  0.89680922639E+01 -0.15065688296E+03  0.38960143924E+02  0.15587115153E+03  0.00000000000E+00 0. -1.
          2    1    6    6  502    0 -0.17771762827E+03  0.38164574327E+03 -0.11806168578E+03  0.43723630957E+03  0.00000000000E+00 0. -1.
          3    1    5    5  503    0  0.80507247149E+02 -0.82028923228E+02  0.25114076268E+03  0.27619167940E+03  0.00000000000E+00 0. -1.
         -4    1    5    5    0  503  0.84244323292E+02 -0.13584670435E+03  0.18384601433E+03  0.24362017584E+03  0.00000000000E+00 0.  1.
         -1    1    6    6    0  502  0.60163056943E+01  0.58506409255E+01  0.32703938208E+01  0.90067424294E+01  0.00000000000E+00 0.  1.
<mgrwt>
<rscale>  0 0.11039027E+04</rscale>
<asrwt>0</asrwt>
<pdfrwt beam="1">  1        2 0.58929922E-01 0.11039027E+04</pdfrwt>
<pdfrwt beam="2">  1       -2 0.12235988E+00 0.11039027E+04</pdfrwt>
<totfact> 0.41906685E+01</totfact>
</mgrwt>
</event>
<event>
12    1  0.1114484E-007  0.1252461E+04  0.7818608E-02  0.9068137E-01
         -2   -1    0    0    0  501 -0.00000000000E+00  0.00000000000E+00  0.29549848888E+03  0.29549848888E+03  0.00000000000E+00 0.  1.
          2   -1    0    0  501    0  0.00000000000E+00 -0.00000000000E+00 -0.13271292947E+04  0.13271292947E+04  0.00000000000E+00 0. -1.
         23    2    1    2    0    0  0.12273539194E+03 -0.96307837980E+02 -0.45979162241E+03  0.49418081817E+03  0.92017220771E+02 0.  0.
        254    2    1    2    0    0 -0.12273539194E+03  0.96307837980E+02 -0.57183918341E+03  0.11284469654E+04  0.96023607824E+03 0.  0.
        -24    2    4    4    0    0  0.19946444927E+03 -0.34801389232E+03 -0.32059695386E+03  0.51965175150E+03  0.79723272922E+02 0.  0.
         24    2    4    4    0    0 -0.32219984121E+03  0.44432173030E+03 -0.25124222956E+03  0.60879521390E+03  0.79211216800E+02 0.  0.
         11    1    3    3    0    0  0.11924652447E+03 -0.43961029626E+02 -0.29421362349E+03  0.32049019014E+03  0.00000000000E+00 0. -1.
        -11    1    3    3    0    0  0.34888674607E+01 -0.52346808354E+02 -0.16557799892E+03  0.17369062804E+03  0.00000000000E+00 0.  1.
          2    1    6    6  502    0 -0.14150057668E+03  0.15596428464E+03 -0.62531927048E+02  0.21967592764E+03  0.00000000000E+00 0. -1.
          3    1    5    5  503    0  0.46576622455E+02 -0.10448466669E+03 -0.13705455809E+03  0.17852276949E+03  0.00000000000E+00 0. -1.
         -4    1    5    5    0  503  0.15288782682E+03 -0.24352922563E+03 -0.18354239577E+03  0.34112898201E+03  0.00000000000E+00 0.  1.
         -1    1    6    6    0  502 -0.18069926452E+03  0.28835744566E+03 -0.18871030251E+03  0.38911928626E+03  0.00000000000E+00 0.  1.
<mgrwt>
<rscale>  0 0.12524611E+04</rscale>
<asrwt>0</asrwt>
<pdfrwt beam="1">  1        2 0.20417374E+00 0.12524611E+04</pdfrwt>
<pdfrwt beam="2">  1       -2 0.45461305E-01 0.12524611E+04</pdfrwt>
<totfact> 0.71894252E+01</totfact>
</mgrwt>
</event>
<event>
12    1  0.1379627E-007  0.1732236E+04  0.7818608E-02  0.8743190E-01
         -2   -1    0    0    0  501 -0.00000000000E+00  0.00000000000E+00  0.69908882133E+03  0.69908882133E+03  0.00000000000E+00 0.  1.
          2   -1    0    0  501    0  0.00000000000E+00 -0.00000000000E+00 -0.10730541682E+04  0.10730541682E+04  0.00000000000E+00 0. -1.
         23    2    1    2    0    0  0.50204080490E+03  0.33719715253E+03  0.55475192890E+02  0.61438327351E+03  0.92964618421E+02 0.  0.
        254    2    1    2    0    0 -0.50204080490E+03 -0.33719715253E+03 -0.42944053972E+03  0.11577597160E+04  0.88895528196E+03 0.  0.
        -24    2    4    4    0    0 -0.27313324273E+03 -0.17740407575E+03 -0.69026487932E+03  0.76714149094E+03  0.77243052247E+02 0.  0.
         24    2    4    4    0    0 -0.22890756217E+03 -0.15979307678E+03  0.26082433960E+03  0.39061822504E+03  0.81368066235E+02 0.  0.
         13    1    3    3    0    0  0.18652553586E+02  0.29619915134E+02  0.20057149040E+02  0.40342860031E+02  0.00000000000E+00 0. -1.
        -13    1    3    3    0    0  0.48338825131E+03  0.30757723740E+03  0.35418043850E+02  0.57404041347E+03  0.00000000000E+00 0.  1.
          2    1    6    6  502    0 -0.14650551144E+03 -0.14176390967E+03  0.20713378284E+03  0.29062910206E+03  0.00000000000E+00 0. -1.
          3    1    5    5  503    0 -0.27770313737E+03 -0.16980386092E+03 -0.67697874175E+03  0.75116749163E+03  0.00000000000E+00 0. -1.
         -4    1    5    5    0  503  0.45698946479E+01 -0.76002148285E+01 -0.13286137567E+02  0.15973999311E+02  0.00000000000E+00 0.  1.
         -1    1    6    6    0  502 -0.82402050729E+02 -0.18029167117E+02  0.53690556753E+02  0.99989122987E+02  0.00000000000E+00 0.  1.
<mgrwt>
<rscale>  0 0.17322358E+04</rscale>
<asrwt>0</asrwt>
<pdfrwt beam="1">  1        2 0.16508526E+00 0.17322358E+04</pdfrwt>
<pdfrwt beam="2">  1       -2 0.10755213E+00 0.17322358E+04</pdfrwt>
<totfact> 0.14912092E+01</totfact>
</mgrwt>
</event>
<event>
12    1  0.1114484E-007  0.1833565E+04  0.7818608E-02  0.8688651E-01
         -3   -1    0    0    0  501 -0.00000000000E+00  0.00000000000E+00  0.17402224539E+04  0.17402224539E+04  0.00000000000E+00 0.  1.
          3   -1    0    0  501    0  0.00000000000E+00 -0.00000000000E+00 -0.48297881159E+03  0.48297881159E+03  0.00000000000E+00 0. -1.
         23    2    1    2    0    0  0.59924877158E+03  0.22183342192E+02  0.55053810370E+02  0.60878474636E+03  0.89424574123E+02 0.  0.
        254    2    1    2    0    0 -0.59924877158E+03 -0.22183342192E+02  0.12021898320E+04  0.16144165192E+04  0.89525924422E+03 0.  0.
        -24    2    4    4    0    0 -0.33202409661E+03  0.24684195813E+03  0.11483438417E+04  0.12234610186E+04  0.83620166989E+02 0.  0.
         24    2    4    4    0    0 -0.26722467497E+03 -0.26902530032E+03  0.53845990277E+02  0.39095550054E+03  0.78505882599E+02 0.  0.
         11    1    3    3    0    0  0.56881988458E+03  0.40262370541E+02  0.58434479846E+02  0.57322919326E+03  0.00000000000E+00 0. -1.
        -11    1    3    3    0    0  0.30428887004E+02 -0.18079028349E+02 -0.33806694762E+01  0.35555553103E+02  0.00000000000E+00 0.  1.
          2    1    6    6  502    0 -0.23496119109E+03 -0.25319168633E+03  0.68499910336E+02  0.35214347794E+03  0.00000000000E+00 0. -1.
          1    1    5    5  503    0 -0.33549690121E+03  0.24914762619E+03  0.11353568309E+04  0.12098214099E+04  0.00000000000E+00 0. -1.
         -2    1    5    5    0  503  0.34728046087E+01 -0.23056680668E+01  0.12987010847E+02  0.13639608786E+02  0.00000000000E+00 0.  1.
         -1    1    6    6    0  502 -0.32263483887E+02 -0.15833613995E+02 -0.14653920059E+02  0.38812022593E+02  0.00000000000E+00 0.  1.
<mgrwt>
<rscale>  0 0.18335655E+04</rscale>
<asrwt>0</asrwt>
<pdfrwt beam="1">  1        3 0.74304433E-01 0.18335655E+04</pdfrwt>
<pdfrwt beam="2">  1       -3 0.26772653E+00 0.18335655E+04</pdfrwt>
<totfact> 0.24419732E-01</totfact>
</mgrwt>
</event>
<event>
12    1  0.1114484E-007  0.3076303E+04  0.7818608E-02  0.8222272E-01
          1   -1    0    0  501    0  0.00000000000E+00  0.00000000000E+00  0.33411503151E+04  0.33411503151E+04  0.00000000000E+00 0. -1.
         -1   -1    0    0    0  501 -0.00000000000E+00 -0.00000000000E+00 -0.70811246358E+03  0.70811246358E+03  0.00000000000E+00 0.  1.
         23    2    1    2    0    0  0.68400731490E+03  0.23296962348E+03 -0.38295107362E+03  0.82289646322E+03  0.91467000081E+02 0.  0.
        254    2    1    2    0    0 -0.68400731490E+03 -0.23296962348E+03  0.30159889252E+04  0.32263663155E+04  0.88944339488E+03 0.  0.
        -24    2    4    4    0    0  0.72780509516E+02  0.22922368204E+03  0.74003505784E+03  0.78237987428E+03  0.81399520187E+02 0.  0.
         24    2    4    4    0    0 -0.75678782441E+03 -0.46219330551E+03  0.22759538673E+04  0.24439864412E+04  0.82178194985E+02 0.  0.
         11    1    3    3    0    0  0.63495185513E+03  0.21608523281E+03 -0.32562157420E+03  0.74557769264E+03  0.00000000000E+00 0.  1.
        -11    1    3    3    0    0  0.49055459766E+02  0.16884390663E+02 -0.57329499426E+02  0.77318770589E+02  0.00000000000E+00 0. -1.
          2    1    6    6  502    0 -0.42088895301E+03 -0.27149413805E+03  0.13904292033E+04  0.14778869872E+04  0.00000000000E+00 0. -1.
          3    1    5    5  503    0  0.19352537751E+02  0.23048150267E+02  0.36473987817E+02  0.47287310511E+02  0.00000000000E+00 0. -1.
         -4    1    5    5    0  503  0.53427971764E+02  0.20617553177E+03  0.70356107002E+03  0.73509256377E+03  0.00000000000E+00 0.  1.
         -1    1    6    6    0  502 -0.33589887140E+03 -0.19069916747E+03  0.88552466407E+03  0.96609945397E+03  0.00000000000E+00 0.  1.
<mgrwt>
<rscale>  0 0.30763031E+04</rscale>
<asrwt>0</asrwt>
<pdfrwt beam="1">  1        1 0.51402312E+00 0.30763031E+04</pdfrwt>
<pdfrwt beam="2">  1       -1 0.10894038E+00 0.30763031E+04</pdfrwt>
<totfact> 0.21908264E-01</totfact>
</mgrwt>
</event>
<event>
12    1  0.1114484E-007  0.1281080E+04  0.7818608E-02  0.9044705E-01
         -1   -1    0    0    0  501 -0.00000000000E+00  0.00000000000E+00  0.53147978342E+03  0.53147978342E+03  0.00000000000E+00 0.  1.
          1   -1    0    0  501    0  0.00000000000E+00 -0.00000000000E+00 -0.77197924931E+03  0.77197924931E+03  0.00000000000E+00 0. -1.
         23    2    1    2    0    0 -0.15736898905E+03  0.45106907168E+02 -0.33107410436E+03  0.38072520325E+03  0.92422865283E+02 0.  0.
        254    2    1    2    0    0  0.15736898905E+03 -0.45106907168E+02  0.90574638470E+02  0.92273382948E+03  0.90356755317E+03 0.  0.
        -24    2    4    4    0    0 -0.36560316509E+03  0.60011003087E+02  0.23659536344E+02  0.37928708740E+03  0.77665476174E+02 0.  0.
         24    2    4    4    0    0  0.52297215414E+03 -0.10511791026E+03  0.66915102126E+02  0.54344674208E+03  0.79417136193E+02 0.  0.
         11    1    3    3    0    0  0.52897932447E+01 -0.77125747297E+01 -0.56335233259E+02  0.57106253842E+02  0.00000000000E+00 0.  1.
        -11    1    3    3    0    0 -0.16265878229E+03  0.52819481897E+02 -0.27473887110E+03  0.32361894941E+03  0.00000000000E+00 0. -1.
          4    1    6    6  502    0  0.45016172887E+02 -0.16538342467E+02  0.28613095231E+02  0.55845159250E+02  0.00000000000E+00 0. -1.
          3    1    5    5  503    0 -0.22579213996E+03  0.44724535907E+01 -0.61669814005E+01  0.22592061652E+03  0.00000000000E+00 0. -1.
         -4    1    5    5    0  503 -0.13981102513E+03  0.55538549497E+02  0.29826517745E+02  0.15336647087E+03  0.00000000000E+00 0.  1.
         -3    1    6    6    0  502  0.47795598125E+03 -0.88579567788E+02  0.38302006895E+02  0.48760158283E+03  0.00000000000E+00 0.  1.
<mgrwt>
<rscale>  0 0.12810798E+04</rscale>
<asrwt>0</asrwt>
<pdfrwt beam="1">  1        1 0.11876604E+00 0.12810798E+04</pdfrwt>
<pdfrwt beam="2">  1       -1 0.81766121E-01 0.12810798E+04</pdfrwt>
<totfact> 0.34296265E+01</totfact>
</mgrwt>
</event>
<event>
12    1  0.1114484E-007  0.1959978E+04  0.7818608E-02  0.8625564E-01
         -2   -1    0    0    0  501 -0.00000000000E+00  0.00000000000E+00  0.13371103157E+04  0.13371103157E+04  0.00000000000E+00 0. -1.
          2   -1    0    0  501    0  0.00000000000E+00 -0.00000000000E+00 -0.71824933787E+03  0.71824933787E+03  0.00000000000E+00 0.  1.
         23    2    1    2    0    0 -0.24110014547E+03  0.59826072504E+03 -0.19631879608E+03  0.68005354467E+03  0.88806411112E+02 0.  0.
        254    2    1    2    0    0  0.24110014547E+03 -0.59826072504E+03  0.81517977391E+03  0.13753061089E+04  0.90050189012E+03 0.  0.
        -24    2    4    4    0    0 -0.16613219390E+03  0.15411919041E+03  0.25099748859E+03  0.34734649694E+03  0.79355018500E+02 0.  0.
         24    2    4    4    0    0  0.40723233937E+03 -0.75237991545E+03  0.56418228533E+03  0.10279596120E+04  0.80533206489E+02 0.  0.
         13    1    3    3    0    0  0.32582548793E+00  0.50583240460E+02 -0.14658128246E+01  0.50605523265E+02  0.00000000000E+00 0. -1.
        -13    1    3    3    0    0 -0.24142597095E+03  0.54767748458E+03 -0.19485298326E+03  0.62944802141E+03  0.00000000000E+00 0.  1.
          4    1    6    6  502    0  0.50630255989E+02 -0.16050475456E+03  0.11095797439E+03  0.20158589023E+03  0.00000000000E+00 0. -1.
          1    1    5    5  503    0 -0.23673129971E+02  0.70141550606E+02  0.65586314046E+02  0.98903077779E+02  0.00000000000E+00 0. -1.
         -2    1    5    5    0  503 -0.14245906393E+03  0.83977639800E+02  0.18541117454E+03  0.24844341916E+03  0.00000000000E+00 0.  1.
         -3    1    6    6    0  502  0.35660208338E+03 -0.59187516089E+03  0.45322431094E+03  0.82637372173E+03  0.00000000000E+00 0.  1.
<mgrwt>
<rscale>  0 0.19599782E+04</rscale>
<asrwt>0</asrwt>
<pdfrwt beam="1">  1        2 0.11049990E+00 0.19599782E+04</pdfrwt>
<pdfrwt beam="2">  1       -2 0.20570928E+00 0.19599782E+04</pdfrwt>
<totfact> 0.45081919E+00</totfact>
</mgrwt>
</event>
<event>
12    1  0.1114484E-007  0.1140863E+04  0.7818608E-02  0.9166254E-01
          1   -1    0    0  501    0  0.00000000000E+00  0.00000000000E+00  0.15133108427E+04  0.15133108427E+04  0.00000000000E+00 0. -1.
         -1   -1    0    0    0  501 -0.00000000000E+00 -0.00000000000E+00 -0.21502012209E+03  0.21502012209E+03  0.00000000000E+00 0.  1.
         23    2    1    2    0    0  0.52558161678E+00 -0.52508836301E+02  0.51891784828E+03  0.52886568293E+03  0.87554115805E+02 0.  0.
        254    2    1    2    0    0 -0.52558161678E+00  0.52508836301E+02  0.77937287236E+03  0.11994652819E+04  0.91024031672E+03 0.  0.
        -24    2    4    4    0    0  0.66484096181E+02  0.43292553650E+03  0.64322904745E+03  0.78223854475E+03  0.79428447158E+02 0.  0.
         24    2    4    4    0    0 -0.67009677798E+02 -0.38041670020E+03  0.13614382491E+03  0.41722673714E+03  0.79598030237E+02 0.  0.
         11    1    3    3    0    0  0.45586587083E+01 -0.70764728097E+02  0.48482136924E+03  0.48997978344E+03  0.00000000000E+00 0. -1.
        -11    1    3    3    0    0 -0.40330770915E+01  0.18255891796E+02  0.34096479038E+02  0.38885899487E+02  0.00000000000E+00 0.  1.
          4    1    6    6  502    0 -0.54059247826E+02 -0.37220637357E+03  0.14015525722E+03  0.40137698355E+03  0.00000000000E+00 0. -1.
          1    1    5    5  503    0  0.47322241581E+02  0.38518819112E+03  0.52123067190E+03  0.64983901888E+03  0.00000000000E+00 0. -1.
         -2    1    5    5    0  503  0.19161854600E+02  0.47737345377E+02  0.12199837554E+03  0.13239952587E+03  0.00000000000E+00 0.  1.
         -3    1    6    6    0  502 -0.12950429972E+02 -0.82103266320E+01 -0.40114323027E+01  0.15849753593E+02  0.00000000000E+00 0.  1.
<mgrwt>
<rscale>  0 0.11408633E+04</rscale>
<asrwt>0</asrwt>
<pdfrwt beam="1">  1        1 0.23281705E+00 0.11408633E+04</pdfrwt>
<pdfrwt beam="2">  1       -1 0.33080020E-01 0.11408633E+04</pdfrwt>
<totfact> 0.54616276E+01</totfact>
</mgrwt>
</event>
<event>
12    1  0.1114484E-007  0.2601387E+04  0.7818608E-02  0.8367730E-01
          2   -1    0    0  501    0  0.00000000000E+00  0.00000000000E+00  0.22854395254E+04  0.22854395254E+04  0.00000000000E+00 0. -1.
         -2   -1    0    0    0  501 -0.00000000000E+00 -0.00000000000E+00 -0.74025287665E+03  0.74025287665E+03  0.00000000000E+00 0.  1.
         23    2    1    2    0    0  0.27929670209E+03  0.11107491677E+04  0.60046390027E+03  0.12963488276E+04  0.90515335005E+02 0.  0.
        254    2    1    2    0    0 -0.27929670209E+03 -0.11107491677E+04  0.94472274846E+03  0.17293435745E+04  0.88676815784E+03 0.  0.
        -24    2    4    4    0    0 -0.43852042902E+03 -0.11342345612E+04  0.95581430327E+03  0.15487288927E+04  0.78689226678E+02 0.  0.
         24    2    4    4    0    0  0.15922372693E+03  0.23485393493E+02 -0.11091554812E+02  0.18061468173E+03  0.81208877251E+02 0.  0.
         13    1    3    3    0    0  0.13045207685E+03  0.67502290932E+03  0.33387503377E+03  0.76429458368E+03  0.00000000000E+00 0. -1.
        -13    1    3    3    0    0  0.14884462524E+03  0.43572625837E+03  0.26658886650E+03  0.53205424388E+03  0.00000000000E+00 0.  1.
          4    1    6    6  502    0  0.15569075113E+03  0.17232112652E+01 -0.19710117140E+02  0.15694288184E+03  0.00000000000E+00 0. -1.
          1    1    5    5  503    0 -0.36071863608E+03 -0.91015058189E+03  0.73000757236E+03  0.12212301470E+04  0.00000000000E+00 0. -1.
         -2    1    5    5    0  503 -0.77801792940E+02 -0.22408397929E+03  0.22580673091E+03  0.32749874577E+03  0.00000000000E+00 0.  1.
         -3    1    6    6    0  502  0.35329758017E+01  0.21762182228E+02  0.86185623284E+01  0.23671799888E+02  0.00000000000E+00 0.  1.
<mgrwt>
<rscale>  0 0.26013867E+04</rscale>
<asrwt>0</asrwt>
<pdfrwt beam="1">  1        2 0.35160608E+00 0.26013867E+04</pdfrwt>
<pdfrwt beam="2">  1       -2 0.11388506E+00 0.26013867E+04</pdfrwt>
<totfact> 0.24674272E+00</totfact>
</mgrwt>
</event>
<event>
12    1  0.1114484E-007  0.2327573E+04  0.7818608E-02  0.8467128E-01
         -2   -1    0    0    0  501 -0.00000000000E+00  0.00000000000E+00  0.47520206747E+03  0.47520206747E+03  0.00000000000E+00 0.  1.
          2   -1    0    0  501    0  0.00000000000E+00 -0.00000000000E+00 -0.28501535218E+04  0.28501535218E+04  0.00000000000E+00 0. -1.
         23    2    1    2    0    0  0.34739009957E+03  0.19606853930E+03  0.27364736961E+03  0.49250882696E+03  0.92516530146E+02 0.  0.
        254    2    1    2    0    0 -0.34739009957E+03 -0.19606853930E+03 -0.26485988240E+04  0.28328467623E+04  0.92240029011E+03 0.  0.
        -24    2    4    4    0    0 -0.14343161951E+03 -0.34350278900E+03 -0.25028758007E+04  0.25316616884E+04  0.79729761655E+02 0.  0.
         24    2    4    4    0    0 -0.20395848006E+03  0.14743424970E+03 -0.14572302324E+03  0.30118507398E+03  0.78366636501E+02 0.  0.
         11    1    3    3    0    0  0.84783970565E+02  0.77870046386E+02  0.40677551403E+02  0.12209311601E+03  0.00000000000E+00 0. -1.
        -11    1    3    3    0    0  0.26260612900E+03  0.11819849292E+03  0.23296981821E+03  0.37041571095E+03  0.00000000000E+00 0.  1.
          2    1    6    6  502    0  0.70018451771E+01  0.83146486419E+01 -0.54252954591E+01  0.12148787954E+02  0.00000000000E+00 0. -1.
          3    1    5    5  503    0 -0.49292098649E+02 -0.12957562473E+03 -0.69069178869E+03  0.70446767171E+03  0.00000000000E+00 0. -1.
         -2    1    5    5    0  503 -0.94139520862E+02 -0.21392716427E+03 -0.18121840120E+04  0.18271940166E+04  0.00000000000E+00 0.  1.
         -1    1    6    6    0  502 -0.21096032523E+03  0.13911960106E+03 -0.14029772778E+03  0.28903628603E+03  0.00000000000E+00 0.  1.
<mgrwt>
<rscale>  0 0.23275729E+04</rscale>
<asrwt>0</asrwt>
<pdfrwt beam="1">  1        2 0.43848516E+00 0.23275729E+04</pdfrwt>
<pdfrwt beam="2">  1       -2 0.73108011E-01 0.23275729E+04</pdfrwt>
<totfact> 0.32960286E+00</totfact>
</mgrwt>
</event>
<event>
12    1  0.1114484E-007  0.1945517E+04  0.7818608E-02  0.8632525E-01
         -2   -1    0    0    0  501 -0.00000000000E+00  0.00000000000E+00  0.53680122388E+03  0.53680122388E+03  0.00000000000E+00 0.  1.
          2   -1    0    0  501    0  0.00000000000E+00 -0.00000000000E+00 -0.17627746118E+04  0.17627746118E+04  0.00000000000E+00 0. -1.
         23    2    1    2    0    0 -0.41134853612E+03 -0.55903151061E+03 -0.85389992257E+03  0.11043524381E+04  0.93409752438E+02 0.  0.
        254    2    1    2    0    0  0.41134853612E+03  0.55903151061E+03 -0.37207346537E+03  0.11952233976E+04  0.89910870222E+03 0.  0.
        -24    2    4    4    0    0  0.68777676778E+03  0.44496157909E+03 -0.24551586790E+03  0.85914801752E+03  0.82641305979E+02 0.  0.
         24    2    4    4    0    0 -0.27642823166E+03  0.11406993151E+03 -0.12655759747E+03  0.33607538003E+03  0.86633244503E+02 0.  0.
         11    1    3    3    0    0 -0.14584368913E+03 -0.20582149203E+03 -0.38291366655E+03  0.45853652447E+03  0.00000000000E+00 0. -1.
        -11    1    3    3    0    0 -0.26550484698E+03 -0.35321001857E+03 -0.47098625602E+03  0.64581591367E+03  0.00000000000E+00 0.  1.
          2    1    6    6  502    0 -0.90731436182E+02  0.14705197758E+02 -0.76530889015E+02  0.11960523954E+03  0.00000000000E+00 0. -1.
          1    1    5    5  503    0  0.36582810942E+02  0.33700327679E+02  0.30778261344E+01  0.49834597980E+02  0.00000000000E+00 0. -1.
         -2    1    5    5    0  503  0.65119395684E+03  0.41126125142E+03 -0.24859369404E+03  0.80931341954E+03  0.00000000000E+00 0.  1.
         -1    1    6    6    0  502 -0.18569679548E+03  0.99364733755E+02 -0.50026708455E+02  0.21647014049E+03  0.00000000000E+00 0.  1.
<mgrwt>
<rscale>  0 0.19455175E+04</rscale>
<asrwt>0</asrwt>
<pdfrwt beam="1">  1        2 0.27119609E+00 0.19455175E+04</pdfrwt>
<pdfrwt beam="2">  1       -2 0.82584804E-01 0.19455175E+04</pdfrwt>
<totfact> 0.10863083E+01</totfact>
</mgrwt>
</event>
<event>
12    1  0.1114484E-007  0.2016695E+04  0.7818608E-02  0.8598855E-01
         -2   -1    0    0    0  501 -0.00000000000E+00  0.00000000000E+00  0.31627566089E+03  0.31627566089E+03  0.00000000000E+00 0.  1.
          2   -1    0    0  501    0  0.00000000000E+00 -0.00000000000E+00 -0.32148060763E+04  0.32148060763E+04  0.00000000000E+00 0. -1.
         23    2    1    2    0    0  0.58384399353E+03 -0.50100823422E+03 -0.15756729772E+04  0.17558599946E+04  0.91738378020E+02 0.  0.
        254    2    1    2    0    0 -0.58384399353E+03  0.50100823422E+03 -0.13228574383E+04  0.17752217427E+04  0.89976517719E+03 0.  0.
        -24    2    4    4    0    0 -0.72479963798E+03  0.39918550884E+03 -0.59510071246E+03  0.10227381924E+04  0.84646125355E+02 0.  0.
         24    2    4    4    0    0  0.14095564445E+03  0.10182272538E+03 -0.72775672583E+03  0.75248355027E+03  0.79782706957E+02 0.  0.
         11    1    3    3    0    0  0.45244152972E+02 -0.19320018186E+02 -0.67490877908E+02  0.83518351766E+02  0.00000000000E+00 0. -1.
        -11    1    3    3    0    0  0.53859984056E+03 -0.48168821603E+03 -0.15081820993E+04  0.16723416428E+04  0.00000000000E+00 0.  1.
          2    1    6    6  502    0  0.35795553073E+02  0.61035829855E+01 -0.28866891015E+03  0.29094383484E+03  0.00000000000E+00 0. -1.
          1    1    5    5  503    0 -0.17151034179E+03  0.12869493393E+03 -0.12748824909E+03  0.24946229578E+03  0.00000000000E+00 0. -1.
         -2    1    5    5    0  503 -0.55328929620E+03  0.27049057491E+03 -0.46761246336E+03  0.77327589662E+03  0.00000000000E+00 0.  1.
         -1    1    6    6    0  502  0.10516009138E+03  0.95719142391E+02 -0.43908781569E+03  0.46153971544E+03  0.00000000000E+00 0.  1.
<mgrwt>
<rscale>  0 0.20166952E+04</rscale>
<asrwt>0</asrwt>
<pdfrwt beam="1">  1        2 0.49458556E+00 0.20166952E+04</pdfrwt>
<pdfrwt beam="2">  1       -2 0.48657793E-01 0.20166952E+04</pdfrwt>
<totfact> 0.47228200E+00</totfact>
</mgrwt>
</event>
<event>
12    1  0.1114484E-007  0.1506532E+04  0.7818608E-02  0.8880121E-01
         -2   -1    0    0    0  501 -0.00000000000E+00  0.00000000000E+00  0.22766422570E+03  0.22766422570E+03  0.00000000000E+00 0.  1.
          2   -1    0    0  501    0  0.00000000000E+00 -0.00000000000E+00 -0.24923080323E+04  0.24923080323E+04  0.00000000000E+00 0. -1.
         23    2    1    2    0    0 -0.34725920394E+03 -0.30058202062E+03 -0.52661347570E+03  0.70377935049E+03  0.83935186554E+02 0.  0.
        254    2    1    2    0    0  0.34725920394E+03  0.30058202062E+03 -0.17380303309E+04  0.20161929076E+04  0.91287781404E+03 0.  0.
        -24    2    4    4    0    0 -0.82150803505E+02 -0.13358037872E+03 -0.11536815916E+04  0.11670285958E+04  0.79887775192E+02 0.  0.
         24    2    4    4    0    0  0.42941000744E+03  0.43416239934E+03 -0.58434873936E+03  0.84916431173E+03  0.82016069359E+02 0.  0.
         11    1    3    3    0    0 -0.15966620634E+03 -0.11993349091E+03 -0.28871221341E+03  0.35104427337E+03  0.00000000000E+00 0.  1.
        -11    1    3    3    0    0 -0.18759299760E+03 -0.18064852970E+03 -0.23790126229E+03  0.35273507712E+03  0.00000000000E+00 0. -1.
          4    1    6    6  502    0  0.69589975045E+02  0.34070513262E+02 -0.85909409931E+02  0.11568920095E+03  0.00000000000E+00 0. -1.
          3    1    5    5  503    0  0.77256787396E+01  0.28579958892E+01 -0.19927082721E+02  0.21562534134E+02  0.00000000000E+00 0. -1.
         -4    1    5    5    0  503 -0.89876482245E+02 -0.13643837461E+03 -0.11337545089E+04  0.11454660617E+04  0.00000000000E+00 0.  1.
         -3    1    6    6    0  502  0.35982003240E+03  0.40009188608E+03 -0.49843932943E+03  0.73347511078E+03  0.00000000000E+00 0.  1.
<mgrwt>
<rscale>  0 0.15065316E+04</rscale>
<asrwt>0</asrwt>
<pdfrwt beam="1">  1        2 0.38343202E+00 0.15065316E+04</pdfrwt>
<pdfrwt beam="2">  1       -2 0.35025264E-01 0.15065316E+04</pdfrwt>
<totfact> 0.26053958E+01</totfact>
</mgrwt>
</event>
<event>
12    1  0.1114484E-007  0.2031208E+04  0.7818608E-02  0.8592167E-01
         -1   -1    0    0    0  501 -0.00000000000E+00  0.00000000000E+00  0.11277284774E+04  0.11277284774E+04  0.00000000000E+00 0.  1.
          1   -1    0    0  501    0  0.00000000000E+00 -0.00000000000E+00 -0.91462744432E+03  0.91462744432E+03  0.00000000000E+00 0. -1.
         23    2    1    2    0    0  0.71735885638E+02  0.32241560461E+03  0.83559464781E+03  0.90324265226E+03  0.92363488603E+02 0.  0.
        254    2    1    2    0    0 -0.71735885638E+02 -0.32241560461E+03 -0.62249361471E+03  0.11391132695E+04  0.89497646951E+03 0.  0.
        -24    2    4    4    0    0 -0.41922051130E+03  0.60353045492E+02 -0.25962433704E+03  0.50315439932E+03  0.79819959734E+02 0.  0.
         24    2    4    4    0    0  0.34748462567E+03 -0.38276865010E+03 -0.36286927766E+03  0.63595887016E+03  0.74243971443E+02 0.  0.
         11    1    3    3    0    0  0.48870766159E+02  0.74013974161E+02  0.15803196450E+03  0.18121954078E+03  0.00000000000E+00 0.  1.
        -11    1    3    3    0    0  0.22865119479E+02  0.24840163045E+03  0.67756268331E+03  0.72202311148E+03  0.00000000000E+00 0. -1.
          4    1    6    6  502    0  0.12394419688E+03 -0.16891583223E+03 -0.18254632864E+03  0.27788106165E+03  0.00000000000E+00 0. -1.
          1    1    5    5  503    0 -0.11438862887E+03  0.45994411532E+02 -0.50633200538E+02  0.13328152649E+03  0.00000000000E+00 0. -1.
         -4    1    5    5    0  503 -0.30483188244E+03  0.14358633960E+02 -0.20899113651E+03  0.36987287283E+03  0.00000000000E+00 0.  1.
         -3    1    6    6    0  502  0.22354042879E+03 -0.21385281787E+03 -0.18032294902E+03  0.35807780852E+03  0.00000000000E+00 0.  1.
<mgrwt>
<rscale>  0 0.20312079E+04</rscale>
<asrwt>0</asrwt>
<pdfrwt beam="1">  1        1 0.14071191E+00 0.20312079E+04</pdfrwt>
<pdfrwt beam="2">  1       -1 0.17349669E+00 0.20312079E+04</pdfrwt>
<totfact> 0.37990394E+00</totfact>
</mgrwt>
</event>
<event>
12    1  0.1114484E-007  0.2095318E+04  0.7818608E-02  0.8563309E-01
          1   -1    0    0  501    0  0.00000000000E+00  0.00000000000E+00  0.84909016976E+03  0.84909016976E+03  0.00000000000E+00 0. -1.
         -1   -1    0    0    0  501 -0.00000000000E+00 -0.00000000000E+00 -0.12926651912E+04  0.12926651912E+04  0.00000000000E+00 0.  1.
         23    2    1    2    0    0  0.83774080894E+03 -0.50758514975E+02 -0.14959792582E+01  0.84417840929E+03  0.90823229182E+02 0.  0.
        254    2    1    2    0    0 -0.83774080894E+03  0.50758514975E+02 -0.44207904214E+03  0.12975769516E+04  0.88537335407E+03 0.  0.
        -24    2    4    4    0    0 -0.46487265446E+02  0.34394395782E+03 -0.37733589730E+02  0.35822707361E+03  0.80276400648E+02 0.  0.
         24    2    4    4    0    0 -0.79125354349E+03 -0.29318544285E+03 -0.40434545241E+03  0.93934987802E+03  0.82722877523E+02 0.  0.
         13    1    3    3    0    0  0.62815901119E+03 -0.49620405957E+02 -0.38758936749E+02  0.63130672672E+03  0.00000000000E+00 0. -1.
        -13    1    3    3    0    0  0.20958179775E+03 -0.11381090176E+01  0.37262957491E+02  0.21287168257E+03  0.00000000000E+00 0.  1.
          2    1    6    6  502    0 -0.74691915309E+03 -0.27615849682E+03 -0.35840068701E+03  0.87327131470E+03  0.00000000000E+00 0. -1.
          3    1    5    5  503    0 -0.17159705749E-01  0.25011163396E+03 -0.41089263619E+02  0.25346431173E+03  0.00000000000E+00 0. -1.
         -4    1    5    5    0  503 -0.46470105740E+02  0.93832323863E+02  0.33556738892E+01  0.10476276188E+03  0.00000000000E+00 0.  1.
         -3    1    6    6    0  502 -0.44334390395E+02 -0.17026946028E+02 -0.45944765402E+02  0.66078563321E+02  0.00000000000E+00 0.  1.
<mgrwt>
<rscale>  0 0.20953179E+04</rscale>
<asrwt>0</asrwt>
<pdfrwt beam="1">  1        1 0.13062926E+00 0.20953179E+04</pdfrwt>
<pdfrwt beam="2">  1       -1 0.19887157E+00 0.20953179E+04</pdfrwt>
<totfact> 0.28283102E+00</totfact>
</mgrwt>
</event>
<event>
12    1  0.1114484E-007  0.1840807E+04  0.7818608E-02  0.8684895E-01
          2   -1    0    0  501    0  0.00000000000E+00  0.00000000000E+00  0.83903981490E+03  0.83903981490E+03  0.00000000000E+00 0. -1.
         -2   -1    0    0    0  501 -0.00000000000E+00 -0.00000000000E+00 -0.10096568153E+04  0.10096568153E+04  0.00000000000E+00 0.  1.
         23    2    1    2    0    0 -0.15050267684E+03  0.63079283452E+03 -0.32226660240E+03  0.73004575881E+03  0.92522381734E+02 0.  0.
        254    2    1    2    0    0  0.15050267684E+03 -0.63079283452E+03  0.15164960205E+03  0.11186508713E+04  0.89879447837E+03 0.  0.
        -24    2    4    4    0    0 -0.80244631666E+02 -0.70674139866E+03  0.34802983605E+03  0.79584484249E+03  0.79508748189E+02 0.  0.
         24    2    4    4    0    0  0.23074730850E+03  0.75948564145E+02 -0.19638023401E+03  0.32280602886E+03  0.81400437221E+02 0.  0.
         13    1    3    3    0    0 -0.11042994551E+03  0.28551835747E+03 -0.12763447568E+03  0.33167162179E+03  0.00000000000E+00 0.  1.
        -13    1    3    3    0    0 -0.40072731326E+02  0.34527447705E+03 -0.19463212672E+03  0.39837413702E+03  0.00000000000E+00 0. -1.
          2    1    6    6  502    0  0.36890761926E+02  0.45410779269E+02 -0.31259103039E+02  0.66333993639E+02  0.00000000000E+00 0. -1.
          1    1    5    5  503    0 -0.80812700895E+02 -0.63958486769E+03  0.28921433946E+03  0.70657231035E+03  0.00000000000E+00 0. -1.
         -2    1    5    5    0  503  0.56806922836E+00 -0.67156530969E+02  0.58815496594E+02  0.89272532136E+02  0.00000000000E+00 0.  1.
         -1    1    6    6    0  502  0.19385654658E+03  0.30537784876E+02 -0.16512113097E+03  0.25647203522E+03  0.00000000000E+00 0.  1.
<mgrwt>
<rscale>  0 0.18408066E+04</rscale>
<asrwt>0</asrwt>
<pdfrwt beam="1">  1        2 0.12908305E+00 0.18408066E+04</pdfrwt>
<pdfrwt beam="2">  1       -2 0.15533182E+00 0.18408066E+04</pdfrwt>
<totfact> 0.82944773E+00</totfact>
</mgrwt>
</event>
<event>
12    1  0.1114484E-007  0.1837911E+04  0.7818608E-02  0.8686395E-01
         -4   -1    0    0    0  501 -0.00000000000E+00  0.00000000000E+00  0.13314382570E+04  0.13314382570E+04  0.00000000000E+00 0.  1.
          4   -1    0    0  501    0  0.00000000000E+00 -0.00000000000E+00 -0.63426076843E+03  0.63426076843E+03  0.00000000000E+00 0. -1.
         23    2    1    2    0    0  0.13404772641E+02  0.10956040025E+03 -0.46815982767E+03  0.48944323772E+03  0.90542197173E+02 0.  0.
        254    2    1    2    0    0 -0.13404772641E+02 -0.10956040025E+03  0.11653373162E+04  0.14762557877E+04  0.89952038380E+03 0.  0.
        -24    2    4    4    0    0  0.11483696148E+03  0.30579215948E+03  0.14949914705E+03  0.36814164457E+03  0.80510266298E+02 0.  0.
         24    2    4    4    0    0 -0.12824173413E+03 -0.41535255973E+03  0.10158381692E+04  0.11081141431E+04  0.83821697595E+02 0.  0.
         13    1    3    3    0    0 -0.56666797580E+01 -0.15043127518E+02 -0.39878268692E+02  0.42996316806E+02  0.00000000000E+00 0.  1.
        -13    1    3    3    0    0  0.19071452399E+02  0.12460352777E+03 -0.42828155898E+03  0.44644692091E+03  0.00000000000E+00 0. -1.
          2    1    6    6  502    0 -0.76045281435E+00  0.26140315059E+01  0.54266654617E+00  0.27759568038E+01  0.00000000000E+00 0. -1.
          3    1    5    5  503    0 -0.44453052467E+01 -0.29795613340E+01  0.15503915198E+01  0.55715561869E+01  0.00000000000E+00 0. -1.
         -4    1    5    5    0  503  0.11928226673E+03  0.30877172081E+03  0.14794875553E+03  0.36257008839E+03  0.00000000000E+00 0.  1.
         -1    1    6    6    0  502 -0.12748128131E+03 -0.41796659123E+03  0.10152955026E+04  0.11053381863E+04  0.00000000000E+00 0.  1.
<mgrwt>
<rscale>  0 0.18379108E+04</rscale>
<asrwt>0</asrwt>
<pdfrwt beam="1">  1        4 0.97578580E-01 0.18379108E+04</pdfrwt>
<pdfrwt beam="2">  1       -4 0.20483665E+00 0.18379108E+04</pdfrwt>
<totfact> 0.20154220E-01</totfact>
</mgrwt>
</event>
<event>
12    1  0.1114484E-007  0.1727481E+04  0.7818608E-02  0.8745844E-01
          2   -1    0    0  501    0  0.00000000000E+00  0.00000000000E+00  0.12024302799E+04  0.12024302799E+04  0.00000000000E+00 0. -1.
         -2   -1    0    0    0  501 -0.00000000000E+00 -0.00000000000E+00 -0.62045010915E+03  0.62045010915E+03  0.00000000000E+00 0.  1.
         23    2    1    2    0    0 -0.33045108800E+03 -0.26596024703E+03 -0.27815635424E+03  0.51537125638E+03  0.91125188282E+02 0.  0.
        254    2    1    2    0    0  0.33045108800E+03  0.26596024703E+03  0.86013652501E+03  0.13075091327E+04  0.88871396741E+03 0.  0.
        -24    2    4    4    0    0  0.62134591822E+02  0.56278610274E+03  0.56597381010E+03  0.80450176670E+03  0.79421873433E+02 0.  0.
         24    2    4    4    0    0  0.26831649618E+03 -0.29682585571E+03  0.29416271491E+03  0.50300736599E+03  0.79908551853E+02 0.  0.
         13    1    3    3    0    0 -0.27130843988E+02 -0.63838006116E+02 -0.43727609234E+02  0.81996814144E+02  0.00000000000E+00 0. -1.
        -13    1    3    3    0    0 -0.30332024401E+03 -0.20212224091E+03 -0.23442874500E+03  0.43337444224E+03  0.00000000000E+00 0.  1.
          4    1    6    6  502    0  0.49525906789E+02 -0.10872047132E+03  0.83873839836E+02  0.14597183748E+03  0.00000000000E+00 0. -1.
          1    1    5    5  503    0  0.10692541606E+02  0.18251783111E+02  0.42185977865E+02  0.47192316760E+02  0.00000000000E+00 0. -1.
         -2    1    5    5    0  503  0.51442050216E+02  0.54453431963E+03  0.52378783223E+03  0.75730944994E+03  0.00000000000E+00 0.  1.
         -3    1    6    6    0  502  0.21879058939E+03 -0.18810538439E+03  0.21028887507E+03  0.35703552851E+03  0.00000000000E+00 0.  1.
<mgrwt>
<rscale>  0 0.17274814E+04</rscale>
<asrwt>0</asrwt>
<pdfrwt beam="1">  1        2 0.18498927E+00 0.17274814E+04</pdfrwt>
<pdfrwt beam="2">  1       -2 0.95453863E-01 0.17274814E+04</pdfrwt>
<totfact> 0.16523011E+01</totfact>
</mgrwt>
</event>
<event>
12    1  0.1114484E-007  0.2450805E+04  0.7818608E-02  0.8420724E-01
          2   -1    0    0  501    0  0.00000000000E+00  0.00000000000E+00  0.24595720741E+04  0.24595720741E+04  0.00000000000E+00 0. -1.
         -2   -1    0    0    0  501 -0.00000000000E+00 -0.00000000000E+00 -0.61051720519E+03  0.61051720519E+03  0.00000000000E+00 0.  1.
         23    2    1    2    0    0  0.10069968160E+04 -0.16460534642E+03  0.45964174055E+03  0.11229700982E+04  0.93025826306E+02 0.  0.
        254    2    1    2    0    0 -0.10069968160E+04  0.16460534642E+03  0.13894131284E+04  0.19471191811E+04  0.90535449219E+03 0.  0.
        -24    2    4    4    0    0  0.66896589776E+02 -0.71810309443E+02 -0.48252223483E+02  0.13537120581E+03  0.79782278888E+02 0.  0.
         24    2    4    4    0    0 -0.10738934058E+04  0.23641565587E+03  0.14376653519E+04  0.18117479753E+04  0.80060306487E+02 0.  0.
         13    1    3    3    0    0  0.44431290108E+03 -0.62543242685E+02  0.15288219958E+03  0.47402381609E+03  0.00000000000E+00 0. -1.
        -13    1    3    3    0    0  0.56268391492E+03 -0.10206210374E+03  0.30675954097E+03  0.64894628214E+03  0.00000000000E+00 0.  1.
          2    1    6    6  502    0 -0.78338092177E+03  0.18433262070E+03  0.11054512721E+04  0.13673648740E+04  0.00000000000E+00 0. -1.
          3    1    5    5  503    0  0.64790513418E+02 -0.53905851917E+02 -0.68246721174E+02  0.10844937275E+03  0.00000000000E+00 0. -1.
         -4    1    5    5    0  503  0.21060763574E+01 -0.17904457526E+02  0.19994497691E+02  0.26921833052E+02  0.00000000000E+00 0.  1.
         -1    1    6    6    0  502 -0.29051248401E+03  0.52083035169E+02  0.33221407977E+03  0.44438310130E+03  0.00000000000E+00 0.  1.
<mgrwt>
<rscale>  0 0.24508048E+04</rscale>
<asrwt>0</asrwt>
<pdfrwt beam="1">  1        2 0.37839570E+00 0.24508048E+04</pdfrwt>
<pdfrwt beam="2">  1       -2 0.93925725E-01 0.24508048E+04</pdfrwt>
<totfact> 0.31482351E+00</totfact>
</mgrwt>
</event>
<event>
12    1  0.1114484E-007  0.1626276E+04  0.7818608E-02  0.8804566E-01
         -2   -1    0    0    0  501 -0.00000000000E+00  0.00000000000E+00  0.11399091942E+04  0.11399091942E+04  0.00000000000E+00 0.  1.
          2   -1    0    0  501    0  0.00000000000E+00 -0.00000000000E+00 -0.58004071816E+03  0.58004071816E+03  0.00000000000E+00 0. -1.
         23    2    1    2    0    0 -0.60964540498E+02  0.49532775554E+02  0.77037547214E+03  0.78067116494E+03  0.98989538017E+02 0.  0.
        254    2    1    2    0    0  0.60964540498E+02 -0.49532775554E+02 -0.21050699611E+03  0.93927874742E+03  0.91200942916E+03 0.  0.
        -24    2    4    4    0    0  0.47982645773E+00  0.31934794192E+01 -0.56268694343E+03  0.56847449711E+03  0.80846948050E+02 0.  0.
         24    2    4    4    0    0  0.60484714040E+02 -0.52726254973E+02  0.35217994732E+03  0.37080425031E+03  0.83824925654E+02 0.  0.
         13    1    3    3    0    0 -0.81558529745E+02  0.31790187229E+02  0.69601688087E+03  0.70149975640E+03  0.00000000000E+00 0.  1.
        -13    1    3    3    0    0  0.20593989247E+02  0.17742588325E+02  0.74358591277E+02  0.79171408540E+02  0.00000000000E+00 0. -1.
          2    1    6    6  502    0  0.53255119644E+01  0.13679118796E+02  0.96583168415E+01  0.17571637742E+02  0.00000000000E+00 0. -1.
          3    1    5    5  503    0 -0.25065088257E+02  0.29415093553E+02 -0.39232412028E+03  0.39422293405E+03  0.00000000000E+00 0. -1.
         -4    1    5    5    0  503  0.25544914715E+02 -0.26221614134E+02 -0.17036282315E+03  0.17425156306E+03  0.00000000000E+00 0.  1.
         -1    1    6    6    0  502  0.55159202076E+02 -0.66405373769E+02  0.34252163047E+03  0.35323261257E+03  0.00000000000E+00 0.  1.
<mgrwt>
<rscale>  0 0.16262764E+04</rscale>
<asrwt>0</asrwt>
<pdfrwt beam="1">  1        2 0.89237034E-01 0.16262764E+04</pdfrwt>
<pdfrwt beam="2">  1       -2 0.17537065E+00 0.16262764E+04</pdfrwt>
<totfact> 0.96471275E+00</totfact>
</mgrwt>
</event>
<event>
12    1  0.1114484E-007  0.1852539E+04  0.7818608E-02  0.8678848E-01
          2   -1    0    0  501    0  0.00000000000E+00  0.00000000000E+00  0.25767320179E+04  0.25767320179E+04  0.00000000000E+00 0. -1.
         -2   -1    0    0    0  501 -0.00000000000E+00 -0.00000000000E+00 -0.33297044014E+03  0.33297044014E+03  0.00000000000E+00 0.  1.
         23    2    1    2    0    0 -0.17371254946E+03 -0.61106534908E+02 -0.20704499113E+03  0.29138565859E+03  0.90154951241E+02 0.  0.
        254    2    1    2    0    0  0.17371254946E+03  0.61106534908E+02  0.24508065689E+04  0.26183167994E+04  0.90289532378E+03 0.  0.
        -24    2    4    4    0    0  0.10046225027E+03  0.46973788210E+03  0.15175071845E+04  0.15936482859E+04  0.78361104186E+02 0.  0.
         24    2    4    4    0    0  0.73250299182E+02 -0.40863134719E+03  0.93329938440E+03  0.10246685135E+04  0.80948362792E+02 0.  0.
         13    1    3    3    0    0 -0.84061884968E+02  0.29163736164E+01 -0.44869512322E+02  0.95331940479E+02  0.00000000000E+00 0. -1.
        -13    1    3    3    0    0 -0.89650664488E+02 -0.64022908524E+02 -0.16217547881E+03  0.19605371811E+03  0.00000000000E+00 0.  1.
          4    1    6    6  502    0  0.90098091149E+02 -0.31497631537E+03  0.70997351221E+03  0.78191440280E+03  0.00000000000E+00 0. -1.
          3    1    5    5  503    0 -0.80211757307E+01  0.87759447820E+02  0.23028197406E+03  0.24656813970E+03  0.00000000000E+00 0. -1.
         -4    1    5    5    0  503  0.10848342600E+03  0.38197843428E+03  0.12872252104E+04  0.13470801462E+04  0.00000000000E+00 0.  1.
         -3    1    6    6    0  502 -0.16847791968E+02 -0.93655031823E+02  0.22332587219E+03  0.24275411072E+03  0.00000000000E+00 0.  1.
<mgrwt>
<rscale>  0 0.18525394E+04</rscale>
<asrwt>0</asrwt>
<pdfrwt beam="1">  1        2 0.39642030E+00 0.18525394E+04</pdfrwt>
<pdfrwt beam="2">  1       -2 0.51226223E-01 0.18525394E+04</pdfrwt>
<totfact> 0.10644960E+01</totfact>
</mgrwt>
</event>
<event>
12    1  0.1114484E-007  0.1701263E+04  0.7818608E-02  0.8760644E-01
         -2   -1    0    0    0  501 -0.00000000000E+00  0.00000000000E+00  0.71066431758E+03  0.71066431758E+03  0.00000000000E+00 0.  1.
          2   -1    0    0  501    0  0.00000000000E+00 -0.00000000000E+00 -0.10181660925E+04  0.10181660925E+04  0.00000000000E+00 0. -1.
         23    2    1    2    0    0  0.35555938401E+03 -0.31474847473E+03  0.27873547832E+03  0.55848627032E+03  0.93404332644E+02 0.  0.
        254    2    1    2    0    0 -0.35555938401E+03  0.31474847473E+03 -0.58623725320E+03  0.11703441397E+04  0.89473024449E+03 0.  0.
        -24    2    4    4    0    0 -0.45971371916E+03  0.31482819547E+03  0.55778091852E+01  0.56288898344E+03  0.79745843016E+02 0.  0.
         24    2    4    4    0    0  0.10415433515E+03 -0.79720734111E-01 -0.59181506239E+03  0.60745515627E+03  0.88930123842E+02 0.  0.
         11    1    3    3    0    0 -0.37001904526E+01 -0.16276878105E+01  0.11324350664E+02  0.12024212862E+02  0.00000000000E+00 0. -1.
        -11    1    3    3    0    0  0.35925957446E+03 -0.31312078692E+03  0.26741112766E+03  0.54646205746E+03  0.00000000000E+00 0.  1.
          4    1    6    6  502    0  0.28410933418E+02  0.41695714510E+02 -0.21822791132E+03  0.22398467587E+03  0.00000000000E+00 0. -1.
          1    1    5    5  503    0 -0.43900724604E+03  0.30443773926E+03  0.21677212514E+02  0.53467709947E+03  0.00000000000E+00 0. -1.
         -2    1    5    5    0  503 -0.20706473121E+02  0.10390456204E+02 -0.16099403329E+02  0.28211883964E+02  0.00000000000E+00 0.  1.
         -3    1    6    6    0  502  0.75743401728E+02 -0.41775435244E+02 -0.37358715106E+03  0.38347048040E+03  0.00000000000E+00 0.  1.
<mgrwt>
<rscale>  0 0.17012634E+04</rscale>
<asrwt>0</asrwt>
<pdfrwt beam="1">  1        2 0.15664094E+00 0.17012634E+04</pdfrwt>
<pdfrwt beam="2">  1       -2 0.10933297E+00 0.17012634E+04</pdfrwt>
<totfact> 0.15559099E+01</totfact>
</mgrwt>
</event>
<event>
12    1  0.1184286E-007  0.1626753E+04  0.7818608E-02  0.8804279E-01
          2   -1    0    0  501    0  0.00000000000E+00  0.00000000000E+00  0.21152786795E+04  0.21152786795E+04  0.00000000000E+00 0.  1.
         -2   -1    0    0    0  501 -0.00000000000E+00 -0.00000000000E+00 -0.31276303932E+03  0.31276303932E+03  0.00000000000E+00 0. -1.
         23    2    1    2    0    0  0.14807719279E+03  0.39014321763E+03  0.11731668277E+04  0.12488560298E+04  0.95824799786E+02 0.  0.
        254    2    1    2    0    0 -0.14807719279E+03 -0.39014321763E+03  0.62934881255E+03  0.11791856891E+04  0.90568227111E+03 0.  0.
        -24    2    4    4    0    0  0.31150377231E+02  0.25672921372E+03  0.23408106434E+02  0.27173730056E+03  0.80081120676E+02 0.  0.
         24    2    4    4    0    0 -0.17922757002E+03 -0.64687243135E+03  0.60594070611E+03  0.90744838853E+03  0.75709802699E+02 0.  0.
         11    1    3    3    0    0  0.21472267285E+02  0.85733344747E+01  0.10557574238E+03  0.10807773917E+03  0.00000000000E+00 0. -1.
        -11    1    3    3    0    0  0.12660492550E+03  0.38156988316E+03  0.10675910853E+04  0.11407782906E+04  0.00000000000E+00 0.  1.
          4    1    6    6  502    0 -0.14952345257E+03 -0.41022764853E+03  0.40611834847E+03  0.59630202033E+03  0.00000000000E+00 0. -1.
          1    1    5    5  503    0  0.53748258061E+02  0.22068531040E+03  0.10913269961E+02  0.22739828700E+03  0.00000000000E+00 0. -1.
         -2    1    5    5    0  503 -0.22597880830E+02  0.36043903324E+02  0.12494836473E+02  0.44339013558E+02  0.00000000000E+00 0.  1.
         -3    1    6    6    0  502 -0.29704117452E+02 -0.23664478282E+03  0.19982235764E+03  0.31114636820E+03  0.00000000000E+00 0.  1.
<mgrwt>
<rscale>  0 0.16267526E+04</rscale>
<asrwt>0</asrwt>
<pdfrwt beam="1">  1        2 0.32542748E+00 0.16267526E+04</pdfrwt>
<pdfrwt beam="2">  1       -2 0.48117392E-01 0.16267526E+04</pdfrwt>
<totfact> 0.22569844E+01</totfact>
</mgrwt>
</event>
<event>
12    1  0.1114484E-007  0.1363798E+04  0.7818608E-02  0.8980448E-01
         -1   -1    0    0    0  501 -0.00000000000E+00  0.00000000000E+00  0.48128696782E+03  0.48128696782E+03  0.00000000000E+00 0.  1.
          1   -1    0    0  501    0  0.00000000000E+00 -0.00000000000E+00 -0.96613104497E+03  0.96613104497E+03  0.00000000000E+00 0. -1.
         23    2    1    2    0    0  0.16379666709E+02 -0.42010472119E+03 -0.28368471915E+03  0.51581441559E+03  0.93974577425E+02 0.  0.
        254    2    1    2    0    0 -0.16379666709E+02  0.42010472119E+03 -0.20115935800E+03  0.93160359721E+03  0.80663740601E+03 0.  0.
        -24    2    4    4    0    0 -0.34865646042E+02  0.65500670901E+03 -0.15718523790E+03  0.67913563508E+03  0.79174552099E+02 0.  0.
         24    2    4    4    0    0  0.18485979332E+02 -0.23490198782E+03 -0.43974120101E+02  0.25246796213E+03  0.79282238541E+02 0.  0.
         13    1    3    3    0    0  0.11874564767E+02 -0.35767182329E+03 -0.19584262167E+03  0.40795155463E+03  0.00000000000E+00 0. -1.
        -13    1    3    3    0    0  0.45051019423E+01 -0.62432897896E+02 -0.87842097483E+02  0.10786286096E+03  0.00000000000E+00 0.  1.
          4    1    6    6  502    0  0.46504499955E+02 -0.18116291541E+03 -0.42705504572E+02  0.19185002100E+03  0.00000000000E+00 0. -1.
          1    1    5    5  503    0 -0.24380957453E+02  0.61078242587E+03 -0.12628853472E+03  0.62417817715E+03  0.00000000000E+00 0. -1.
         -2    1    5    5    0  503 -0.10484688588E+02  0.44224283144E+02 -0.30896703179E+02  0.54957457927E+02  0.00000000000E+00 0.  1.
         -3    1    6    6    0  502 -0.28018520623E+02 -0.53739072412E+02 -0.12686155290E+01  0.60617941131E+02  0.00000000000E+00 0.  1.
<mgrwt>
<rscale>  0 0.13637981E+04</rscale>
<asrwt>0</asrwt>
<pdfrwt beam="1">  1        1 0.14863554E+00 0.13637981E+04</pdfrwt>
<pdfrwt beam="2">  1       -1 0.74044151E-01 0.13637981E+04</pdfrwt>
<totfact> 0.28901567E+01</totfact>
</mgrwt>
</event>
<event>
12    1  0.1114484E-007  0.2133528E+04  0.7818608E-02  0.8546616E-01
         -1   -1    0    0    0  501 -0.00000000000E+00  0.00000000000E+00  0.80949858343E+03  0.80949858343E+03  0.00000000000E+00 0.  1.
          1   -1    0    0  501    0  0.00000000000E+00 -0.00000000000E+00 -0.14057910363E+04  0.14057910363E+04  0.00000000000E+00 0. -1.
         23    2    1    2    0    0 -0.40031027343E+03  0.19276029223E+03  0.54479378124E+03  0.70912985358E+03  0.93059335323E+02 0.  0.
        254    2    1    2    0    0  0.40031027343E+03 -0.19276029223E+03 -0.11410862341E+04  0.15061597662E+04  0.87694617979E+03 0.  0.
        -24    2    4    4    0    0  0.48503070204E+02  0.50283279212E+02  0.12689236187E+03  0.16567112177E+03  0.80400827728E+02 0.  0.
         24    2    4    4    0    0  0.35180720323E+03 -0.24304357144E+03 -0.12679785960E+04  0.13404886444E+04  0.79382617861E+02 0.  0.
         11    1    3    3    0    0 -0.27469809253E+02  0.44297790580E+02  0.73812402537E+02  0.90361249654E+02  0.00000000000E+00 0. -1.
        -11    1    3    3    0    0 -0.37284046418E+03  0.14846250165E+03  0.47098137870E+03  0.61876860393E+03  0.00000000000E+00 0.  1.
          2    1    6    6  502    0  0.20322578786E+03 -0.18666394534E+03 -0.79564286500E+03  0.84213521359E+03  0.00000000000E+00 0. -1.
          3    1    5    5  503    0  0.45327462990E+02  0.53909593429E+02  0.13723860847E+03  0.15425711919E+03  0.00000000000E+00 0. -1.
         -4    1    5    5    0  503  0.31756072136E+01 -0.36263142169E+01 -0.10346246606E+02  0.11414002576E+02  0.00000000000E+00 0.  1.
         -1    1    6    6    0  502  0.14858141537E+03 -0.56379626098E+02 -0.47233573100E+03  0.49835343082E+03  0.00000000000E+00 0.  1.
<mgrwt>
<rscale>  0 0.21335284E+04</rscale>
<asrwt>0</asrwt>
<pdfrwt beam="1">  1        1 0.21627554E+00 0.21335284E+04</pdfrwt>
<pdfrwt beam="2">  1       -1 0.12453824E+00 0.21335284E+04</pdfrwt>
<totfact> 0.39422393E+00</totfact>
</mgrwt>
</event>
<event>
12    1  0.1114484E-007  0.3090712E+04  0.7818608E-02  0.8218292E-01
          2   -1    0    0  501    0  0.00000000000E+00  0.00000000000E+00  0.23365698883E+04  0.23365698883E+04  0.00000000000E+00 0.  1.
         -2   -1    0    0    0  501 -0.00000000000E+00 -0.00000000000E+00 -0.10220642274E+04  0.10220642274E+04  0.00000000000E+00 0. -1.
         23    2    1    2    0    0 -0.95261524735E+03 -0.77905526302E+03 -0.13406627256E+03  0.12412529845E+04  0.91281398539E+02 0.  0.
        254    2    1    2    0    0  0.95261524735E+03  0.77905526302E+03  0.14485719335E+04  0.21173811313E+04  0.93302695376E+03 0.  0.
        -24    2    4    4    0    0  0.29324440970E+03  0.80934794972E+03  0.67227064370E+03  0.10951775166E+04  0.80184705338E+02 0.  0.
         24    2    4    4    0    0  0.65937083765E+03 -0.30292686697E+02  0.77630128977E+03  0.10222036147E+04  0.81049299759E+02 0.  0.
         13    1    3    3    0    0 -0.85045457211E+03 -0.67671306792E+03 -0.14386034743E+03  0.10963162660E+04  0.00000000000E+00 0. -1.
        -13    1    3    3    0    0 -0.10216067524E+03 -0.10234219510E+03  0.97940748693E+01  0.14493671848E+03  0.00000000000E+00 0.  1.
          2    1    6    6  502    0  0.46530203895E+03 -0.43509758050E+02  0.50114039467E+03  0.68523045880E+03  0.00000000000E+00 0. -1.
          3    1    5    5  503    0  0.12076724299E+03  0.24878842399E+03  0.24610333792E+03  0.37019894628E+03  0.00000000000E+00 0. -1.
         -4    1    5    5    0  503  0.17247716671E+03  0.56055952573E+03  0.42616730578E+03  0.72497857033E+03  0.00000000000E+00 0.  1.
         -1    1    6    6    0  502  0.19406879870E+03  0.13217071352E+02  0.27516089509E+03  0.33697315589E+03  0.00000000000E+00 0.  1.
<mgrwt>
<rscale>  0 0.30907116E+04</rscale>
<asrwt>0</asrwt>
<pdfrwt beam="1">  1        2 0.35947229E+00 0.30907116E+04</pdfrwt>
<pdfrwt beam="2">  1       -2 0.15724065E+00 0.30907116E+04</pdfrwt>
<totfact> 0.96961337E-01</totfact>
</mgrwt>
</event>
<event>
12    1  0.1114484E-007  0.2158085E+04  0.7818608E-02  0.8536079E-01
          2   -1    0    0  501    0  0.00000000000E+00  0.00000000000E+00  0.92134590570E+03  0.92134590570E+03  0.00000000000E+00 0. -1.
         -2   -1    0    0    0  501 -0.00000000000E+00 -0.00000000000E+00 -0.12637304297E+04  0.12637304297E+04  0.00000000000E+00 0.  1.
         23    2    1    2    0    0  0.64001094105E+03 -0.52110591786E+03  0.18593730402E+03  0.85099774112E+03  0.91973322600E+02 0.  0.
        254    2    1    2    0    0 -0.64001094105E+03  0.52110591786E+03 -0.52832182799E+03  0.13340785943E+04  0.90524933550E+03 0.  0.
        -24    2    4    4    0    0 -0.71991753726E+03  0.44499374009E+03 -0.71034905819E+03  0.11078277732E+04  0.79911835942E+02 0.  0.
         24    2    4    4    0    0  0.79906596209E+02  0.76112177770E+02  0.18202723020E+03  0.22625082101E+03  0.76664162089E+02 0.  0.
         11    1    3    3    0    0  0.25688189781E+02 -0.39522335786E+02 -0.49904661861E+01  0.47400452244E+02  0.00000000000E+00 0.  1.
        -11    1    3    3    0    0  0.61432275127E+03 -0.48158358208E+03  0.19092777021E+03  0.80359728888E+03  0.00000000000E+00 0. -1.
          4    1    6    6  502    0 -0.64399445727E+00 -0.88822367640E+01 -0.10077752881E+01  0.89623919700E+01  0.00000000000E+00 0. -1.
          3    1    5    5  503    0 -0.40930632878E+02  0.10492648030E+02 -0.52260030865E+02  0.67205083115E+02  0.00000000000E+00 0. -1.
         -4    1    5    5    0  503 -0.67898690438E+03  0.43450109206E+03 -0.65808902733E+03  0.10406226901E+04  0.00000000000E+00 0.  1.
         -3    1    6    6    0  502  0.80550590666E+02  0.84994414534E+02  0.18303500549E+03  0.21728842904E+03  0.00000000000E+00 0.  1.
<mgrwt>
<rscale>  0 0.21580851E+04</rscale>
<asrwt>0</asrwt>
<pdfrwt beam="1">  1        2 0.14174552E+00 0.21580851E+04</pdfrwt>
<pdfrwt beam="2">  1       -2 0.19442007E+00 0.21580851E+04</pdfrwt>
<totfact> 0.37660737E+00</totfact>
</mgrwt>
</event>
<event>
12    1  0.1114484E-007  0.2145757E+04  0.7818608E-02  0.8541350E-01
          1   -1    0    0  501    0  0.00000000000E+00  0.00000000000E+00  0.80251116934E+03  0.80251116934E+03  0.00000000000E+00 0. -1.
         -1   -1    0    0    0  501 -0.00000000000E+00 -0.00000000000E+00 -0.14343335543E+04  0.14343335543E+04  0.00000000000E+00 0.  1.
         23    2    1    2    0    0 -0.82105030794E+02 -0.76021285945E+03 -0.72024196914E+03  0.10549733089E+04  0.97751524947E+02 0.  0.
        254    2    1    2    0    0  0.82105030794E+02  0.76021285945E+03  0.88419584170E+02  0.11818714147E+04  0.89684847681E+03 0.  0.
        -24    2    4    4    0    0  0.41038581830E+03  0.72112622537E+03  0.12833227882E+02  0.83372691070E+03  0.80599733896E+02 0.  0.
         24    2    4    4    0    0 -0.32828078750E+03  0.39086634077E+02  0.75586356288E+02  0.34814450404E+03  0.78709961442E+02 0.  0.
         11    1    3    3    0    0 -0.49909448517E+02 -0.23937407325E+03 -0.17821124608E+03  0.30257255035E+03  0.00000000000E+00 0.  1.
        -11    1    3    3    0    0 -0.32195582277E+02 -0.52083878620E+03 -0.54203072306E+03  0.75240075855E+03  0.00000000000E+00 0. -1.
          2    1    6    6  502    0 -0.59498875871E+02 -0.58178634148E+01 -0.13794540491E+02  0.61353509369E+02  0.00000000000E+00 0. -1.
          3    1    5    5  503    0  0.13323261934E+03  0.31273108736E+03 -0.22805446030E+01  0.33993655988E+03  0.00000000000E+00 0. -1.
         -4    1    5    5    0  503  0.27715319896E+03  0.40839513801E+03  0.15113772485E+02  0.49379035081E+03  0.00000000000E+00 0.  1.
         -1    1    6    6    0  502 -0.26878191163E+03  0.44904497492E+02  0.89380896779E+02  0.28679099467E+03  0.00000000000E+00 0.  1.
<mgrwt>
<rscale>  0 0.21457574E+04</rscale>
<asrwt>0</asrwt>
<pdfrwt beam="1">  1        1 0.12346326E+00 0.21457574E+04</pdfrwt>
<pdfrwt beam="2">  1       -1 0.22066670E+00 0.21457574E+04</pdfrwt>
<totfact> 0.21947131E+00</totfact>
</mgrwt>
</event>
<event>
12    1  0.1114484E-007  0.2301143E+04  0.7818608E-02  0.8477471E-01
         -2   -1    0    0    0  501 -0.00000000000E+00  0.00000000000E+00  0.46799066300E+03  0.46799066300E+03  0.00000000000E+00 0.  1.
          2   -1    0    0  501    0  0.00000000000E+00 -0.00000000000E+00 -0.28287201276E+04  0.28287201276E+04  0.00000000000E+00 0. -1.
         23    2    1    2    0    0  0.59717296541E+02  0.47514626977E+03 -0.22071222138E+04  0.22604483329E+04  0.94382550481E+02 0.  0.
        254    2    1    2    0    0 -0.59717296541E+02 -0.47514626977E+03 -0.15360725082E+03  0.10362624577E+04  0.90604335471E+03 0.  0.
        -24    2    4    4    0    0 -0.12319956286E+03 -0.72558597263E+03 -0.18642480995E+03  0.76367103586E+03  0.82377820324E+02 0.  0.
         24    2    4    4    0    0  0.63482266316E+02  0.25043970287E+03  0.32817559136E+02  0.27259142187E+03  0.80492534926E+02 0.  0.
         11    1    3    3    0    0  0.34588858154E+02  0.44624403406E+03 -0.19661248616E+04  0.20164268145E+04  0.00000000000E+00 0. -1.
        -11    1    3    3    0    0  0.25128438387E+02  0.28902235708E+02 -0.24099735219E+03  0.24402151833E+03  0.00000000000E+00 0.  1.
          2    1    6    6  502    0  0.76111303799E+02  0.20642542169E+03  0.72119644106E+01  0.22012813931E+03  0.00000000000E+00 0. -1.
          3    1    5    5  503    0 -0.13261053885E+03 -0.59301537999E+03 -0.15342139646E+03  0.62673034138E+03  0.00000000000E+00 0. -1.
         -4    1    5    5    0  503  0.94109759897E+01 -0.13257059264E+03 -0.33003413496E+02  0.13694069448E+03  0.00000000000E+00 0.  1.
         -1    1    6    6    0  502 -0.12629037483E+02  0.44014281180E+02  0.25605594726E+02  0.52463282558E+02  0.00000000000E+00 0.  1.
<mgrwt>
<rscale>  0 0.23011429E+04</rscale>
<asrwt>0</asrwt>
<pdfrwt beam="1">  1        2 0.43518772E+00 0.23011429E+04</pdfrwt>
<pdfrwt beam="2">  1       -2 0.71998563E-01 0.23011429E+04</pdfrwt>
<totfact> 0.35207899E+00</totfact>
</mgrwt>
</event>
<event>
12    1  0.1114484E-007  0.4042951E+04  0.7818608E-02  0.7995938E-01
          2   -1    0    0  501    0  0.00000000000E+00  0.00000000000E+00  0.32114290992E+04  0.32114290992E+04  0.00000000000E+00 0.  1.
         -2   -1    0    0    0  501 -0.00000000000E+00 -0.00000000000E+00 -0.12724440146E+04  0.12724440146E+04  0.00000000000E+00 0. -1.
         23    2    1    2    0    0  0.11771231269E+04  0.23261666894E+03  0.25849524040E+04  0.28512318960E+04  0.88402619671E+02 0.  0.
        254    2    1    2    0    0 -0.11771231269E+04 -0.23261666894E+03 -0.64596731935E+03  0.16326412178E+04  0.89917417550E+03 0.  0.
        -24    2    4    4    0    0 -0.96923749543E+03 -0.53737973949E+03 -0.40146798533E+03  0.11814223274E+04  0.79899095673E+02 0.  0.
         24    2    4    4    0    0 -0.20788563148E+03  0.30476307055E+03 -0.24449933402E+03  0.45121889042E+03  0.87872622498E+02 0.  0.
         11    1    3    3    0    0  0.74289389783E+03  0.14000114302E+03  0.17266532940E+04  0.18848934349E+04  0.00000000000E+00 0. -1.
        -11    1    3    3    0    0  0.43422922908E+03  0.92615525917E+02  0.85829911003E+03  0.96633846105E+03  0.00000000000E+00 0.  1.
          4    1    6    6  502    0 -0.70908782867E+01  0.14845770279E+02 -0.40712456191E+02  0.43911063972E+02  0.00000000000E+00 0. -1.
          1    1    5    5  503    0 -0.31033944189E+03 -0.19838642282E+03 -0.10186798445E+03  0.38215811938E+03  0.00000000000E+00 0. -1.
         -2    1    5    5    0  503 -0.65889805354E+03 -0.33899331667E+03 -0.29960000088E+03  0.79926420802E+03  0.00000000000E+00 0.  1.
         -3    1    6    6    0  502 -0.20079475320E+03  0.28991730027E+03 -0.20378687782E+03  0.40730782644E+03  0.00000000000E+00 0.  1.
<mgrwt>
<rscale>  0 0.40429513E+04</rscale>
<asrwt>0</asrwt>
<pdfrwt beam="1">  1        2 0.49406601E+00 0.40429513E+04</pdfrwt>
<pdfrwt beam="2">  1       -2 0.19576062E+00 0.40429513E+04</pdfrwt>
<totfact> 0.14200351E-01</totfact>
</mgrwt>
</event>
<event>
12    1  0.1114484E-007  0.2193900E+04  0.7818608E-02  0.8520971E-01
         -1   -1    0    0    0  501 -0.00000000000E+00  0.00000000000E+00  0.10071975743E+04  0.10071975743E+04  0.00000000000E+00 0.  1.
          1   -1    0    0  501    0  0.00000000000E+00 -0.00000000000E+00 -0.11947003420E+04  0.11947003420E+04  0.00000000000E+00 0. -1.
         23    2    1    2    0    0  0.25151329940E+03 -0.16127257329E+03 -0.93850947218E+03  0.98996733411E+03  0.99837420722E+02 0.  0.
        254    2    1    2    0    0 -0.25151329940E+03  0.16127257329E+03  0.75100670447E+03  0.12119305821E+04  0.90304866039E+03 0.  0.
        -24    2    4    4    0    0  0.42968163044E+02  0.25965646015E+03  0.83618048887E+03  0.88020887453E+03  0.79385845834E+02 0.  0.
         24    2    4    4    0    0 -0.29448146244E+03 -0.98383886858E+02 -0.85173784398E+02  0.33172170757E+03  0.79912432150E+02 0.  0.
         13    1    3    3    0    0  0.10650175398E+03 -0.11429077186E+03 -0.57376081818E+03  0.59464819903E+03  0.00000000000E+00 0. -1.
        -13    1    3    3    0    0  0.14501154541E+03 -0.46981801435E+02 -0.36474865400E+03  0.39531913508E+03  0.00000000000E+00 0.  1.
          4    1    6    6  502    0 -0.23034879396E+03 -0.98267430629E+02 -0.92933675478E+02  0.26712117632E+03  0.00000000000E+00 0. -1.
          1    1    5    5  503    0  0.55526079410E+02  0.22468501247E+03  0.77307072019E+03  0.80697263816E+03  0.00000000000E+00 0. -1.
         -2    1    5    5    0  503 -0.12557916365E+02  0.34971447680E+02  0.63109768678E+02  0.73236236378E+02  0.00000000000E+00 0.  1.
         -1    1    6    6    0  502 -0.64132668482E+02 -0.11645622930E+00  0.77598910796E+01  0.64600531253E+02  0.00000000000E+00 0.  1.
<mgrwt>
<rscale>  0 0.21939000E+04</rscale>
<asrwt>0</asrwt>
<pdfrwt beam="1">  1        1 0.18380005E+00 0.21939000E+04</pdfrwt>
<pdfrwt beam="2">  1       -1 0.15495347E+00 0.21939000E+04</pdfrwt>
<totfact> 0.31414735E+00</totfact>
</mgrwt>
</event>
<event>
12    1  0.1114484E-007  0.1224273E+04  0.7818608E-02  0.9091872E-01
         -1   -1    0    0    0  501 -0.00000000000E+00  0.00000000000E+00  0.59649628733E+03  0.59649628733E+03  0.00000000000E+00 0.  1.
          1   -1    0    0  501    0  0.00000000000E+00 -0.00000000000E+00 -0.62818706886E+03  0.62818706886E+03  0.00000000000E+00 0. -1.
         23    2    1    2    0    0 -0.18195569859E+03 -0.16929411999E+03  0.10495588845E+03  0.28477838855E+03  0.91184520367E+02 0.  0.
        254    2    1    2    0    0  0.18195569859E+03  0.16929411999E+03 -0.13664666999E+03  0.93990496763E+03  0.89609188170E+03 0.  0.
        -24    2    4    4    0    0  0.79426531259E+02 -0.18271546272E+03  0.29664230950E+03  0.36667928464E+03  0.82240645740E+02 0.  0.
         24    2    4    4    0    0  0.10252916733E+03  0.35200958271E+03 -0.43328897949E+03  0.57322568299E+03  0.80158389564E+02 0.  0.
         11    1    3    3    0    0 -0.99593926556E+01  0.34811411502E+00  0.30343543154E+02  0.31938085363E+02  0.00000000000E+00 0. -1.
        -11    1    3    3    0    0 -0.17199630593E+03 -0.16964223411E+03  0.74612345300E+02  0.25284030319E+03  0.00000000000E+00 0.  1.
          4    1    6    6  502    0  0.10245677074E+03  0.33250463969E+03 -0.37402320915E+03  0.51083273805E+03  0.00000000000E+00 0. -1.
          1    1    5    5  503    0  0.71212530765E+02 -0.17410630449E+03  0.30019465693E+03  0.35426129036E+03  0.00000000000E+00 0. -1.
         -2    1    5    5    0  503  0.82140004941E+01 -0.86091582351E+01 -0.35523474275E+01  0.12417994278E+02  0.00000000000E+00 0.  1.
         -3    1    6    6    0  502  0.72396585857E-01  0.19504943026E+02 -0.59265770347E+02  0.62392944942E+02  0.00000000000E+00 0.  1.
<mgrwt>
<rscale>  0 0.12242733E+04</rscale>
<asrwt>0</asrwt>
<pdfrwt beam="1">  1        1 0.96644164E-01 0.12242733E+04</pdfrwt>
<pdfrwt beam="2">  1       -1 0.91768660E-01 0.12242733E+04</pdfrwt>
<totfact> 0.36632990E+01</totfact>
</mgrwt>
</event>
<event>
12    1  0.1114484E-007  0.1219935E+04  0.7818608E-02  0.9095584E-01
          2   -1    0    0  501    0  0.00000000000E+00  0.00000000000E+00  0.12974903360E+04  0.12974903360E+04  0.00000000000E+00 0. -1.
         -2   -1    0    0    0  501 -0.00000000000E+00 -0.00000000000E+00 -0.28675387266E+03  0.28675387266E+03  0.00000000000E+00 0.  1.
         23    2    1    2    0    0  0.59415460100E+02 -0.33455626655E+02  0.56774106918E+03  0.57899880551E+03  0.90885748554E+02 0.  0.
        254    2    1    2    0    0 -0.59415460100E+02  0.33455626655E+02  0.44299539416E+03  0.10052454032E+04  0.89979104544E+03 0.  0.
        -24    2    4    4    0    0  0.26081543717E+02  0.45215258016E+03  0.17079847742E+03  0.49225564687E+03  0.89561706747E+02 0.  0.
         24    2    4    4    0    0 -0.85497003816E+02 -0.41869695351E+03  0.27219691675E+03  0.51298975628E+03  0.80314706137E+02 0.  0.
         11    1    3    3    0    0  0.52293316741E+02  0.18750690443E+02  0.37866689117E+03  0.38272025532E+03  0.00000000000E+00 0. -1.
        -11    1    3    3    0    0  0.71221433584E+01 -0.52206317098E+02  0.18907417801E+03  0.19627855018E+03  0.00000000000E+00 0.  1.
          4    1    6    6  502    0 -0.20342020979E+02 -0.71001988821E+02  0.85552118282E+02  0.11302320636E+03  0.00000000000E+00 0. -1.
          3    1    5    5  503    0  0.13984351484E+01  0.27723120978E+03  0.59760998223E+02  0.28360267312E+03  0.00000000000E+00 0. -1.
         -4    1    5    5    0  503  0.24683108568E+02  0.17492137039E+03  0.11103747919E+03  0.20865297375E+03  0.00000000000E+00 0.  1.
         -3    1    6    6    0  502 -0.65154982838E+02 -0.34769496469E+03  0.18664479847E+03  0.39996654992E+03  0.00000000000E+00 0.  1.
<mgrwt>
<rscale>  0 0.12199350E+04</rscale>
<asrwt>0</asrwt>
<pdfrwt beam="1">  1        2 0.19961389E+00 0.12199350E+04</pdfrwt>
<pdfrwt beam="2">  1       -2 0.44115981E-01 0.12199350E+04</pdfrwt>
<totfact> 0.79610814E+01</totfact>
</mgrwt>
</event>
<event>
12    1  0.1114484E-007  0.2245344E+04  0.7818608E-02  0.8499788E-01
          2   -1    0    0  501    0  0.00000000000E+00  0.00000000000E+00  0.30149196302E+04  0.30149196302E+04  0.00000000000E+00 0. -1.
         -2   -1    0    0    0  501 -0.00000000000E+00 -0.00000000000E+00 -0.41805179016E+03  0.41805179016E+03  0.00000000000E+00 0.  1.
         23    2    1    2    0    0 -0.84640502185E+03 -0.16719402866E+03  0.52413668856E+03  0.10137195384E+04  0.92480970720E+02 0.  0.
        254    2    1    2    0    0  0.84640502185E+03  0.16719402866E+03  0.20727311515E+04  0.24192518820E+04  0.90122690703E+03 0.  0.
        -24    2    4    4    0    0  0.98842242337E+03  0.28619905916E+03  0.15849688323E+04  0.18915350051E+04  0.83004142970E+02 0.  0.
         24    2    4    4    0    0 -0.14201740151E+03 -0.11900503050E+03  0.48776231925E+03  0.52771687693E+03  0.79005585249E+02 0.  0.
         13    1    3    3    0    0 -0.16363877602E+03 -0.45709790685E+02  0.14495185262E+03  0.22333399553E+03  0.00000000000E+00 0.  1.
        -13    1    3    3    0    0 -0.68276624583E+03 -0.12148423797E+03  0.37918483594E+03  0.79038554284E+03  0.00000000000E+00 0. -1.
          4    1    6    6  502    0 -0.12015057982E+03 -0.10805198337E+03  0.47130986137E+03  0.49824128529E+03  0.00000000000E+00 0. -1.
          3    1    5    5  503    0  0.56629757450E+03  0.19927632256E+03  0.88033860524E+03  0.10655515264E+04  0.00000000000E+00 0. -1.
         -4    1    5    5    0  503  0.42212484886E+03  0.86922736601E+02  0.70463022704E+03  0.82598347866E+03  0.00000000000E+00 0.  1.
         -3    1    6    6    0  502 -0.21866821696E+02 -0.10953047126E+02  0.16452457883E+02  0.29475591645E+02  0.00000000000E+00 0.  1.
<mgrwt>
<rscale>  0 0.22453441E+04</rscale>
<asrwt>0</asrwt>
<pdfrwt beam="1">  1        2 0.46383378E+00 0.22453441E+04</pdfrwt>
<pdfrwt beam="2">  1       -2 0.64315662E-01 0.22453441E+04</pdfrwt>
<totfact> 0.34693705E+00</totfact>
</mgrwt>
</event>
<event>
12    1  0.1114484E-007  0.1565547E+04  0.7818608E-02  0.8841998E-01
          1   -1    0    0  501    0  0.00000000000E+00  0.00000000000E+00  0.13225606793E+04  0.13225606793E+04  0.00000000000E+00 0. -1.
         -1   -1    0    0    0  501 -0.00000000000E+00 -0.00000000000E+00 -0.46329422913E+03  0.46329422913E+03  0.00000000000E+00 0.  1.
         23    2    1    2    0    0  0.46101988727E+00 -0.37449238202E+03  0.72561667482E+03  0.82175804625E+03  0.92314522514E+02 0.  0.
        254    2    1    2    0    0 -0.46101988727E+00  0.37449238202E+03  0.13364977533E+03  0.96409686215E+03  0.87827998977E+03 0.  0.
        -24    2    4    4    0    0 -0.32556691195E+03 -0.45384550428E+02 -0.13408360318E+03  0.36386086567E+03  0.79766818633E+02 0.  0.
         24    2    4    4    0    0  0.32510589206E+03  0.41987693245E+03  0.26773337851E+03  0.60023599648E+03  0.81311807540E+02 0.  0.
         13    1    3    3    0    0  0.18633531385E+02 -0.36445732281E+03  0.68790599445E+03  0.77871111835E+03  0.00000000000E+00 0. -1.
        -13    1    3    3    0    0 -0.18172511498E+02 -0.10035059208E+02  0.37710680370E+02  0.43046927898E+02  0.00000000000E+00 0.  1.
          2    1    6    6  502    0  0.50081584514E+02  0.98152846605E+02  0.85248918723E+02  0.13931806971E+03  0.00000000000E+00 0. -1.
          3    1    5    5  503    0 -0.13322348788E+03 -0.57411458759E+02 -0.48136217912E+02  0.15284524459E+03  0.00000000000E+00 0. -1.
         -4    1    5    5    0  503 -0.19234342407E+03  0.12026908331E+02 -0.85947385267E+02  0.21101562108E+03  0.00000000000E+00 0.  1.
         -1    1    6    6    0  502  0.27502430755E+03  0.32172408584E+03  0.18248445978E+03  0.46091792677E+03  0.00000000000E+00 0.  1.
<mgrwt>
<rscale>  0 0.15655475E+04</rscale>
<asrwt>0</asrwt>
<pdfrwt beam="1">  1        1 0.20347087E+00 0.15655475E+04</pdfrwt>
<pdfrwt beam="2">  1       -1 0.71276036E-01 0.15655475E+04</pdfrwt>
<totfact> 0.16671623E+01</totfact>
</mgrwt>
</event>
<event>
12    1  0.1114484E-007  0.1913118E+04  0.7818608E-02  0.8648354E-01
          1   -1    0    0  501    0  0.00000000000E+00  0.00000000000E+00  0.86771182392E+03  0.86771182392E+03  0.00000000000E+00 0. -1.
         -1   -1    0    0    0  501 -0.00000000000E+00 -0.00000000000E+00 -0.10545036199E+04  0.10545036199E+04  0.00000000000E+00 0.  1.
         23    2    1    2    0    0 -0.73040684660E+03 -0.19390214472E+02  0.54516358479E+02  0.73827311612E+03  0.90581558152E+02 0.  0.
        254    2    1    2    0    0  0.73040684660E+03  0.19390214472E+02 -0.24130815443E+03  0.11839423277E+04  0.89978867956E+03 0.  0.
        -24    2    4    4    0    0  0.45407310612E+03  0.34615572214E+03 -0.42009043896E+03  0.71325381001E+03  0.79049673684E+02 0.  0.
         24    2    4    4    0    0  0.27633374047E+03 -0.32676550767E+03  0.17878228452E+03  0.47068851765E+03  0.80302816048E+02 0.  0.
         13    1    3    3    0    0 -0.13553381602E+03 -0.27359108710E+01 -0.25097855995E+02  0.13786516192E+03  0.00000000000E+00 0. -1.
        -13    1    3    3    0    0 -0.59487303057E+03 -0.16654303601E+02  0.79614214474E+02  0.60040795421E+03  0.00000000000E+00 0.  1.
          4    1    6    6  502    0  0.18747283774E+03 -0.27039669124E+03  0.14989055811E+03  0.36156273997E+03  0.00000000000E+00 0. -1.
          3    1    5    5  503    0  0.36515436595E+03  0.31212262464E+03 -0.33593296690E+03  0.58618188477E+03  0.00000000000E+00 0. -1.
         -4    1    5    5    0  503  0.88918740170E+02  0.34033097499E+02 -0.84157472059E+02  0.12707192523E+03  0.00000000000E+00 0.  1.
         -3    1    6    6    0  502  0.88860902734E+02 -0.56368816435E+02  0.28891726415E+02  0.10912577769E+03  0.00000000000E+00 0.  1.
<mgrwt>
<rscale>  0 0.19131181E+04</rscale>
<asrwt>0</asrwt>
<pdfrwt beam="1">  1        1 0.13349413E+00 0.19131181E+04</pdfrwt>
<pdfrwt beam="2">  1       -1 0.16223133E+00 0.19131181E+04</pdfrwt>
<totfact> 0.50844704E+00</totfact>
</mgrwt>
</event>
<event>
12    1  0.1114484E-007  0.1266375E+04  0.7818608E-02  0.9056663E-01
         -2   -1    0    0    0  501 -0.00000000000E+00  0.00000000000E+00  0.98414750326E+02  0.98414750326E+02  0.00000000000E+00 0.  1.
          2   -1    0    0  501    0  0.00000000000E+00 -0.00000000000E+00 -0.40738472412E+04  0.40738472412E+04  0.00000000000E+00 0. -1.
         23    2    1    2    0    0  0.25561833007E+03  0.84517632605E+02 -0.15029774034E+04  0.15295941837E+04  0.90737704322E+02 0.  0.
        254    2    1    2    0    0 -0.25561833007E+03 -0.84517632605E+02 -0.24724550875E+04  0.26426678078E+04  0.89340641464E+03 0.  0.
        -24    2    4    4    0    0 -0.55647180451E+03 -0.12484868267E+03 -0.19478114388E+04  0.20311424809E+04  0.79512979256E+02 0.  0.
         24    2    4    4    0    0  0.30085347444E+03  0.40331050064E+02 -0.52464364871E+03  0.61152532689E+03  0.81073180576E+02 0.  0.
         13    1    3    3    0    0  0.25343806749E+03  0.93800362464E+02 -0.13776693927E+04  0.14039239003E+04  0.00000000000E+00 0. -1.
        -13    1    3    3    0    0  0.21802625794E+01 -0.92827298582E+01 -0.12530801063E+03  0.12567028347E+03  0.00000000000E+00 0.  1.
          2    1    6    6  502    0  0.41719420157E+02 -0.47215929842E+00 -0.13892940012E+03  0.14505899203E+03  0.00000000000E+00 0. -1.
          3    1    5    5  503    0 -0.15208844091E+02 -0.17929620517E+02 -0.99708404723E+02  0.10244289240E+03  0.00000000000E+00 0. -1.
         -4    1    5    5    0  503 -0.54126296042E+03 -0.10691906215E+03 -0.18481030341E+04  0.19286995885E+04  0.00000000000E+00 0.  1.
         -1    1    6    6    0  502  0.25913405428E+03  0.40803209363E+02 -0.38571424859E+03  0.46646633485E+03  0.00000000000E+00 0.  1.
<mgrwt>
<rscale>  0 0.12663754E+04</rscale>
<asrwt>0</asrwt>
<pdfrwt beam="1">  1        2 0.62674562E+00 0.12663754E+04</pdfrwt>
<pdfrwt beam="2">  1       -2 0.15140733E-01 0.12663754E+04</pdfrwt>
<totfact> 0.10493266E+01</totfact>
</mgrwt>
</event>
<event>
12    1  0.1114484E-007  0.1312699E+04  0.7818608E-02  0.9019555E-01
         -1   -1    0    0    0  501 -0.00000000000E+00  0.00000000000E+00  0.66916378255E+03  0.66916378255E+03  0.00000000000E+00 0.  1.
          1   -1    0    0  501    0  0.00000000000E+00 -0.00000000000E+00 -0.64378081980E+03  0.64378081980E+03  0.00000000000E+00 0. -1.
         23    2    1    2    0    0  0.10839497200E+03  0.23261174359E+03  0.21578314472E+03  0.34795104463E+03  0.93004681096E+02 0.  0.
        254    2    1    2    0    0 -0.10839497200E+03 -0.23261174359E+03 -0.19040018196E+03  0.96499355772E+03  0.91055073661E+03 0.  0.
        -24    2    4    4    0    0 -0.22819986579E+03  0.95813584624E+02 -0.45169525991E+03  0.52102727531E+03  0.78647263466E+02 0.  0.
         24    2    4    4    0    0  0.11980489380E+03 -0.32842532821E+03  0.26129507795E+03  0.44396628241E+03  0.81329781559E+02 0.  0.
         11    1    3    3    0    0  0.47327596916E+02  0.17071664524E+03  0.18387577084E+03  0.25533188891E+03  0.00000000000E+00 0.  1.
        -11    1    3    3    0    0  0.61067375079E+02  0.61895098349E+02  0.31907373877E+02  0.92619155721E+02  0.00000000000E+00 0. -1.
          4    1    6    6  502    0  0.99910078285E+02 -0.29496698374E+03  0.25885920709E+03  0.40496374447E+03  0.00000000000E+00 0. -1.
          3    1    5    5  503    0 -0.88888762258E+02  0.21832632209E+02 -0.24124489188E+03  0.25802514169E+03  0.00000000000E+00 0. -1.
         -4    1    5    5    0  503 -0.13931110354E+03  0.73980952415E+02 -0.21045036803E+03  0.26300213362E+03  0.00000000000E+00 0.  1.
         -3    1    6    6    0  502  0.19894815513E+02 -0.33458344466E+02  0.24358708588E+01  0.39002537937E+02  0.00000000000E+00 0.  1.
<mgrwt>
<rscale>  0 0.13126992E+04</rscale>
<asrwt>0</asrwt>
<pdfrwt beam="1">  1        1 0.99043203E-01 0.13126992E+04</pdfrwt>
<pdfrwt beam="2">  1       -1 0.10294827E+00 0.13126992E+04</pdfrwt>
<totfact> 0.27043334E+01</totfact>
</mgrwt>
</event>
<event>
12    1  0.1114484E-007  0.2206015E+04  0.7818608E-02  0.8515929E-01
         -3   -1    0    0    0  501 -0.00000000000E+00  0.00000000000E+00  0.17988192470E+04  0.17988192470E+04  0.00000000000E+00 0.  1.
          3   -1    0    0  501    0  0.00000000000E+00 -0.00000000000E+00 -0.67634671731E+03  0.67634671731E+03  0.00000000000E+00 0. -1.
         23    2    1    2    0    0 -0.79592786064E+03 -0.38897919568E+02  0.89514670843E+03  0.12019429909E+04  0.91461009311E+02 0.  0.
        254    2    1    2    0    0  0.79592786064E+03  0.38897919568E+02  0.22732582129E+03  0.12732229735E+04  0.96664652466E+03 0.  0.
        -24    2    4    4    0    0 -0.11121197488E+03  0.27858805833E+03  0.38280703421E+02  0.31276648402E+03  0.79862705124E+02 0.  0.
         24    2    4    4    0    0  0.90713983551E+03 -0.23969013876E+03  0.18904511787E+03  0.96045648944E+03  0.79903490083E+02 0.  0.
         11    1    3    3    0    0 -0.59161363998E+03 -0.30241457978E+02  0.60265567382E+03  0.84505331546E+03  0.00000000000E+00 0.  1.
        -11    1    3    3    0    0 -0.20431422066E+03 -0.86564615902E+01  0.29249103461E+03  0.35688967541E+03  0.00000000000E+00 0. -1.
          4    1    6    6  502    0  0.32505708632E+03 -0.47228622819E+02  0.73331737943E+02  0.33655637859E+03  0.00000000000E+00 0. -1.
          1    1    5    5  503    0 -0.80743168562E+02  0.10116927767E+03  0.28150842302E+02  0.13246566324E+03  0.00000000000E+00 0. -1.
         -2    1    5    5    0  503 -0.30468806318E+02  0.17741878066E+03  0.10129861119E+02  0.18030082078E+03  0.00000000000E+00 0.  1.
         -3    1    6    6    0  502  0.58208274920E+03 -0.19246151594E+03  0.11571337992E+03  0.62390011086E+03  0.00000000000E+00 0.  1.
<mgrwt>
<rscale>  0 0.22060150E+04</rscale>
<asrwt>0</asrwt>
<pdfrwt beam="1">  1        3 0.10405334E+00 0.22060150E+04</pdfrwt>
<pdfrwt beam="2">  1       -3 0.27674142E+00 0.22060150E+04</pdfrwt>
<totfact> 0.97640314E-02</totfact>
</mgrwt>
</event>
<event>
12    1  0.1114484E-007  0.5322292E+04  0.7818608E-02  0.7780627E-01
          2   -1    0    0  501    0  0.00000000000E+00  0.00000000000E+00  0.41279944308E+04  0.41279944308E+04  0.00000000000E+00 0. -1.
         -2   -1    0    0    0  501 -0.00000000000E+00 -0.00000000000E+00 -0.17155297390E+04  0.17155297390E+04  0.00000000000E+00 0.  1.
         23    2    1    2    0    0 -0.67204299550E+03 -0.10752910122E+04  0.36436544160E+04  0.38592112546E+04  0.96961101847E+02 0.  0.
        254    2    1    2    0    0  0.67204299550E+03  0.10752910122E+04 -0.12311897241E+04  0.19843129153E+04  0.90209592625E+03 0.  0.
        -24    2    4    4    0    0 -0.85460232113E+02  0.68063668630E+03 -0.65044541810E+03  0.94840051680E+03  0.76253185677E+02 0.  0.
         24    2    4    4    0    0  0.75750322762E+03  0.39465432587E+03 -0.58074430603E+03  0.10359123985E+04  0.79292947365E+02 0.  0.
         11    1    3    3    0    0 -0.17010480183E+03 -0.19860605368E+03  0.73932227936E+03  0.78420497379E+03  0.00000000000E+00 0.  1.
        -11    1    3    3    0    0 -0.50193819367E+03 -0.87668495849E+03  0.29043321367E+04  0.30750062808E+04  0.00000000000E+00 0. -1.
          2    1    6    6  502    0  0.40907670489E+03  0.19495240333E+03 -0.26411400553E+03  0.52450586075E+03  0.00000000000E+00 0. -1.
          3    1    5    5  503    0 -0.64674937398E+02  0.55558447970E+03 -0.56806235703E+03  0.79721502940E+03  0.00000000000E+00 0. -1.
         -4    1    5    5    0  503 -0.20785294715E+02  0.12505220659E+03 -0.82383061070E+02  0.15118548740E+03  0.00000000000E+00 0.  1.
         -1    1    6    6    0  502  0.34842652273E+03  0.19970192254E+03 -0.31663030050E+03  0.51140653770E+03  0.00000000000E+00 0.  1.
<mgrwt>
<rscale>  0 0.53222917E+04</rscale>
<asrwt>0</asrwt>
<pdfrwt beam="1">  1        2 0.63507606E+00 0.53222917E+04</pdfrwt>
<pdfrwt beam="2">  1       -2 0.26392765E+00 0.53222917E+04</pdfrwt>
<totfact> 0.99819012E-03</totfact>
</mgrwt>
</event>
<event>
12    1  0.1114484E-007  0.1383010E+04  0.7818608E-02  0.8966210E-01
         -1   -1    0    0    0  501 -0.00000000000E+00  0.00000000000E+00  0.63775703618E+03  0.63775703618E+03  0.00000000000E+00 0.  1.
          1   -1    0    0  501    0  0.00000000000E+00 -0.00000000000E+00 -0.74978246442E+03  0.74978246442E+03  0.00000000000E+00 0. -1.
         23    2    1    2    0    0  0.16276778424E+03 -0.24511918394E+01 -0.38828260401E+03  0.43283966174E+03  0.10043620995E+03 0.  0.
        254    2    1    2    0    0 -0.16276778424E+03  0.24511918394E+01  0.27625717577E+03  0.95469983886E+03  0.89924101064E+03 0.  0.
        -24    2    4    4    0    0  0.35963666001E+03 -0.63820455220E+01  0.20421214151E+03  0.42149569548E+03  0.81097255476E+02 0.  0.
         24    2    4    4    0    0 -0.52240444425E+03  0.88332373614E+01  0.72045034264E+02  0.53320414337E+03  0.78305441005E+02 0.  0.
         13    1    3    3    0    0  0.75997146209E+02  0.48098613133E+02 -0.16242567932E+03  0.18566406254E+03  0.00000000000E+00 0.  1.
        -13    1    3    3    0    0  0.86770638035E+02 -0.50549804972E+02 -0.22585692469E+03  0.24717559920E+03  0.00000000000E+00 0. -1.
          2    1    6    6  502    0 -0.10822194826E+03  0.32452383589E+02  0.61715254992E+01  0.11315138096E+03  0.00000000000E+00 0. -1.
          3    1    5    5  503    0  0.10126138012E+03 -0.28618119145E+02  0.88606976806E+02  0.13756474907E+03  0.00000000000E+00 0. -1.
         -4    1    5    5    0  503  0.25837527989E+03  0.22236073623E+02  0.11560516470E+03  0.28393094642E+03  0.00000000000E+00 0.  1.
         -1    1    6    6    0  502 -0.41418249599E+03 -0.23619146228E+02  0.65873508765E+02  0.42005276241E+03  0.00000000000E+00 0.  1.
<mgrwt>
<rscale>  0 0.13830098E+04</rscale>
<asrwt>0</asrwt>
<pdfrwt beam="1">  1        1 0.11535115E+00 0.13830098E+04</pdfrwt>
<pdfrwt beam="2">  1       -1 0.98116468E-01 0.13830098E+04</pdfrwt>
<totfact> 0.23824148E+01</totfact>
</mgrwt>
</event>
<event>
12    1  0.1114484E-007  0.1255559E+04  0.7818608E-02  0.9065569E-01
         -3   -1    0    0    0  501 -0.00000000000E+00  0.00000000000E+00  0.35760779750E+03  0.35760779750E+03  0.00000000000E+00 0.  1.
          3   -1    0    0  501    0  0.00000000000E+00 -0.00000000000E+00 -0.11020652832E+04  0.11020652832E+04  0.00000000000E+00 0. -1.
         23    2    1    2    0    0  0.26277549917E+03 -0.22998035490E+02 -0.33887808717E+03  0.43886375814E+03  0.90460862520E+02 0.  0.
        254    2    1    2    0    0 -0.26277549917E+03  0.22998035490E+02 -0.40557939851E+03  0.10208093225E+04  0.89887549298E+03 0.  0.
        -24    2    4    4    0    0  0.22324250244E+03  0.22982056801E+03  0.29164222688E+02  0.33118213552E+03  0.78589736121E+02 0.  0.
         24    2    4    4    0    0 -0.48601800161E+03 -0.20682253252E+03 -0.43474362120E+03  0.68962718702E+03  0.87146905009E+02 0.  0.
         11    1    3    3    0    0  0.12567806673E+03 -0.26326318375E+02 -0.23135323342E+03  0.26459850739E+03  0.00000000000E+00 0. -1.
        -11    1    3    3    0    0  0.13709743244E+03  0.33282828844E+01 -0.10752485375E+03  0.17426525075E+03  0.00000000000E+00 0.  1.
          4    1    6    6  502    0 -0.33774126935E+03 -0.10497862619E+03 -0.31421533681E+03  0.47309719389E+03  0.00000000000E+00 0. -1.
          3    1    5    5  503    0  0.59375941421E+02  0.49259056953E+02  0.40406278647E+02  0.87089749486E+02  0.00000000000E+00 0. -1.
         -4    1    5    5    0  503  0.16386656102E+03  0.18056151105E+03 -0.11242055958E+02  0.24409238603E+03  0.00000000000E+00 0.  1.
         -3    1    6    6    0  502 -0.14827673226E+03 -0.10184390633E+03 -0.12052828439E+03  0.21652999313E+03  0.00000000000E+00 0.  1.
<mgrwt>
<rscale>  0 0.12555591E+04</rscale>
<asrwt>0</asrwt>
<pdfrwt beam="1">  1        3 0.16954850E+00 0.12555591E+04</pdfrwt>
<pdfrwt beam="2">  1       -3 0.55016585E-01 0.12555591E+04</pdfrwt>
<totfact> 0.19639636E+00</totfact>
</mgrwt>
</event>
<event>
12    1  0.1114484E-007  0.3103956E+04  0.7818608E-02  0.8214653E-01
          2   -1    0    0  501    0  0.00000000000E+00  0.00000000000E+00  0.31752282814E+04  0.31752282814E+04  0.00000000000E+00 0.  1.
         -2   -1    0    0    0  501 -0.00000000000E+00 -0.00000000000E+00 -0.75857072291E+03  0.75857072291E+03  0.00000000000E+00 0. -1.
         23    2    1    2    0    0 -0.12009554195E+03  0.14004250387E+04  0.84915003181E+03  0.16446831470E+04  0.91179214525E+02 0.  0.
        254    2    1    2    0    0  0.12009554195E+03 -0.14004250387E+04  0.15675075267E+04  0.22891158574E+04  0.89853120921E+03 0.  0.
        -24    2    4    4    0    0  0.43462182453E+03 -0.12087456016E+04  0.11400304142E+04  0.17193411935E+04  0.80639535070E+02 0.  0.
         24    2    4    4    0    0 -0.31452628258E+03 -0.19167943711E+03  0.42747711252E+03  0.56977466388E+03  0.78985421603E+02 0.  0.
         11    1    3    3    0    0 -0.83350024884E+02  0.11754591301E+04  0.74424764444E+03  0.13937560581E+04  0.00000000000E+00 0. -1.
        -11    1    3    3    0    0 -0.36745517064E+02  0.22496590865E+03  0.10490238737E+03  0.25092708892E+03  0.00000000000E+00 0.  1.
          2    1    6    6  502    0 -0.11940654164E+02 -0.25634786882E+02  0.15241760326E+02  0.32125266975E+02  0.00000000000E+00 0. -1.
          1    1    5    5  503    0  0.20875003128E+03 -0.66004032056E+03  0.57384525762E+03  0.89918195045E+03  0.00000000000E+00 0. -1.
         -2    1    5    5    0  503  0.22587179325E+03 -0.54870528104E+03  0.56618515654E+03  0.82015924303E+03  0.00000000000E+00 0.  1.
         -1    1    6    6    0  502 -0.30258562842E+03 -0.16604465023E+03  0.41223535219E+03  0.53764939690E+03  0.00000000000E+00 0.  1.
<mgrwt>
<rscale>  0 0.31039557E+04</rscale>
<asrwt>0</asrwt>
<pdfrwt beam="1">  1        2 0.48849665E+00 0.31039557E+04</pdfrwt>
<pdfrwt beam="2">  1       -2 0.11670319E+00 0.31039557E+04</pdfrwt>
<totfact> 0.64920589E-01</totfact>
</mgrwt>
</event>
<event>
12    1  0.1114484E-007  0.1417779E+04  0.7818608E-02  0.8941049E-01
         -1   -1    0    0    0  501 -0.00000000000E+00  0.00000000000E+00  0.72156262061E+03  0.72156262061E+03  0.00000000000E+00 0.  1.
          1   -1    0    0  501    0  0.00000000000E+00 -0.00000000000E+00 -0.69643898276E+03  0.69643898276E+03  0.00000000000E+00 0. -1.
         23    2    1    2    0    0  0.23140758386E+03 -0.20383494747E+03 -0.29259812908E+03  0.43480538715E+03  0.91344971787E+02 0.  0.
        254    2    1    2    0    0 -0.23140758386E+03  0.20383494747E+03  0.31772176693E+03  0.98319621622E+03  0.87785506932E+03 0.  0.
        -24    2    4    4    0    0  0.16486068127E+03  0.37112219127E+03  0.35265034218E+03  0.54378428865E+03  0.80177076916E+02 0.  0.
         24    2    4    4    0    0 -0.39626826513E+03 -0.16728724379E+03 -0.34928575253E+02  0.43941192757E+03  0.82760357881E+02 0.  0.
         13    1    3    3    0    0  0.18317654572E+02 -0.31141472790E+02 -0.35006123697E+01  0.36298513516E+02  0.00000000000E+00 0.  1.
        -13    1    3    3    0    0  0.21308992929E+03 -0.17269347469E+03 -0.28909751671E+03  0.39850687363E+03  0.00000000000E+00 0. -1.
          4    1    6    6  502    0 -0.34673557694E+03 -0.12457233304E+03 -0.75651722310E+01  0.36851195137E+03  0.00000000000E+00 0. -1.
          3    1    5    5  503    0  0.12929361719E+03  0.28844246618E+03  0.22671966803E+03  0.38899576297E+03  0.00000000000E+00 0. -1.
         -4    1    5    5    0  503  0.35567064077E+02  0.82679725087E+02  0.12593067416E+03  0.15478852568E+03  0.00000000000E+00 0.  1.
         -3    1    6    6    0  502 -0.49532688195E+02 -0.42714910747E+02 -0.27363403022E+02  0.70899976198E+02  0.00000000000E+00 0.  1.
<mgrwt>
<rscale>  0 0.14177790E+04</rscale>
<asrwt>0</asrwt>
<pdfrwt beam="1">  1        1 0.10714446E+00 0.14177790E+04</pdfrwt>
<pdfrwt beam="2">  1       -1 0.11100963E+00 0.14177790E+04</pdfrwt>
<totfact> 0.19974013E+01</totfact>
</mgrwt>
</event>
<event>
12    1  0.1138502E-007  0.1538256E+04  0.7818608E-02  0.8859404E-01
         -4   -1    0    0    0  501 -0.00000000000E+00  0.00000000000E+00  0.23790104331E+03  0.23790104331E+03  0.00000000000E+00 0.  1.
          4   -1    0    0  501    0  0.00000000000E+00 -0.00000000000E+00 -0.24865720212E+04  0.24865720212E+04  0.00000000000E+00 0. -1.
         23    2    1    2    0    0 -0.39711373422E+01 -0.44916249189E+03 -0.10914184266E+04  0.11837749985E+04  0.91467760421E+02 0.  0.
        254    2    1    2    0    0  0.39711373422E+01  0.44916249189E+03 -0.11572525513E+04  0.15406980659E+04  0.91255375127E+03 0.  0.
        -24    2    4    4    0    0 -0.19170876481E+03  0.50222067267E+03 -0.12008894535E+04  0.13183237453E+04  0.82850246219E+02 0.  0.
         24    2    4    4    0    0  0.19567990215E+03 -0.53058180789E+02  0.43636902224E+02  0.22237432067E+03  0.80251882240E+02 0.  0.
         11    1    3    3    0    0  0.60224195675E+01 -0.39583578486E+03 -0.10196652189E+04  0.10938187220E+04  0.00000000000E+00 0. -1.
        -11    1    3    3    0    0 -0.99935569097E+01 -0.53326707024E+02 -0.71753207722E+02  0.89956276491E+02  0.00000000000E+00 0.  1.
          2    1    6    6  502    0  0.20290818844E+03 -0.55030776853E+02  0.39859639342E+02  0.21398343438E+03  0.00000000000E+00 0. -1.
          3    1    5    5  503    0 -0.19701410353E+03  0.47857174680E+03 -0.11182740455E+04  0.12322265679E+04  0.00000000000E+00 0. -1.
         -4    1    5    5    0  503  0.53053387163E+01  0.23648925870E+02 -0.82615407962E+02  0.86097177343E+02  0.00000000000E+00 0.  1.
         -1    1    6    6    0  502 -0.72282862914E+01  0.19725960635E+01  0.37772628823E+01  0.83908862954E+01  0.00000000000E+00 0.  1.
<mgrwt>
<rscale>  0 0.15382563E+04</rscale>
<asrwt>0</asrwt>
<pdfrwt beam="1">  1        4 0.38254953E+00 0.15382563E+04</pdfrwt>
<pdfrwt beam="2">  1       -4 0.36600162E-01 0.15382563E+04</pdfrwt>
<totfact> 0.12798439E-01</totfact>
</mgrwt>
</event>
<event>
12    1  0.1114484E-007  0.1557750E+04  0.7818608E-02  0.8846932E-01
          2   -1    0    0  501    0  0.00000000000E+00  0.00000000000E+00  0.20377196762E+04  0.20377196762E+04  0.00000000000E+00 0. -1.
         -2   -1    0    0    0  501 -0.00000000000E+00 -0.00000000000E+00 -0.29770853045E+03  0.29770853045E+03  0.00000000000E+00 0.  1.
         23    2    1    2    0    0 -0.48712121966E+03  0.13725474622E+03  0.39652429954E+03  0.64945637473E+03  0.91848323611E+02 0.  0.
        254    2    1    2    0    0  0.48712121966E+03 -0.13725474622E+03  0.13434868462E+04  0.16859718319E+04  0.88397859933E+03 0.  0.
        -24    2    4    4    0    0  0.22626983349E+03  0.44739507493E+02  0.13353171694E+04  0.13574569155E+04  0.80110382659E+02 0.  0.
         24    2    4    4    0    0  0.26085138618E+03 -0.18199425372E+03  0.81696768320E+01  0.32851491646E+03  0.81792130808E+02 0.  0.
         13    1    3    3    0    0 -0.28045480288E+03  0.40632491013E+02  0.25329070638E+03  0.38008167244E+03  0.00000000000E+00 0.  1.
        -13    1    3    3    0    0 -0.20666641678E+03  0.96622255212E+02  0.14323359316E+03  0.26937470229E+03  0.00000000000E+00 0. -1.
          4    1    6    6  502    0  0.20697756457E+03 -0.11232182870E+03  0.31025533330E+02  0.23752576525E+03  0.00000000000E+00 0. -1.
          1    1    5    5  503    0  0.46197038224E+02  0.23615364899E+02  0.15904553910E+03  0.16729415802E+03  0.00000000000E+00 0. -1.
         -2    1    5    5    0  503  0.18007279526E+03  0.21124142594E+02  0.11762716303E+04  0.11901627574E+04  0.00000000000E+00 0.  1.
         -3    1    6    6    0  502  0.53873821602E+02 -0.69672425018E+02 -0.22855856498E+02  0.90989151212E+02  0.00000000000E+00 0.  1.
<mgrwt>
<rscale>  0 0.15577503E+04</rscale>
<asrwt>0</asrwt>
<pdfrwt beam="1">  1        2 0.31349533E+00 0.15577503E+04</pdfrwt>
<pdfrwt beam="2">  1       -2 0.45801314E-01 0.15577503E+04</pdfrwt>
<totfact> 0.27691700E+01</totfact>
</mgrwt>
</event>
<event>
12    1  0.1483943E-007  0.2087355E+04  0.7818608E-02  0.8566834E-01
         -1   -1    0    0    0  501 -0.00000000000E+00  0.00000000000E+00  0.57938578836E+03  0.57938578836E+03  0.00000000000E+00 0.  1.
          1   -1    0    0  501    0  0.00000000000E+00 -0.00000000000E+00 -0.18800305099E+04  0.18800305099E+04  0.00000000000E+00 0. -1.
         23    2    1    2    0    0 -0.48762335066E+03 -0.23346032813E+03  0.22772861400E+03  0.59434168131E+03  0.95401549211E+02 0.  0.
        254    2    1    2    0    0  0.48762335066E+03  0.23346032813E+03 -0.15283733355E+04  0.18650746169E+04  0.92211605400E+03 0.  0.
        -24    2    4    4    0    0  0.99642166116E+02  0.24765952291E+03  0.74679596612E+01  0.27906073673E+03  0.80964954204E+02 0.  0.
         24    2    4    4    0    0  0.38798118454E+03 -0.14199194780E+02 -0.15358412952E+04  0.15860138802E+04  0.76814891062E+02 0.  0.
         11    1    3    3    0    0 -0.32985634711E+03 -0.17487477456E+03  0.11088575210E+03  0.38946379360E+03  0.00000000000E+00 0.  1.
        -11    1    3    3    0    0 -0.15776700355E+03 -0.58585553570E+02  0.11684286191E+03  0.20487788772E+03  0.00000000000E+00 0. -1.
          4    1    6    6  502    0  0.18404303365E+02  0.14062720913E+02 -0.59364918329E+02  0.63723402530E+02  0.00000000000E+00 0. -1.
          1    1    5    5  503    0  0.24411420559E+02  0.15586041948E+02 -0.17475058708E+02  0.33826318661E+02  0.00000000000E+00 0. -1.
         -2    1    5    5    0  503  0.75230745556E+02  0.23207348096E+03  0.24943018369E+02  0.24523441807E+03  0.00000000000E+00 0.  1.
         -3    1    6    6    0  502  0.36957688118E+03 -0.28261915692E+02 -0.14764763768E+04  0.15222904776E+04  0.00000000000E+00 0.  1.
<mgrwt>
<rscale>  0 0.20873552E+04</rscale>
<asrwt>0</asrwt>
<pdfrwt beam="1">  1        1 0.28923546E+00 0.20873552E+04</pdfrwt>
<pdfrwt beam="2">  1       -1 0.89136275E-01 0.20873552E+04</pdfrwt>
<totfact> 0.40831155E+00</totfact>
</mgrwt>
</event>
<event>
12    1  0.1114484E-007  0.1810182E+04  0.7818608E-02  0.8700904E-01
         -2   -1    0    0    0  501 -0.00000000000E+00  0.00000000000E+00  0.32218114281E+03  0.32218114281E+03  0.00000000000E+00 0.  1.
          2   -1    0    0  501    0  0.00000000000E+00 -0.00000000000E+00 -0.25426363344E+04  0.25426363344E+04  0.00000000000E+00 0. -1.
         23    2    1    2    0    0 -0.28989722811E+03 -0.14606556353E+03 -0.17749570474E+04  0.18064705042E+04  0.86530979754E+02 0.  0.
        254    2    1    2    0    0  0.28989722811E+03  0.14606556353E+03 -0.44549814420E+03  0.10583469731E+04  0.90346785623E+03 0.  0.
        -24    2    4    4    0    0  0.33096966541E+03  0.34228048669E+03 -0.61582474507E+03  0.78263919282E+03  0.81161188488E+02 0.  0.
         24    2    4    4    0    0 -0.41072437305E+02 -0.19621492315E+03  0.17032660086E+03  0.27570778027E+03  0.82561419357E+02 0.  0.
         11    1    3    3    0    0 -0.25317156129E+03 -0.10847321724E+03 -0.16085896562E+04  0.16319996814E+04  0.00000000000E+00 0. -1.
        -11    1    3    3    0    0 -0.36725666820E+02 -0.37592346293E+02 -0.16636739126E+03  0.17447082271E+03  0.00000000000E+00 0.  1.
          2    1    6    6  502    0 -0.42904815674E+02 -0.46800935475E+02  0.75869602181E+02  0.98931022963E+02  0.00000000000E+00 0. -1.
          1    1    5    5  503    0  0.11262330433E+02  0.37477846138E+01 -0.17668501391E+01  0.12000322317E+02  0.00000000000E+00 0. -1.
         -2    1    5    5    0  503  0.31970733498E+03  0.33853270207E+03 -0.61405789493E+03  0.77063887050E+03  0.00000000000E+00 0.  1.
         -1    1    6    6    0  502  0.18323783690E+01 -0.14941398768E+03  0.94456998680E+02  0.17677675731E+03  0.00000000000E+00 0.  1.
<mgrwt>
<rscale>  0 0.18101817E+04</rscale>
<asrwt>0</asrwt>
<pdfrwt beam="1">  1        2 0.39117482E+00 0.18101817E+04</pdfrwt>
<pdfrwt beam="2">  1       -2 0.49566330E-01 0.18101817E+04</pdfrwt>
<totfact> 0.11962958E+01</totfact>
</mgrwt>
</event>
<event>
12    1  0.1114484E-007  0.1925139E+04  0.7818608E-02  0.8642443E-01
         -2   -1    0    0    0  501 -0.00000000000E+00  0.00000000000E+00  0.48810978160E+03  0.48810978160E+03  0.00000000000E+00 0.  1.
          2   -1    0    0  501    0  0.00000000000E+00 -0.00000000000E+00 -0.18982211570E+04  0.18982211570E+04  0.00000000000E+00 0. -1.
         23    2    1    2    0    0 -0.34885829445E+03  0.62439401933E+03 -0.83896502013E+03  0.11062542411E+04  0.91466605920E+02 0.  0.
        254    2    1    2    0    0  0.34885829445E+03 -0.62439401933E+03 -0.57114635523E+03  0.12800766974E+04  0.89488445693E+03 0.  0.
        -24    2    4    4    0    0 -0.29210222897E+03 -0.19386535288E+03 -0.10402426211E+03  0.37414288427E+03  0.79084534045E+02 0.  0.
         24    2    4    4    0    0  0.64096052342E+03 -0.43052866645E+03 -0.46712209312E+03  0.90593381317E+03  0.79546833649E+02 0.  0.
         13    1    3    3    0    0 -0.34047214558E+03  0.62519409672E+03 -0.83384133698E+03  0.10963942337E+04  0.00000000000E+00 0. -1.
        -13    1    3    3    0    0 -0.83861488743E+01 -0.80007738463E+00 -0.51236831498E+01  0.98600073927E+01  0.00000000000E+00 0.  1.
          2    1    6    6  502    0  0.31011558401E+03 -0.19092740577E+03 -0.26346615718E+03  0.44948789272E+03  0.00000000000E+00 0. -1.
          1    1    5    5  503    0 -0.10793628351E+03 -0.67495953089E+02  0.10550437891E+01  0.12730694442E+03  0.00000000000E+00 0. -1.
         -2    1    5    5    0  503 -0.18416594546E+03 -0.12636939979E+03 -0.10507930590E+03  0.24683593985E+03  0.00000000000E+00 0.  1.
         -1    1    6    6    0  502  0.33084493941E+03 -0.23960126068E+03 -0.20365593594E+03  0.45644592045E+03  0.00000000000E+00 0.  1.
<mgrwt>
<rscale>  0 0.19251393E+04</rscale>
<asrwt>0</asrwt>
<pdfrwt beam="1">  1        2 0.29203402E+00 0.19251393E+04</pdfrwt>
<pdfrwt beam="2">  1       -2 0.75093813E-01 0.19251393E+04</pdfrwt>
<totfact> 0.11326532E+01</totfact>
</mgrwt>
</event>
<event>
12    1  0.1114484E-007  0.3463341E+04  0.7818608E-02  0.8122533E-01
         -2   -1    0    0    0  501 -0.00000000000E+00  0.00000000000E+00  0.13979972638E+04  0.13979972638E+04  0.00000000000E+00 0.  1.
          2   -1    0    0  501    0  0.00000000000E+00 -0.00000000000E+00 -0.21449844745E+04  0.21449844745E+04  0.00000000000E+00 0. -1.
         23    2    1    2    0    0 -0.74069569979E+03 -0.13104228016E+04 -0.94302901747E+03  0.17786172465E+04  0.91310147916E+02 0.  0.
        254    2    1    2    0    0  0.74069569979E+03  0.13104228016E+04  0.19604180680E+03  0.17643644918E+04  0.89928395484E+03 0.  0.
        -24    2    4    4    0    0  0.37515478074E+03  0.39560533253E+02  0.21044109174E+03  0.43942113288E+03  0.80618444700E+02 0.  0.
         24    2    4    4    0    0  0.36554091905E+03  0.12708622683E+04 -0.14399284942E+02  0.13249433590E+04  0.80972195584E+02 0.  0.
         13    1    3    3    0    0 -0.32658913585E+03 -0.48736322237E+03 -0.36817844584E+03  0.69263175076E+03  0.00000000000E+00 0.  1.
        -13    1    3    3    0    0 -0.41410656394E+03 -0.82305957922E+03 -0.57485057163E+03  0.10859854957E+04  0.00000000000E+00 0. -1.
          2    1    6    6  502    0  0.25382349602E+03  0.88018270208E+03  0.27402446089E+02  0.91645995560E+03  0.00000000000E+00 0. -1.
          3    1    5    5  503    0  0.14653967500E+03  0.14061764179E+02  0.38309523340E+02  0.15211584118E+03  0.00000000000E+00 0. -1.
         -4    1    5    5    0  503  0.22861510574E+03  0.25498769074E+02  0.17213156840E+03  0.28730529170E+03  0.00000000000E+00 0.  1.
         -1    1    6    6    0  502  0.11171742303E+03  0.39067956627E+03 -0.41801731031E+02  0.40848340336E+03  0.00000000000E+00 0.  1.
<mgrwt>
<rscale>  0 0.34633408E+04</rscale>
<asrwt>0</asrwt>
<pdfrwt beam="1">  1        2 0.32999761E+00 0.34633408E+04</pdfrwt>
<pdfrwt beam="2">  1       -2 0.21507650E+00 0.34633408E+04</pdfrwt>
<totfact> 0.48547900E-01</totfact>
</mgrwt>
</event>
<event>
12    1  0.1114484E-007  0.1913569E+04  0.7818608E-02  0.8648131E-01
         -2   -1    0    0    0  501 -0.00000000000E+00  0.00000000000E+00  0.14349431814E+04  0.14349431814E+04  0.00000000000E+00 0.  1.
          2   -1    0    0  501    0  0.00000000000E+00 -0.00000000000E+00 -0.63796036785E+03  0.63796036785E+03  0.00000000000E+00 0. -1.
         23    2    1    2    0    0  0.42724650383E+03  0.24418315018E+03  0.91549187727E+03  0.10439414898E+04  0.97588272104E+02 0.  0.
        254    2    1    2    0    0 -0.42724650383E+03 -0.24418315018E+03 -0.11850906369E+03  0.10289620595E+04  0.89585352366E+03 0.  0.
        -24    2    4    4    0    0  0.14049650252E+03 -0.18762802399E+03 -0.33240482632E+03  0.41408154541E+03  0.77633852688E+02 0.  0.
         24    2    4    4    0    0 -0.56774300635E+03 -0.56555126190E+02  0.21389576263E+03  0.61488051409E+03  0.82438133030E+02 0.  0.
         11    1    3    3    0    0  0.25353021350E+03  0.19106291873E+03  0.53026448048E+03  0.61803157470E+03  0.00000000000E+00 0.  1.
        -11    1    3    3    0    0  0.17371629033E+03  0.53120231444E+02  0.38522739679E+03  0.42590991507E+03  0.00000000000E+00 0. -1.
          2    1    6    6  502    0 -0.73699498779E+01  0.25126249755E+01  0.15767171075E+02  0.17585025709E+02  0.00000000000E+00 0. -1.
          1    1    5    5  503    0  0.83562764517E+02 -0.13394753080E+03 -0.16013619151E+03  0.22487391235E+03  0.00000000000E+00 0. -1.
         -2    1    5    5    0  503  0.56933738004E+02 -0.53680493186E+02 -0.17226863481E+03  0.18920763306E+03  0.00000000000E+00 0.  1.
         -1    1    6    6    0  502 -0.56037305647E+03 -0.59067751166E+02  0.19812859155E+03  0.59729548838E+03  0.00000000000E+00 0.  1.
<mgrwt>
<rscale>  0 0.19135693E+04</rscale>
<asrwt>0</asrwt>
<pdfrwt beam="1">  1        2 0.98147749E-01 0.19135693E+04</pdfrwt>
<pdfrwt beam="2">  1       -2 0.22076049E+00 0.19135693E+04</pdfrwt>
<totfact> 0.42051753E+00</totfact>
</mgrwt>
</event>
<event>
12    1  0.1114484E-007  0.2589554E+04  0.7818608E-02  0.8371758E-01
          2   -1    0    0  501    0  0.00000000000E+00  0.00000000000E+00  0.17201443800E+04  0.17201443800E+04  0.00000000000E+00 0. -1.
         -2   -1    0    0    0  501 -0.00000000000E+00 -0.00000000000E+00 -0.97459716165E+03  0.97459716165E+03  0.00000000000E+00 0.  1.
         23    2    1    2    0    0  0.44360939816E+03  0.68217494521E+03 -0.48852406762E+03  0.95452665196E+03  0.10155496364E+03 0.  0.
        254    2    1    2    0    0 -0.44360939816E+03 -0.68217494521E+03  0.12340712860E+04  0.17402148897E+04  0.91829405389E+03 0.  0.
        -24    2    4    4    0    0 -0.57672659857E+03 -0.25505864959E+03  0.30334860079E+03  0.70440837321E+03  0.80636830354E+02 0.  0.
         24    2    4    4    0    0  0.13311720041E+03 -0.42711629562E+03  0.93072268519E+03  0.10358065165E+04  0.80634383745E+02 0.  0.
         11    1    3    3    0    0  0.35042780061E+02  0.68057245734E+02 -0.82530499976E+02  0.11256584099E+03  0.00000000000E+00 0. -1.
        -11    1    3    3    0    0  0.40856661810E+03  0.61411769948E+03 -0.40599356765E+03  0.84196081097E+03  0.00000000000E+00 0.  1.
          2    1    6    6  502    0  0.12056854047E+03 -0.26552081040E+03  0.62880835334E+03  0.69313636388E+03  0.00000000000E+00 0. -1.
          3    1    5    5  503    0 -0.20716949757E+03 -0.69753971478E+02  0.69185940195E+02  0.22928478270E+03  0.00000000000E+00 0. -1.
         -4    1    5    5    0  503 -0.36955710100E+03 -0.18530467811E+03  0.23416266060E+03  0.47512359050E+03  0.00000000000E+00 0.  1.
         -1    1    6    6    0  502  0.12548659937E+02 -0.16159548522E+03  0.30191433185E+03  0.34267015260E+03  0.00000000000E+00 0.  1.
<mgrwt>
<rscale>  0 0.25895543E+04</rscale>
<asrwt>0</asrwt>
<pdfrwt beam="1">  1        2 0.26463760E+00 0.25895543E+04</pdfrwt>
<pdfrwt beam="2">  1       -2 0.14993802E+00 0.25895543E+04</pdfrwt>
<totfact> 0.25382574E+00</totfact>
</mgrwt>
</event>
<event>
12    1  0.1114484E-007  0.1186871E+04  0.7818608E-02  0.9124426E-01
         -2   -1    0    0    0  501 -0.00000000000E+00  0.00000000000E+00  0.18773762946E+03  0.18773762946E+03  0.00000000000E+00 0.  1.
          2   -1    0    0  501    0  0.00000000000E+00 -0.00000000000E+00 -0.18758410893E+04  0.18758410893E+04  0.00000000000E+00 0. -1.
         23    2    1    2    0    0 -0.17753468611E+03  0.14267111463E+03 -0.48870078140E+03  0.54808316342E+03  0.98453484230E+02 0.  0.
        254    2    1    2    0    0  0.17753468611E+03 -0.14267111463E+03 -0.11994026784E+04  0.15154955553E+04  0.89793450848E+03 0.  0.
        -24    2    4    4    0    0  0.68199418348E+02 -0.38757103182E+03 -0.11682500701E+04  0.12354032355E+04  0.80934929423E+02 0.  0.
         24    2    4    4    0    0  0.10933526776E+03  0.24489991719E+03 -0.31152608339E+02  0.28009231978E+03  0.74505384884E+02 0.  0.
         13    1    3    3    0    0 -0.17704344656E+03  0.10154137210E+03 -0.37146711287E+03  0.42384295224E+03  0.00000000000E+00 0. -1.
        -13    1    3    3    0    0 -0.49123955369E+00  0.41129742531E+02 -0.11723366853E+03  0.12424021118E+03  0.00000000000E+00 0.  1.
          4    1    6    6  502    0  0.74614616594E+02  0.96561393904E+02  0.95422868789E+01  0.12240301892E+03  0.00000000000E+00 0. -1.
          1    1    5    5  503    0 -0.16697848759E+02 -0.59633054262E+02 -0.14983707026E+03  0.16212978424E+03  0.00000000000E+00 0. -1.
         -2    1    5    5    0  503  0.84897267107E+02 -0.32793797756E+03 -0.10184129998E+04  0.10732734513E+04  0.00000000000E+00 0.  1.
         -3    1    6    6    0  502  0.34720651168E+02  0.14833852329E+03 -0.40694895218E+02  0.15768930086E+03  0.00000000000E+00 0.  1.
<mgrwt>
<rscale>  0 0.11868714E+04</rscale>
<asrwt>0</asrwt>
<pdfrwt beam="1">  1        2 0.28859095E+00 0.11868714E+04</pdfrwt>
<pdfrwt beam="2">  1       -2 0.28882711E-01 0.11868714E+04</pdfrwt>
<totfact> 0.85176610E+01</totfact>
</mgrwt>
</event>
<event>
12    1  0.1114484E-007  0.1683140E+04  0.7818608E-02  0.8771039E-01
          2   -1    0    0  501    0  0.00000000000E+00  0.00000000000E+00  0.43613570683E+04  0.43613570683E+04  0.00000000000E+00 0. -1.
         -2   -1    0    0    0  501 -0.00000000000E+00 -0.00000000000E+00 -0.16238974843E+03  0.16238974843E+03  0.00000000000E+00 0.  1.
         23    2    1    2    0    0 -0.46046220414E+03  0.35730836132E+03  0.18830215322E+04  0.19732558174E+04  0.90960011794E+02 0.  0.
        254    2    1    2    0    0  0.46046220414E+03 -0.35730836132E+03  0.23159457877E+04  0.25504909993E+04  0.89537966227E+03 0.  0.
        -24    2    4    4    0    0  0.46675644395E+03  0.62344299724E+02  0.52723203620E+03  0.71149105878E+03  0.80607177411E+02 0.  0.
         24    2    4    4    0    0 -0.62942398067E+01 -0.41965266104E+03  0.17887137515E+04  0.18389999406E+04  0.79220724431E+02 0.  0.
         13    1    3    3    0    0 -0.83236706737E+02  0.31134272443E+02  0.35304118682E+03  0.36405462758E+03  0.00000000000E+00 0.  1.
        -13    1    3    3    0    0 -0.37722549740E+03  0.32617408888E+03  0.15299803454E+04  0.16092011898E+04  0.00000000000E+00 0. -1.
          4    1    6    6  502    0  0.52453785799E+01 -0.39216722140E+03  0.15691641012E+04  0.16174358163E+04  0.00000000000E+00 0. -1.
          3    1    5    5  503    0  0.38359238590E+03  0.28253070243E+02  0.45769911403E+03  0.59785435809E+03  0.00000000000E+00 0. -1.
         -4    1    5    5    0  503  0.83164058049E+02  0.34091229481E+02  0.69532922168E+02  0.11363670069E+03  0.00000000000E+00 0.  1.
         -3    1    6    6    0  502 -0.11539618387E+02 -0.27485439649E+02  0.21954965034E+03  0.22156412424E+03  0.00000000000E+00 0.  1.
<mgrwt>
<rscale>  0 0.16831395E+04</rscale>
<asrwt>0</asrwt>
<pdfrwt beam="1">  1        2 0.67097792E+00 0.16831395E+04</pdfrwt>
<pdfrwt beam="2">  1       -2 0.24983042E-01 0.16831395E+04</pdfrwt>
<totfact> 0.23379793E+00</totfact>
</mgrwt>
</event>
<event>
12    1  0.1114484E-007  0.1740389E+04  0.7818608E-02  0.8738658E-01
          4   -1    0    0  501    0  0.00000000000E+00  0.00000000000E+00  0.10146692972E+04  0.10146692972E+04  0.00000000000E+00 0. -1.
         -4   -1    0    0    0  501 -0.00000000000E+00 -0.00000000000E+00 -0.74629087397E+03  0.74629087397E+03  0.00000000000E+00 0.  1.
         23    2    1    2    0    0  0.61773118739E+02 -0.61565677406E+03 -0.38429843569E+02  0.62675124630E+03  0.92147111854E+02 0.  0.
        254    2    1    2    0    0 -0.61773118739E+02  0.61565677406E+03  0.30680826678E+03  0.11342089249E+04  0.89969405412E+03 0.  0.
        -24    2    4    4    0    0  0.37335636572E+03  0.10840911206E+03  0.22597596480E+03  0.45736017722E+03  0.83460671201E+02 0.  0.
         24    2    4    4    0    0 -0.43512948446E+03  0.50724766200E+03  0.80832301975E+02  0.67684874764E+03  0.70374052645E+02 0.  0.
         13    1    3    3    0    0  0.43098761080E+02 -0.45645671184E+03  0.12213892105E+02  0.45864955265E+03  0.00000000000E+00 0. -1.
        -13    1    3    3    0    0  0.18674357659E+02 -0.15920006222E+03 -0.50643735674E+02  0.16810169365E+03  0.00000000000E+00 0.  1.
          4    1    6    6  502    0 -0.16426662984E+03  0.21788775243E+03  0.63250869297E+02  0.28010582072E+03  0.00000000000E+00 0. -1.
          3    1    5    5  503    0  0.21654763255E+03  0.21941635998E+02  0.13931166494E+03  0.25842223693E+03  0.00000000000E+00 0. -1.
         -4    1    5    5    0  503  0.15680873318E+03  0.86467476062E+02  0.86664299860E+02  0.19893794029E+03  0.00000000000E+00 0.  1.
         -3    1    6    6    0  502 -0.27086285462E+03  0.28935990957E+03  0.17581432678E+02  0.39674292691E+03  0.00000000000E+00 0.  1.
<mgrwt>
<rscale>  0 0.17403890E+04</rscale>
<asrwt>0</asrwt>
<pdfrwt beam="1">  1        4 0.15610297E+00 0.17403890E+04</pdfrwt>
<pdfrwt beam="2">  1       -4 0.11481398E+00 0.17403890E+04</pdfrwt>
<totfact> 0.29992862E-01</totfact>
</mgrwt>
</event>
<event>
12    1  0.1114484E-007  0.2116367E+04  0.7818608E-02  0.8554067E-01
         -1   -1    0    0    0  501 -0.00000000000E+00  0.00000000000E+00  0.12283787369E+04  0.12283787369E+04  0.00000000000E+00 0.  1.
          1   -1    0    0  501    0  0.00000000000E+00 -0.00000000000E+00 -0.91156961753E+03  0.91156961753E+03  0.00000000000E+00 0. -1.
         23    2    1    2    0    0 -0.14426807885E+02  0.21053558624E+03 -0.71899092895E+03  0.75484413762E+03  0.91150152647E+02 0.  0.
        254    2    1    2    0    0  0.14426807885E+02 -0.21053558624E+03  0.10358000484E+04  0.13851042168E+04  0.89504110826E+03 0.  0.
        -24    2    4    4    0    0 -0.19970849771E+03  0.16934814276E+03  0.87025418403E+03  0.91254809130E+03  0.82700644522E+02 0.  0.
         24    2    4    4    0    0  0.21413530559E+03 -0.37988372901E+03  0.16554586433E+03  0.47255612554E+03  0.75751448335E+02 0.  0.
         13    1    3    3    0    0 -0.43087197859E+00  0.12362241908E+03 -0.26526777874E+03  0.29265967024E+03  0.00000000000E+00 0. -1.
        -13    1    3    3    0    0 -0.13995935906E+02  0.86913167166E+02 -0.45372315021E+03  0.46218446738E+03  0.00000000000E+00 0.  1.
          2    1    6    6  502    0  0.15379755237E+03 -0.25517070660E+03  0.75603801615E+02  0.30737877520E+03  0.00000000000E+00 0. -1.
          1    1    5    5  503    0 -0.67225538839E+02  0.46664495534E+02  0.41110813954E+03  0.41917389066E+03  0.00000000000E+00 0. -1.
         -2    1    5    5    0  503 -0.13248295887E+03  0.12268364723E+03  0.45914604449E+03  0.49337420064E+03  0.00000000000E+00 0.  1.
         -1    1    6    6    0  502  0.60337753217E+02 -0.12471302241E+03  0.89942062718E+02  0.16517735035E+03  0.00000000000E+00 0.  1.
<mgrwt>
<rscale>  0 0.21163674E+04</rscale>
<asrwt>0</asrwt>
<pdfrwt beam="1">  1        1 0.14024148E+00 0.21163674E+04</pdfrwt>
<pdfrwt beam="2">  1       -1 0.18898134E+00 0.21163674E+04</pdfrwt>
<totfact> 0.29370948E+00</totfact>
</mgrwt>
</event>
<event>
12    1  0.1114484E-007  0.1691959E+04  0.7818608E-02  0.8765964E-01
         -1   -1    0    0    0  501 -0.00000000000E+00  0.00000000000E+00  0.45625950764E+03  0.45625950764E+03  0.00000000000E+00 0.  1.
          1   -1    0    0  501    0  0.00000000000E+00 -0.00000000000E+00 -0.15685835991E+04  0.15685835991E+04  0.00000000000E+00 0. -1.
         23    2    1    2    0    0  0.57509671803E+03  0.10554763200E+03 -0.23032901428E+03  0.63501273409E+03  0.91176641344E+02 0.  0.
        254    2    1    2    0    0 -0.57509671803E+03 -0.10554763200E+03 -0.88199507714E+03  0.13898303726E+04  0.90101976161E+03 0.  0.
        -24    2    4    4    0    0 -0.61785694501E+03 -0.26616431170E+03 -0.97141786745E+03  0.11843830646E+04  0.80746054329E+02 0.  0.
         24    2    4    4    0    0  0.42760226979E+02  0.16061667970E+03  0.89422790308E+02  0.20544730797E+03  0.81154211931E+02 0.  0.
         13    1    3    3    0    0  0.15898725835E+03  0.69979359215E+02 -0.78814928834E+02  0.19075075895E+03  0.00000000000E+00 0.  1.
        -13    1    3    3    0    0  0.41610945968E+03  0.35568272782E+02 -0.15151408544E+03  0.44426197513E+03  0.00000000000E+00 0. -1.
          2    1    6    6  502    0  0.19113934921E+02 -0.30127496890E+01  0.12986577891E+02  0.23303870369E+02  0.00000000000E+00 0. -1.
          3    1    5    5  503    0 -0.14485049402E+02  0.40967158143E+01 -0.12104916023E+02  0.19316540284E+02  0.00000000000E+00 0. -1.
         -2    1    5    5    0  503 -0.60337189561E+03 -0.27026102751E+03 -0.95931295143E+03  0.11650665244E+04  0.00000000000E+00 0.  1.
         -1    1    6    6    0  502  0.23646292058E+02  0.16362942939E+03  0.76436212417E+02  0.18214343760E+03  0.00000000000E+00 0.  1.
<mgrwt>
<rscale>  0 0.16919588E+04</rscale>
<asrwt>0</asrwt>
<pdfrwt beam="1">  1        1 0.24132055E+00 0.16919588E+04</pdfrwt>
<pdfrwt beam="2">  1       -1 0.70193771E-01 0.16919588E+04</pdfrwt>
<totfact> 0.11457072E+01</totfact>
</mgrwt>
</event>
<event>
12    1  0.1114484E-007  0.1139318E+04  0.7818608E-02  0.9167695E-01
          2   -1    0    0  501    0  0.00000000000E+00  0.00000000000E+00  0.17103367527E+04  0.17103367527E+04  0.00000000000E+00 0. -1.
         -2   -1    0    0    0  501 -0.00000000000E+00 -0.00000000000E+00 -0.18973532968E+03  0.18973532968E+03  0.00000000000E+00 0.  1.
         23    2    1    2    0    0 -0.23621810141E+03  0.14848802678E+03  0.40654386328E+03  0.50131118423E+03  0.90483728581E+02 0.  0.
        254    2    1    2    0    0  0.23621810141E+03 -0.14848802678E+03  0.11140575598E+04  0.13987608982E+04  0.79847361776E+03 0.  0.
        -24    2    4    4    0    0  0.35238605365E+03 -0.34776474166E+03  0.38940038473E+03  0.63494215141E+03  0.80016433690E+02 0.  0.
         24    2    4    4    0    0 -0.11616795224E+03  0.19927671488E+03  0.72465717507E+03  0.76381874679E+03  0.71308164632E+02 0.  0.
         13    1    3    3    0    0 -0.23525234826E+03  0.15267599851E+03  0.36879172988E+03  0.46331519284E+03  0.00000000000E+00 0. -1.
        -13    1    3    3    0    0 -0.96575315411E+00 -0.41879717348E+01  0.37752133396E+02  0.37995991398E+02  0.00000000000E+00 0.  1.
          4    1    6    6  502    0 -0.37865564647E+02  0.11954864084E+03  0.31094105564E+03  0.33527603343E+03  0.00000000000E+00 0. -1.
          3    1    5    5  503    0  0.89136985000E+02 -0.11287020131E+03  0.15452836143E+03  0.21110210545E+03  0.00000000000E+00 0. -1.
         -2    1    5    5    0  503  0.26324906865E+03 -0.23489454036E+03  0.23487202330E+03  0.42384004596E+03  0.00000000000E+00 0.  1.
         -3    1    6    6    0  502 -0.78302387589E+02  0.79728074044E+02  0.41371611943E+03  0.42854271335E+03  0.00000000000E+00 0.  1.
<mgrwt>
<rscale>  0 0.11393179E+04</rscale>
<asrwt>0</asrwt>
<pdfrwt beam="1">  1        2 0.26312872E+00 0.11393179E+04</pdfrwt>
<pdfrwt beam="2">  1       -2 0.29190052E-01 0.11393179E+04</pdfrwt>
<totfact> 0.10344068E+02</totfact>
</mgrwt>
</event>
<event>
12    1  0.1114484E-007  0.1701224E+04  0.7818608E-02  0.8760667E-01
          1   -1    0    0  501    0  0.00000000000E+00  0.00000000000E+00  0.32659137391E+03  0.32659137391E+03  0.00000000000E+00 0. -1.
         -1   -1    0    0    0  501 -0.00000000000E+00 -0.00000000000E+00 -0.22154313869E+04  0.22154313869E+04  0.00000000000E+00 0.  1.
         23    2    1    2    0    0 -0.54620081921E+02  0.21307025780E+03  0.16567202231E+03  0.28894946029E+03  0.87534470464E+02 0.  0.
        254    2    1    2    0    0  0.54620081921E+02 -0.21307025780E+03 -0.20545120353E+04  0.22530733005E+04  0.89829689204E+03 0.  0.
        -24    2    4    4    0    0  0.27901732121E+03 -0.46164547928E+03 -0.94283714423E+03  0.10892214688E+04  0.80587303219E+02 0.  0.
         24    2    4    4    0    0 -0.22439723929E+03  0.24857522148E+03 -0.11116748911E+04  0.11638518317E+04  0.81155782784E+02 0.  0.
         13    1    3    3    0    0 -0.74892700320E+02  0.14558654346E+03  0.95662108477E+02  0.18961961184E+03  0.00000000000E+00 0.  1.
        -13    1    3    3    0    0  0.20272618399E+02  0.67483714339E+02  0.70009913835E+02  0.99329848449E+02  0.00000000000E+00 0. -1.
          4    1    6    6  502    0 -0.93066416840E+02  0.89822966822E+02 -0.30523558872E+03  0.33150910687E+03  0.00000000000E+00 0. -1.
          3    1    5    5  503    0  0.33524764327E+02 -0.92872765786E+02 -0.12705148699E+03  0.16090786430E+03  0.00000000000E+00 0. -1.
         -4    1    5    5    0  503  0.24549255688E+03 -0.36877271350E+03 -0.81578565724E+03  0.92831360448E+03  0.00000000000E+00 0.  1.
         -3    1    6    6    0  502 -0.13133082245E+03  0.15875225466E+03 -0.80643930234E+03  0.83234272487E+03  0.00000000000E+00 0.  1.
<mgrwt>
<rscale>  0 0.17012240E+04</rscale>
<asrwt>0</asrwt>
<pdfrwt beam="1">  1        1 0.50244827E-01 0.17012240E+04</pdfrwt>
<pdfrwt beam="2">  1       -1 0.34083559E+00 0.17012240E+04</pdfrwt>
<totfact> 0.13373858E+00</totfact>
</mgrwt>
</event>
<event>
12    1  0.1114484E-007  0.1520214E+04  0.7818608E-02  0.8871121E-01
          2   -1    0    0  501    0  0.00000000000E+00  0.00000000000E+00  0.20730356480E+04  0.20730356480E+04  0.00000000000E+00 0. -1.
         -2   -1    0    0    0  501 -0.00000000000E+00 -0.00000000000E+00 -0.27870349376E+03  0.27870349376E+03  0.00000000000E+00 0.  1.
         23    2    1    2    0    0  0.23136534103E+01 -0.21795048182E+03 -0.84062640322E+02  0.25714692377E+03  0.10747207724E+03 0.  0.
        254    2    1    2    0    0 -0.23136534103E+01  0.21795048182E+03  0.18783947945E+04  0.20945922179E+04  0.90080063825E+03 0.  0.
        -24    2    4    4    0    0  0.22947894605E+03 -0.28063750555E+03  0.71453194299E+03  0.80510918111E+03  0.78910707441E+02 0.  0.
         24    2    4    4    0    0 -0.23179259946E+03  0.49858798737E+03  0.11638628515E+04  0.12894830368E+04  0.76628811842E+02 0.  0.
         13    1    3    3    0    0  0.10929217112E+02 -0.99215870017E+01  0.19619622504E+02  0.24552296482E+02  0.00000000000E+00 0. -1.
        -13    1    3    3    0    0 -0.86155637015E+01 -0.20802889482E+03 -0.10368226283E+03  0.23259462729E+03  0.00000000000E+00 0.  1.
          2    1    6    6  502    0 -0.12889830993E+03  0.32803279017E+03  0.67199232981E+03  0.75881089677E+03  0.00000000000E+00 0. -1.
          1    1    5    5  503    0  0.88026357535E+02 -0.14146520185E+03  0.39865816067E+03  0.43207565544E+03  0.00000000000E+00 0. -1.
         -2    1    5    5    0  503  0.14145258852E+03 -0.13917230370E+03  0.31587378233E+03  0.37303352567E+03  0.00000000000E+00 0.  1.
         -1    1    6    6    0  502 -0.10289428953E+03  0.17055519721E+03  0.49187052171E+03  0.53067214006E+03  0.00000000000E+00 0.  1.
<mgrwt>
<rscale>  0 0.15202135E+04</rscale>
<asrwt>0</asrwt>
<pdfrwt beam="1">  1        2 0.31892855E+00 0.15202135E+04</pdfrwt>
<pdfrwt beam="2">  1       -2 0.42877462E-01 0.15202135E+04</pdfrwt>
<totfact> 0.30280591E+01</totfact>
</mgrwt>
</event>
<event>
12    1  0.1114484E-007  0.2203706E+04  0.7818608E-02  0.8516887E-01
          1   -1    0    0  501    0  0.00000000000E+00  0.00000000000E+00  0.53084505900E+03  0.53084505900E+03  0.00000000000E+00 0. -1.
         -1   -1    0    0    0  501 -0.00000000000E+00 -0.00000000000E+00 -0.22870703866E+04  0.22870703866E+04  0.00000000000E+00 0.  1.
         23    2    1    2    0    0 -0.18294816603E+03 -0.81839943142E+03 -0.11878529848E+04  0.14568117301E+04  0.89766600873E+02 0.  0.
        254    2    1    2    0    0  0.18294816603E+03  0.81839943142E+03 -0.56837234282E+03  0.13611037155E+04  0.90901515032E+03 0.  0.
        -24    2    4    4    0    0  0.38521650685E+03  0.65939591540E+02 -0.98562283803E+01  0.39963699164E+03  0.82902309767E+02 0.  0.
         24    2    4    4    0    0 -0.20226834083E+03  0.75245983988E+03 -0.55851611444E+03  0.96146672388E+03  0.73278364503E+02 0.  0.
         13    1    3    3    0    0 -0.10399974823E+03 -0.39369614891E+03 -0.50390960714E+03  0.64787151308E+03  0.00000000000E+00 0.  1.
        -13    1    3    3    0    0 -0.78948417800E+02 -0.42470328251E+03 -0.68394337764E+03  0.80894021700E+03  0.00000000000E+00 0. -1.
          4    1    6    6  502    0 -0.20072720623E+03  0.73241156617E+03 -0.55600911819E+03  0.94120361936E+03  0.00000000000E+00 0. -1.
          3    1    5    5  503    0  0.30457591816E+03  0.24113670231E+02 -0.28655867387E+02  0.30686987104E+03  0.00000000000E+00 0. -1.
         -4    1    5    5    0  503  0.80640588694E+02  0.41825921309E+02  0.18799639007E+02  0.92767120603E+02  0.00000000000E+00 0.  1.
         -3    1    6    6    0  502 -0.15411345960E+01  0.20048273708E+02 -0.25069962458E+01  0.20263104518E+02  0.00000000000E+00 0.  1.
<mgrwt>
<rscale>  0 0.22037060E+04</rscale>
<asrwt>0</asrwt>
<pdfrwt beam="1">  1        1 0.81668470E-01 0.22037060E+04</pdfrwt>
<pdfrwt beam="2">  1       -1 0.35185699E+00 0.22037060E+04</pdfrwt>
<totfact> 0.56182027E-01</totfact>
</mgrwt>
</event>
<event>
12    1  0.1114484E-007  0.1543782E+04  0.7818608E-02  0.8855849E-01
          1   -1    0    0  501    0  0.00000000000E+00  0.00000000000E+00  0.30314781620E+03  0.30314781620E+03  0.00000000000E+00 0. -1.
         -1   -1    0    0    0  501 -0.00000000000E+00 -0.00000000000E+00 -0.19654299917E+04  0.19654299917E+04  0.00000000000E+00 0.  1.
         23    2    1    2    0    0  0.61272542567E+02 -0.42249738274E+03 -0.93679025073E+03  0.10337325495E+04  0.93641054753E+02 0.  0.
        254    2    1    2    0    0 -0.61272542567E+02  0.42249738274E+03 -0.72549192475E+03  0.12348452584E+04  0.90346329001E+03 0.  0.
        -24    2    4    4    0    0 -0.15088199301E+03 -0.81150010292E+02  0.13407356125E+03  0.23147015436E+03  0.79069668943E+02 0.  0.
         24    2    4    4    0    0  0.89609450446E+02  0.50364739303E+03 -0.85956548600E+03  0.10033751040E+04  0.78855719785E+02 0.  0.
         13    1    3    3    0    0  0.80653300785E+01  0.25726213808E+01 -0.14113136779E+02  0.16457477322E+02  0.00000000000E+00 0. -1.
        -13    1    3    3    0    0  0.53207212489E+02 -0.42507000412E+03 -0.92267711395E+03  0.10172750722E+04  0.00000000000E+00 0.  1.
          4    1    6    6  502    0  0.26009839037E+02  0.92441415838E+02 -0.10964701903E+03  0.14575457410E+03  0.00000000000E+00 0. -1.
          3    1    5    5  503    0 -0.13526658940E+03 -0.78681850223E+02  0.81230706278E+02  0.17631310616E+03  0.00000000000E+00 0. -1.
         -4    1    5    5    0  503 -0.15615403616E+02 -0.24681600686E+01  0.52842854975E+02  0.55157048200E+02  0.00000000000E+00 0.  1.
         -3    1    6    6    0  502  0.63599611410E+02  0.41120597719E+03 -0.74991846697E+03  0.85762052993E+03  0.00000000000E+00 0.  1.
<mgrwt>
<rscale>  0 0.15437821E+04</rscale>
<asrwt>0</asrwt>
<pdfrwt beam="1">  1        1 0.46638125E-01 0.15437821E+04</pdfrwt>
<pdfrwt beam="2">  1       -1 0.30237385E+00 0.15437821E+04</pdfrwt>
<totfact> 0.26636564E+00</totfact>
</mgrwt>
</event>
<event>
12    1  0.1114484E-007  0.1552119E+04  0.7818608E-02  0.8850515E-01
         -1   -1    0    0    0  501 -0.00000000000E+00  0.00000000000E+00  0.16849485501E+03  0.16849485501E+03  0.00000000000E+00 0.  1.
          1   -1    0    0  501    0  0.00000000000E+00 -0.00000000000E+00 -0.35744014926E+04  0.35744014926E+04  0.00000000000E+00 0. -1.
         23    2    1    2    0    0 -0.15996886804E+03 -0.30091319075E+03 -0.22331301135E+03  0.41731612022E+03  0.90251072283E+02 0.  0.
        254    2    1    2    0    0  0.15996886804E+03  0.30091319075E+03 -0.31825936263E+04  0.33255802274E+04  0.90246488680E+03 0.  0.
        -24    2    4    4    0    0  0.66122330584E+02  0.26999886070E+03 -0.31843475146E+04  0.31974375052E+04  0.79157805483E+02 0.  0.
         24    2    4    4    0    0  0.93846537454E+02  0.30914330056E+02  0.17538883809E+01  0.12814272223E+03  0.81575809773E+02 0.  0.
         11    1    3    3    0    0 -0.99564456381E+02 -0.15800946812E+03 -0.70716268870E+02  0.19970193708E+03  0.00000000000E+00 0.  1.
        -11    1    3    3    0    0 -0.60404411657E+02 -0.14290372264E+03 -0.15259674248E+03  0.21761418315E+03  0.00000000000E+00 0. -1.
          2    1    6    6  502    0  0.55863356579E+00  0.14030693150E+02 -0.25836820238E+02  0.29406014720E+02  0.00000000000E+00 0. -1.
          3    1    5    5  503    0  0.18186917418E+02  0.90074640581E+02 -0.68054762207E+03  0.68672357666E+03  0.00000000000E+00 0. -1.
         -4    1    5    5    0  503  0.47935413166E+02  0.17992422012E+03 -0.25037998926E+04  0.25107139285E+04  0.00000000000E+00 0.  1.
         -1    1    6    6    0  502  0.93287903888E+02  0.16883636906E+02  0.27590708619E+02  0.98736707506E+02  0.00000000000E+00 0.  1.
<mgrwt>
<rscale>  0 0.15521189E+04</rscale>
<asrwt>0</asrwt>
<pdfrwt beam="1">  1        1 0.54990787E+00 0.15521189E+04</pdfrwt>
<pdfrwt beam="2">  1       -1 0.25922288E-01 0.15521189E+04</pdfrwt>
<totfact> 0.27967367E+00</totfact>
</mgrwt>
</event>
<event>
12    1  0.1114484E-007  0.1921258E+04  0.7818608E-02  0.8644347E-01
         -2   -1    0    0    0  501 -0.00000000000E+00  0.00000000000E+00  0.50484388624E+03  0.50484388624E+03  0.00000000000E+00 0.  1.
          2   -1    0    0  501    0  0.00000000000E+00 -0.00000000000E+00 -0.18279073204E+04  0.18279073204E+04  0.00000000000E+00 0. -1.
         23    2    1    2    0    0 -0.47682437913E+03  0.93366883338E+02  0.17268843257E+03  0.52341646446E+03  0.89803324460E+02 0.  0.
        254    2    1    2    0    0  0.47682437913E+03 -0.93366883338E+02 -0.14957518667E+04  0.18093347421E+04  0.89461706836E+03 0.  0.
        -24    2    4    4    0    0  0.41805248315E+03 -0.21543617297E+03 -0.15660824305E+04  0.16372940992E+04  0.83289645201E+02 0.  0.
         24    2    4    4    0    0  0.58771895985E+02  0.12206928963E+03  0.70330563766E+02  0.17204064295E+03  0.79350787013E+02 0.  0.
         11    1    3    3    0    0 -0.44952094860E+03  0.96094583291E+02  0.13955137346E+03  0.48039342003E+03  0.00000000000E+00 0.  1.
        -11    1    3    3    0    0 -0.27303430531E+02 -0.27276999524E+01  0.33137059111E+02  0.43023044433E+02  0.00000000000E+00 0. -1.
          2    1    6    6  502    0  0.38226869664E+01 -0.11670478646E+02  0.36067017260E+01  0.12799269699E+02  0.00000000000E+00 0. -1.
          3    1    5    5  503    0  0.12611213495E+03 -0.25582241650E+02 -0.38446274533E+03  0.40542610204E+03  0.00000000000E+00 0. -1.
         -4    1    5    5    0  503  0.29194034820E+03 -0.18985393132E+03 -0.11816196851E+04  0.12318679972E+04  0.00000000000E+00 0.  1.
         -1    1    6    6    0  502  0.54949209018E+02  0.13373976828E+03  0.66723862040E+02  0.15924137325E+03  0.00000000000E+00 0.  1.
<mgrwt>
<rscale>  0 0.19212577E+04</rscale>
<asrwt>0</asrwt>
<pdfrwt beam="1">  1        2 0.28121651E+00 0.19212577E+04</pdfrwt>
<pdfrwt beam="2">  1       -2 0.77668289E-01 0.19212577E+04</pdfrwt>
<totfact> 0.11498544E+01</totfact>
</mgrwt>
</event>
<event>
12    1  0.1114484E-007  0.1377985E+04  0.7818608E-02  0.8969910E-01
         -2   -1    0    0    0  501 -0.00000000000E+00  0.00000000000E+00  0.40402270612E+03  0.40402270612E+03  0.00000000000E+00 0.  1.
          2   -1    0    0  501    0  0.00000000000E+00 -0.00000000000E+00 -0.11749603079E+04  0.11749603079E+04  0.00000000000E+00 0. -1.
         23    2    1    2    0    0  0.38358977113E+02  0.12482436103E+03 -0.63931874506E+03  0.65876352158E+03  0.90489708501E+02 0.  0.
        254    2    1    2    0    0 -0.38358977113E+02 -0.12482436103E+03 -0.13161885671E+03  0.92021949242E+03  0.90134780111E+03 0.  0.
        -24    2    4    4    0    0  0.41451049142E+02  0.36388722124E+03 -0.18148246359E+03  0.41594240292E+03  0.77072035829E+02 0.  0.
         24    2    4    4    0    0 -0.79810026255E+02 -0.48871158227E+03  0.49863606875E+02  0.50427708950E+03  0.81242555173E+02 0.  0.
         11    1    3    3    0    0  0.44912121026E+02  0.10023916137E+03 -0.61057478609E+03  0.62037614195E+03  0.00000000000E+00 0. -1.
        -11    1    3    3    0    0 -0.65531439131E+01  0.24585199666E+02 -0.28743958970E+02  0.38387379633E+02  0.00000000000E+00 0.  1.
          4    1    6    6  502    0 -0.27318966031E+02 -0.15316219674E+03 -0.21999608368E+02  0.15712723247E+03  0.00000000000E+00 0. -1.
          1    1    5    5  503    0  0.62225549575E+01  0.17231305169E+03 -0.12552785403E+03  0.21327857396E+03  0.00000000000E+00 0. -1.
         -2    1    5    5    0  503  0.35228494184E+02  0.19157416955E+03 -0.55954609558E+02  0.20266382897E+03  0.00000000000E+00 0.  1.
         -3    1    6    6    0  502 -0.52491060224E+02 -0.33554938553E+03  0.71863215243E+02  0.34714985704E+03  0.00000000000E+00 0.  1.
<mgrwt>
<rscale>  0 0.13779850E+04</rscale>
<asrwt>0</asrwt>
<pdfrwt beam="1">  1        2 0.18076312E+00 0.13779850E+04</pdfrwt>
<pdfrwt beam="2">  1       -2 0.62157340E-01 0.13779850E+04</pdfrwt>
<totfact> 0.45928450E+01</totfact>
</mgrwt>
</event>
<event>
12    1  0.1114484E-007  0.2767036E+04  0.7818608E-02  0.8313576E-01
          3   -1    0    0  501    0  0.00000000000E+00  0.00000000000E+00  0.15877158707E+04  0.15877158707E+04  0.00000000000E+00 0. -1.
         -3   -1    0    0    0  501 -0.00000000000E+00 -0.00000000000E+00 -0.12055818933E+04  0.12055818933E+04  0.00000000000E+00 0.  1.
         23    2    1    2    0    0  0.93746261824E+03 -0.80003031927E+03  0.11159694144E+03  0.12410347729E+04  0.93961470498E+02 0.  0.
        254    2    1    2    0    0 -0.93746261824E+03  0.80003031927E+03  0.27053703598E+03  0.15522629910E+04  0.90412688998E+03 0.  0.
        -24    2    4    4    0    0 -0.34658648667E+03  0.58971447491E+03  0.52970966808E+03  0.86884693749E+03  0.80108137292E+02 0.  0.
         24    2    4    4    0    0 -0.59087613157E+03  0.21031584436E+03 -0.25917263210E+03  0.68341605356E+03  0.80744608372E+02 0.  0.
         13    1    3    3    0    0  0.22048148248E+03 -0.17630499504E+03 -0.12915626051E+02  0.28259927245E+03  0.00000000000E+00 0. -1.
        -13    1    3    3    0    0  0.71698113576E+03 -0.62372532423E+03  0.12451256749E+03  0.95843550048E+03  0.00000000000E+00 0.  1.
          2    1    6    6  502    0 -0.88878627698E+02  0.22239863753E+01 -0.33739309001E+02  0.95093099375E+02  0.00000000000E+00 0. -1.
          3    1    5    5  503    0 -0.12301417531E+02  0.55111746336E+02  0.61571637938E+02  0.83544575263E+02  0.00000000000E+00 0. -1.
         -4    1    5    5    0  503 -0.33428506914E+03  0.53460272857E+03  0.46813803015E+03  0.78530236222E+03  0.00000000000E+00 0.  1.
         -3    1    6    6    0  502 -0.50199750387E+03  0.20809185799E+03 -0.22543332310E+03  0.58832295418E+03  0.00000000000E+00 0.  1.
<mgrwt>
<rscale>  0 0.27670356E+04</rscale>
<asrwt>0</asrwt>
<pdfrwt beam="1">  1        3 0.24426398E+00 0.27670356E+04</pdfrwt>
<pdfrwt beam="2">  1       -3 0.18547414E+00 0.27670356E+04</pdfrwt>
<totfact> 0.32861426E-02</totfact>
</mgrwt>
</event>
<event>
12    1  0.1114484E-007  0.1418065E+04  0.7818608E-02  0.8940845E-01
          2   -1    0    0  501    0  0.00000000000E+00  0.00000000000E+00  0.12130651507E+04  0.12130651507E+04  0.00000000000E+00 0. -1.
         -2   -1    0    0    0  501 -0.00000000000E+00 -0.00000000000E+00 -0.41442719292E+03  0.41442719292E+03  0.00000000000E+00 0.  1.
         23    2    1    2    0    0  0.38829940796E+03  0.31236153056E+02  0.57040772937E+02  0.40443875236E+03  0.92546891673E+02 0.  0.
        254    2    1    2    0    0 -0.38829940796E+03 -0.31236153056E+02  0.74159718483E+03  0.12230535912E+04  0.89114621417E+03 0.  0.
        -24    2    4    4    0    0 -0.33638154617E+03  0.38851588585E+03  0.27867686202E+03  0.59095937872E+03  0.86458404479E+02 0.  0.
         24    2    4    4    0    0 -0.51917861782E+02 -0.41975203891E+03  0.46292032281E+03  0.63209421252E+03  0.79753555994E+02 0.  0.
         11    1    3    3    0    0  0.13950504854E+03  0.51369365789E+02  0.12282822014E+01  0.14866734338E+03  0.00000000000E+00 0. -1.
        -11    1    3    3    0    0  0.24879435941E+03 -0.20133212733E+02  0.55812490736E+02  0.25577140898E+03  0.00000000000E+00 0.  1.
          2    1    6    6  502    0 -0.55735336625E+02 -0.29812648746E+03  0.28253210909E+03  0.41449996736E+03  0.00000000000E+00 0. -1.
          3    1    5    5  503    0 -0.26592115084E+03  0.31181298372E+03  0.25949018119E+03  0.48505314082E+03  0.00000000000E+00 0. -1.
         -2    1    5    5    0  503 -0.70460395331E+02  0.76702902133E+02  0.19186680834E+02  0.10590623791E+03  0.00000000000E+00 0.  1.
         -1    1    6    6    0  502  0.38174748427E+01 -0.12162555145E+03  0.18038821372E+03  0.21759424516E+03  0.00000000000E+00 0.  1.
<mgrwt>
<rscale>  0 0.14180651E+04</rscale>
<asrwt>0</asrwt>
<pdfrwt beam="1">  1        2 0.18662541E+00 0.14180651E+04</pdfrwt>
<pdfrwt beam="2">  1       -2 0.63758030E-01 0.14180651E+04</pdfrwt>
<totfact> 0.41150010E+01</totfact>
</mgrwt>
</event>
<event>
12    1  0.1114484E-007  0.2352046E+04  0.7818608E-02  0.8457678E-01
          2   -1    0    0  501    0  0.00000000000E+00  0.00000000000E+00  0.14513614597E+04  0.14513614597E+04  0.00000000000E+00 0. -1.
         -2   -1    0    0    0  501 -0.00000000000E+00 -0.00000000000E+00 -0.95291924968E+03  0.95291924968E+03  0.00000000000E+00 0.  1.
         23    2    1    2    0    0 -0.61286682155E+03  0.67304685669E+03 -0.20766948768E+03  0.93817225085E+03  0.91884405000E+02 0.  0.
        254    2    1    2    0    0  0.61286682155E+03 -0.67304685669E+03  0.70611169769E+03  0.14661084585E+04  0.90679792141E+03 0.  0.
        -24    2    4    4    0    0  0.77632579693E+03 -0.61600103681E+03  0.33615414313E+03  0.10494456655E+04  0.78724688066E+02 0.  0.
         24    2    4    4    0    0 -0.16345897537E+03 -0.57045819882E+02  0.36995755456E+03  0.41666279305E+03  0.82257089299E+02 0.  0.
         13    1    3    3    0    0 -0.47128294182E+02  0.80678317691E+02 -0.42114207015E+02  0.10248743089E+03  0.00000000000E+00 0. -1.
        -13    1    3    3    0    0 -0.56573852737E+03  0.59236853900E+03 -0.16555528067E+03  0.83568481996E+03  0.00000000000E+00 0.  1.
          2    1    6    6  502    0 -0.66072760486E+01 -0.23909569249E+01  0.96193493276E+02  0.96449784450E+02  0.00000000000E+00 0. -1.
          3    1    5    5  503    0  0.13289762874E+03 -0.69772635464E+02  0.47660997953E+02  0.15748514568E+03  0.00000000000E+00 0. -1.
         -2    1    5    5    0  503  0.64342816819E+03 -0.54622840134E+03  0.28849314518E+03  0.89196051979E+03  0.00000000000E+00 0.  1.
         -1    1    6    6    0  502 -0.15685169932E+03 -0.54654862957E+02  0.27376406129E+03  0.32021300860E+03  0.00000000000E+00 0.  1.
<mgrwt>
<rscale>  0 0.23520462E+04</rscale>
<asrwt>0</asrwt>
<pdfrwt beam="1">  1        2 0.22328638E+00 0.23520462E+04</pdfrwt>
<pdfrwt beam="2">  1       -2 0.14660296E+00 0.23520462E+04</pdfrwt>
<totfact> 0.38877487E+00</totfact>
</mgrwt>
</event>
<event>
12    1  0.1114484E-007  0.3334658E+04  0.7818608E-02  0.8154132E-01
          1   -1    0    0  501    0  0.00000000000E+00  0.00000000000E+00  0.33359064588E+04  0.33359064588E+04  0.00000000000E+00 0.  1.
         -1   -1    0    0    0  501 -0.00000000000E+00 -0.00000000000E+00 -0.83335255582E+03  0.83335255582E+03  0.00000000000E+00 0. -1.
         23    2    1    2    0    0  0.31163508535E+03  0.45925997239E+03 -0.64375215169E+03  0.85500248525E+03  0.92608143963E+02 0.  0.
        254    2    1    2    0    0 -0.31163508535E+03 -0.45925997239E+03  0.31463060547E+04  0.33142565294E+04  0.88148647421E+03 0.  0.
        -24    2    4    4    0    0 -0.44657960227E+03 -0.39403724417E+03  0.10399848188E+04  0.12011002190E+04  0.79841229578E+02 0.  0.
         24    2    4    4    0    0  0.13494451692E+03 -0.65222728221E+02  0.21063212359E+04  0.21131563104E+04  0.79852465343E+02 0.  0.
         11    1    3    3    0    0  0.12041745562E+03  0.12126004448E+03 -0.24184709689E+03  0.29613236952E+03  0.00000000000E+00 0.  1.
        -11    1    3    3    0    0  0.19121762973E+03  0.33799992790E+03 -0.40190505480E+03  0.55887011573E+03  0.00000000000E+00 0. -1.
          2    1    6    6  502    0  0.88940257688E+02  0.10053974622E+01  0.11607348973E+04  0.11641378278E+04  0.00000000000E+00 0. -1.
          1    1    5    5  503    0 -0.25414586994E+03 -0.18371151733E+03  0.59617434358E+03  0.67361999135E+03  0.00000000000E+00 0. -1.
         -2    1    5    5    0  503 -0.19243373233E+03 -0.21032572684E+03  0.44381047520E+03  0.52748022769E+03  0.00000000000E+00 0.  1.
         -1    1    6    6    0  502  0.46004259235E+02 -0.66228125683E+02  0.94558633856E+03  0.94901848252E+03  0.00000000000E+00 0.  1.
<mgrwt>
<rscale>  0 0.33346581E+04</rscale>
<asrwt>0</asrwt>
<pdfrwt beam="1">  1        1 0.51321637E+00 0.33346581E+04</pdfrwt>
<pdfrwt beam="2">  1       -1 0.12820809E+00 0.33346581E+04</pdfrwt>
<totfact> 0.14547570E-01</totfact>
</mgrwt>
</event>
<event>
12    1  0.1114484E-007  0.1307404E+04  0.7818608E-02  0.9023714E-01
          1   -1    0    0  501    0  0.00000000000E+00  0.00000000000E+00  0.67412364138E+03  0.67412364138E+03  0.00000000000E+00 0. -1.
         -1   -1    0    0    0  501 -0.00000000000E+00 -0.00000000000E+00 -0.63389879826E+03  0.63389879826E+03  0.00000000000E+00 0.  1.
         23    2    1    2    0    0 -0.22007142267E+02 -0.31577971336E+03 -0.91896774964E+02  0.34556097809E+03  0.10376044838E+03 0.  0.
        254    2    1    2    0    0  0.22007142267E+02  0.31577971336E+03  0.13212161809E+03  0.96246146154E+03  0.89926347714E+03 0.  0.
        -24    2    4    4    0    0  0.45685125817E+02  0.55879100057E+03 -0.14504745014E+03  0.58477803723E+03  0.81191606706E+02 0.  0.
         24    2    4    4    0    0 -0.23677983549E+02 -0.24301128721E+03  0.27716906823E+03  0.37768342431E+03  0.78784160847E+02 0.  0.
         11    1    3    3    0    0 -0.10105485842E+02 -0.12553759611E+03  0.15303936701E+02  0.12687008852E+03  0.00000000000E+00 0.  1.
        -11    1    3    3    0    0 -0.11901656426E+02 -0.19024211725E+03 -0.10720071167E+03  0.21869088957E+03  0.00000000000E+00 0. -1.
          4    1    6    6  502    0 -0.41448832404E+02 -0.22939718025E+03  0.24215911341E+03  0.33612811281E+03  0.00000000000E+00 0. -1.
          1    1    5    5  503    0  0.44107923241E+01  0.44856759473E+03 -0.12143283318E+03  0.46473462869E+03  0.00000000000E+00 0. -1.
         -2    1    5    5    0  503  0.41274333493E+02  0.11022340584E+03 -0.23614616960E+02  0.12004340854E+03  0.00000000000E+00 0.  1.
         -3    1    6    6    0  502  0.17770848854E+02 -0.13614106955E+02  0.35009954822E+02  0.41555311499E+02  0.00000000000E+00 0.  1.
<mgrwt>
<rscale>  0 0.13074038E+04</rscale>
<asrwt>0</asrwt>
<pdfrwt beam="1">  1        1 0.10371133E+00 0.13074038E+04</pdfrwt>
<pdfrwt beam="2">  1       -1 0.97522891E-01 0.13074038E+04</pdfrwt>
<totfact> 0.28597599E+01</totfact>
</mgrwt>
</event>
<event>
12    1  0.1114484E-007  0.2018436E+04  0.7818608E-02  0.8598049E-01
         -2   -1    0    0    0  501 -0.00000000000E+00  0.00000000000E+00  0.11945288125E+04  0.11945288125E+04  0.00000000000E+00 0.  1.
          2   -1    0    0  501    0  0.00000000000E+00 -0.00000000000E+00 -0.85265496000E+03  0.85265496000E+03  0.00000000000E+00 0. -1.
         23    2    1    2    0    0  0.14260041811E+03  0.25189470677E+03  0.89195215983E+03  0.94117463293E+03  0.80282075893E+02 0.  0.
        254    2    1    2    0    0 -0.14260041811E+03 -0.25189470677E+03 -0.55007830730E+03  0.11060091396E+04  0.91481377897E+03 0.  0.
        -24    2    4    4    0    0 -0.48903402053E+03 -0.11941413713E+03 -0.51591689336E+03  0.72519486948E+03  0.79519484933E+02 0.  0.
         24    2    4    4    0    0  0.34643360242E+03 -0.13248056964E+03 -0.34161413942E+02  0.38081427013E+03  0.79279025668E+02 0.  0.
         13    1    3    3    0    0  0.11944442768E+03  0.24533070880E+03  0.85098168294E+03  0.89365762610E+03  0.00000000000E+00 0.  1.
        -13    1    3    3    0    0  0.23155990429E+02  0.65639979738E+01  0.40970476890E+02  0.47517006837E+02  0.00000000000E+00 0. -1.
          4    1    6    6  502    0  0.26541562697E+03 -0.72174551977E+02 -0.28332830721E+01  0.27506844327E+03  0.00000000000E+00 0. -1.
          1    1    5    5  503    0 -0.46828180307E+03 -0.11111034802E+03 -0.51165257466E+03  0.70243982922E+03  0.00000000000E+00 0. -1.
         -2    1    5    5    0  503 -0.20752217462E+02 -0.83037891057E+01 -0.42643186985E+01  0.22755040256E+02  0.00000000000E+00 0.  1.
         -3    1    6    6    0  502  0.81017975453E+02 -0.60306017667E+02 -0.31328130870E+02  0.10574582685E+03  0.00000000000E+00 0.  1.
<mgrwt>
<rscale>  0 0.20184359E+04</rscale>
<asrwt>0</asrwt>
<pdfrwt beam="1">  1        2 0.13117769E+00 0.20184359E+04</pdfrwt>
<pdfrwt beam="2">  1       -2 0.18377366E+00 0.20184359E+04</pdfrwt>
<totfact> 0.50056613E+00</totfact>
</mgrwt>
</event>
<event>
12    1  0.1114484E-007  0.1483478E+04  0.7818608E-02  0.8895515E-01
         -1   -1    0    0    0  501 -0.00000000000E+00  0.00000000000E+00  0.35428511681E+03  0.35428511681E+03  0.00000000000E+00 0.  1.
          1   -1    0    0  501    0  0.00000000000E+00 -0.00000000000E+00 -0.15529216162E+04  0.15529216162E+04  0.00000000000E+00 0. -1.
         23    2    1    2    0    0  0.34939935165E+03  0.26718269737E+03 -0.57346393638E+03  0.72837638754E+03  0.90580212424E+02 0.  0.
        254    2    1    2    0    0 -0.34939935165E+03 -0.26718269737E+03 -0.62517256300E+03  0.11788303455E+04  0.89740389410E+03 0.  0.
        -24    2    4    4    0    0 -0.61745236283E+03 -0.33973673946E+03 -0.47195594623E+03  0.85193590713E+03  0.79899325193E+02 0.  0.
         24    2    4    4    0    0  0.26805301118E+03  0.72554042093E+02 -0.15321661677E+03  0.32689443833E+03  0.79171562647E+02 0.  0.
         11    1    3    3    0    0  0.16719020499E+03  0.14837586318E+03 -0.35902807718E+03  0.42292921585E+03  0.00000000000E+00 0.  1.
        -11    1    3    3    0    0  0.18220914667E+03  0.11880683419E+03 -0.21443585920E+03  0.30544717169E+03  0.00000000000E+00 0. -1.
          2    1    6    6  502    0 -0.76923002170E-01 -0.53319247474E+01  0.38113437902E+01  0.65545160117E+01  0.00000000000E+00 0. -1.
          3    1    5    5  503    0 -0.18449840450E+02  0.35991052884E+01 -0.14016762661E+02  0.23448236757E+02  0.00000000000E+00 0. -1.
         -4    1    5    5    0  503 -0.59900252238E+03 -0.34333584475E+03 -0.45793918357E+03  0.82848767037E+03  0.00000000000E+00 0.  1.
         -1    1    6    6    0  502  0.26812993418E+03  0.77885966840E+02 -0.15702796056E+03  0.32033992232E+03  0.00000000000E+00 0.  1.
<mgrwt>
<rscale>  0 0.14834784E+04</rscale>
<asrwt>0</asrwt>
<pdfrwt beam="1">  1        1 0.23891102E+00 0.14834784E+04</pdfrwt>
<pdfrwt beam="2">  1       -1 0.54505402E-01 0.14834784E+04</pdfrwt>
<totfact> 0.19802267E+01</totfact>
</mgrwt>
</event>
<event>
12    1  0.1114484E-007  0.1544571E+04  0.7818608E-02  0.8855343E-01
          2   -1    0    0  501    0  0.00000000000E+00  0.00000000000E+00  0.36333995378E+03  0.36333995378E+03  0.00000000000E+00 0. -1.
         -2   -1    0    0    0  501 -0.00000000000E+00 -0.00000000000E+00 -0.16415065819E+04  0.16415065819E+04  0.00000000000E+00 0.  1.
         23    2    1    2    0    0  0.13392265242E+03  0.45539134535E+03 -0.41509849437E+03  0.63695351303E+03  0.89924765661E+02 0.  0.
        254    2    1    2    0    0 -0.13392265242E+03 -0.45539134535E+03 -0.86306813375E+03  0.13678930226E+04  0.94917235720E+03 0.  0.
        -24    2    4    4    0    0  0.23537400619E+03 -0.44730581586E+03 -0.84745404048E+03  0.99002208738E+03  0.80510664398E+02 0.  0.
         24    2    4    4    0    0 -0.36929665861E+03 -0.80855294942E+01 -0.15614093270E+02  0.37787093527E+03  0.78084863880E+02 0.  0.
         11    1    3    3    0    0  0.48937883089E+01  0.94621150944E+02 -0.12245080726E+03  0.15482671465E+03  0.00000000000E+00 0. -1.
        -11    1    3    3    0    0  0.12902886411E+03  0.36077019441E+03 -0.29264768711E+03  0.48212679838E+03  0.00000000000E+00 0.  1.
          2    1    6    6  502    0 -0.18087022419E+03  0.26500480262E+02  0.16808192788E+02  0.18357240750E+03  0.00000000000E+00 0. -1.
          1    1    5    5  503    0  0.12402762533E+03 -0.31673685238E+03 -0.55541697975E+03  0.65130108774E+03  0.00000000000E+00 0. -1.
         -2    1    5    5    0  503  0.11134638086E+03 -0.13056896348E+03 -0.29203706073E+03  0.33872099964E+03  0.00000000000E+00 0.  1.
         -1    1    6    6    0  502 -0.18842643442E+03 -0.34586009756E+02 -0.32422286058E+02  0.19429852777E+03  0.00000000000E+00 0.  1.
<mgrwt>
<rscale>  0 0.15445710E+04</rscale>
<asrwt>0</asrwt>
<pdfrwt beam="1">  1        2 0.55898455E-01 0.15445710E+04</pdfrwt>
<pdfrwt beam="2">  1       -2 0.25253947E+00 0.15445710E+04</pdfrwt>
<totfact> 0.52927229E+00</totfact>
</mgrwt>
</event>
<event>
12    1  0.1114484E-007  0.1321281E+04  0.7818608E-02  0.9012857E-01
         -2   -1    0    0    0  501 -0.00000000000E+00  0.00000000000E+00  0.34793374896E+03  0.34793374896E+03  0.00000000000E+00 0. -1.
          2   -1    0    0  501    0  0.00000000000E+00 -0.00000000000E+00 -0.12543944722E+04  0.12543944722E+04  0.00000000000E+00 0.  1.
         23    2    1    2    0    0  0.25582596993E+03 -0.10464003771E+03  0.25253478969E+02  0.29326302900E+03  0.94704812959E+02 0.  0.
        254    2    1    2    0    0 -0.25582596993E+03  0.10464003771E+03 -0.93171420226E+03  0.13090651922E+04  0.87701987343E+03 0.  0.
        -24    2    4    4    0    0 -0.85766481157E+02 -0.54499559637E+02 -0.10346976317E+04  0.10425434341E+04  0.77275685832E+02 0.  0.
         24    2    4    4    0    0 -0.17005948877E+03  0.15913959734E+03  0.10298342947E+03  0.26652175809E+03  0.78629635817E+02 0.  0.
         11    1    3    3    0    0  0.11078527362E+03 -0.89791086752E+02  0.35972058092E+02  0.14707074854E+03  0.00000000000E+00 0. -1.
        -11    1    3    3    0    0  0.14504069630E+03 -0.14848950956E+02 -0.10718579122E+02  0.14619228046E+03  0.00000000000E+00 0.  1.
          2    1    6    6  502    0 -0.94702247822E+02  0.56884028211E+02  0.13833233132E+02  0.11133582868E+03  0.00000000000E+00 0. -1.
          3    1    5    5  503    0 -0.90244962138E+01  0.18726036882E+02 -0.13047539972E+03  0.13212091402E+03  0.00000000000E+00 0. -1.
         -4    1    5    5    0  503 -0.76741984944E+02 -0.73225596519E+02 -0.90422223201E+03  0.91042252010E+03  0.00000000000E+00 0.  1.
         -1    1    6    6    0  502 -0.75357240946E+02  0.10225556913E+03  0.89150196342E+02  0.15518592942E+03  0.00000000000E+00 0.  1.
<mgrwt>
<rscale>  0 0.13212815E+04</rscale>
<asrwt>0</asrwt>
<pdfrwt beam="1">  1        2 0.19298376E+00 0.13212815E+04</pdfrwt>
<pdfrwt beam="2">  1       -2 0.53528270E-01 0.13212815E+04</pdfrwt>
<totfact> 0.56590481E+01</totfact>
</mgrwt>
</event>
<event>
12    1  0.1114484E-007  0.2372970E+04  0.7818608E-02  0.8449693E-01
          2   -1    0    0  501    0  0.00000000000E+00  0.00000000000E+00  0.11884665002E+04  0.11884665002E+04  0.00000000000E+00 0. -1.
         -2   -1    0    0    0  501 -0.00000000000E+00 -0.00000000000E+00 -0.11845068634E+04  0.11845068634E+04  0.00000000000E+00 0.  1.
         23    2    1    2    0    0 -0.17734101166E+03 -0.99344183830E+03 -0.75588846288E+01  0.10132641767E+04  0.90943029049E+02 0.  0.
        254    2    1    2    0    0  0.17734101166E+03  0.99344183830E+03  0.11518521344E+02  0.13597091869E+04  0.91120792145E+03 0.  0.
        -24    2    4    4    0    0  0.35797278913E+02  0.34442625065E+03  0.43959684229E+03  0.56546698645E+03  0.81219712481E+02 0.  0.
         24    2    4    4    0    0  0.14154373274E+03  0.64901558764E+03 -0.42807832095E+03  0.79424220045E+03  0.79459189696E+02 0.  0.
         11    1    3    3    0    0 -0.17030010369E+02 -0.28663776756E+03 -0.25611299946E+02  0.28828314160E+03  0.00000000000E+00 0. -1.
        -11    1    3    3    0    0 -0.16031100129E+03 -0.70680407074E+03  0.18052415317E+02  0.72498103509E+03  0.00000000000E+00 0.  1.
          4    1    6    6  502    0  0.45440058757E-01  0.77372989935E+02 -0.74190327765E+02  0.10719508557E+03  0.00000000000E+00 0. -1.
          3    1    5    5  503    0 -0.25553648118E+02  0.12659376533E+03  0.16946127780E+03  0.21306359386E+03  0.00000000000E+00 0. -1.
         -4    1    5    5    0  503  0.61350927030E+02  0.21783248532E+03  0.27013556449E+03  0.35240339259E+03  0.00000000000E+00 0.  1.
         -3    1    6    6    0  502  0.14149829268E+03  0.57164259771E+03 -0.35388799318E+03  0.68704711488E+03  0.00000000000E+00 0.  1.
<mgrwt>
<rscale>  0 0.23729701E+04</rscale>
<asrwt>0</asrwt>
<pdfrwt beam="1">  1        2 0.18284100E+00 0.23729701E+04</pdfrwt>
<pdfrwt beam="2">  1       -2 0.18223183E+00 0.23729701E+04</pdfrwt>
<totfact> 0.30354563E+00</totfact>
</mgrwt>
</event>
<event>
12    1  0.1730830E-007  0.1503656E+04  0.7818608E-02  0.8882025E-01
         -2   -1    0    0    0  501 -0.00000000000E+00  0.00000000000E+00  0.25877209179E+03  0.25877209179E+03  0.00000000000E+00 0.  1.
          2   -1    0    0  501    0  0.00000000000E+00 -0.00000000000E+00 -0.21843368614E+04  0.21843368614E+04  0.00000000000E+00 0. -1.
         23    2    1    2    0    0  0.16288026995E+03  0.14721888603E+03 -0.12666639722E+04  0.12884333687E+04  0.86136776772E+02 0.  0.
        254    2    1    2    0    0 -0.16288026995E+03 -0.14721888603E+03 -0.65890079733E+03  0.11546755844E+04  0.92245436843E+03 0.  0.
        -24    2    4    4    0    0  0.25633532921E+03  0.24035658260E+03 -0.34208073276E+03  0.49699031686E+03  0.80629148104E+02 0.  0.
         24    2    4    4    0    0 -0.41921559916E+03 -0.38757546863E+03 -0.31682006457E+03  0.65768526758E+03  0.78857437306E+02 0.  0.
         13    1    3    3    0    0  0.12639317444E+03  0.15300292812E+03 -0.10373959709E+04  0.10562080907E+04  0.00000000000E+00 0. -1.
        -13    1    3    3    0    0  0.36487095511E+02 -0.57840420919E+01 -0.22926800137E+03  0.23222527798E+03  0.00000000000E+00 0.  1.
          4    1    6    6  502    0 -0.39402987984E+03 -0.37165119540E+03 -0.27823145731E+03  0.60893094936E+03  0.00000000000E+00 0. -1.
          3    1    5    5  503    0  0.25086209708E+03  0.23129381331E+03 -0.34576546557E+03  0.48578017355E+03  0.00000000000E+00 0. -1.
         -4    1    5    5    0  503  0.54732321339E+01  0.90627692827E+01  0.36847328162E+01  0.11210143308E+02  0.00000000000E+00 0.  1.
         -3    1    6    6    0  502 -0.25185719325E+02 -0.15924273228E+02 -0.38588607252E+02  0.48754318224E+02  0.00000000000E+00 0.  1.
<mgrwt>
<rscale>  0 0.15036561E+04</rscale>
<asrwt>0</asrwt>
<pdfrwt beam="1">  1        2 0.33605183E+00 0.15036561E+04</pdfrwt>
<pdfrwt beam="2">  1       -2 0.39811090E-01 0.15036561E+04</pdfrwt>
<totfact> 0.30415534E+01</totfact>
</mgrwt>
</event>
<event>
12    1  0.1114484E-007  0.2034716E+04  0.7818608E-02  0.8590560E-01
         -1   -1    0    0    0  501 -0.00000000000E+00  0.00000000000E+00  0.23154330376E+04  0.23154330376E+04  0.00000000000E+00 0.  1.
          1   -1    0    0  501    0  0.00000000000E+00 -0.00000000000E+00 -0.44700796554E+03  0.44700796554E+03  0.00000000000E+00 0. -1.
         23    2    1    2    0    0 -0.40752331667E+03 -0.58996485734E+03  0.21267068815E+03  0.75336000368E+03  0.90491364350E+02 0.  0.
        254    2    1    2    0    0  0.40752331667E+03  0.58996485734E+03  0.16557543840E+04  0.20090809995E+04  0.88360064286E+03 0.  0.
        -24    2    4    4    0    0  0.49532447321E+02  0.62706905003E+03  0.53667703919E+03  0.83042284481E+03  0.76881726964E+02 0.  0.
         24    2    4    4    0    0  0.35799086935E+03 -0.37104192696E+02  0.11190773448E+04  0.11786581547E+04  0.85829822397E+02 0.  0.
         11    1    3    3    0    0 -0.35959677732E+03 -0.47951352221E+03  0.20197461012E+03  0.63248462699E+03  0.00000000000E+00 0. -1.
        -11    1    3    3    0    0 -0.47926539353E+02 -0.11045133513E+03  0.10696078031E+02  0.12087537669E+03  0.00000000000E+00 0.  1.
          4    1    6    6  502    0  0.90637341126E+02 -0.25318466434E+02  0.19351720096E+03  0.21518610415E+03  0.00000000000E+00 0. -1.
          1    1    5    5  503    0  0.34233095880E+02  0.57364549135E+03  0.51181978058E+03  0.76954567271E+03  0.00000000000E+00 0. -1.
         -2    1    5    5    0  503  0.15299351441E+02  0.53423558681E+02  0.24857258612E+02  0.60877172095E+02  0.00000000000E+00 0.  1.
         -3    1    6    6    0  502  0.26735352822E+03 -0.11785726262E+02  0.92556014380E+03  0.96347205055E+03  0.00000000000E+00 0.  1.
<mgrwt>
<rscale>  0 0.20347157E+04</rscale>
<asrwt>0</asrwt>
<pdfrwt beam="1">  1        1 0.68770457E-01 0.20347157E+04</pdfrwt>
<pdfrwt beam="2">  1       -1 0.35622046E+00 0.20347157E+04</pdfrwt>
<totfact> 0.67613802E-01</totfact>
</mgrwt>
</event>
<event>
12    1  0.1114484E-007  0.1227729E+04  0.7818608E-02  0.9088926E-01
          1   -1    0    0  501    0  0.00000000000E+00  0.00000000000E+00  0.32940659001E+03  0.32940659001E+03  0.00000000000E+00 0. -1.
         -1   -1    0    0    0  501 -0.00000000000E+00 -0.00000000000E+00 -0.11439645529E+04  0.11439645529E+04  0.00000000000E+00 0.  1.
         23    2    1    2    0    0  0.88168663707E+02 -0.20130593689E+03 -0.37725658903E+03  0.44599112572E+03  0.91037117559E+02 0.  0.
        254    2    1    2    0    0 -0.88168663707E+02  0.20130593689E+03 -0.43730137383E+03  0.10273800172E+04  0.90331578897E+03 0.  0.
        -24    2    4    4    0    0 -0.24200643742E+03 -0.27908826639E+03 -0.39391028574E+02  0.38009256521E+03  0.80382391131E+02 0.  0.
         24    2    4    4    0    0  0.15383777371E+03  0.48039420328E+03 -0.39791034526E+03  0.64728745195E+03  0.78763896691E+02 0.  0.
         13    1    3    3    0    0  0.94878778391E+02 -0.17313443557E+03 -0.36410325950E+03  0.41418437796E+03  0.00000000000E+00 0.  1.
        -13    1    3    3    0    0 -0.67101146835E+01 -0.28171501318E+02 -0.13153329530E+02  0.31806747764E+02  0.00000000000E+00 0. -1.
          4    1    6    6  502    0  0.36175795213E+02  0.11987055384E+03 -0.14436976258E+03  0.19110276341E+03  0.00000000000E+00 0. -1.
          3    1    5    5  503    0 -0.53744805448E+01 -0.19754615747E+02  0.14259102723E+02  0.24948985849E+02  0.00000000000E+00 0. -1.
         -4    1    5    5    0  503 -0.23663195687E+03 -0.25933365065E+03 -0.53650131298E+02  0.35514357936E+03  0.00000000000E+00 0.  1.
         -3    1    6    6    0  502  0.11766197850E+03  0.36052364944E+03 -0.25354058268E+03  0.45618468854E+03  0.00000000000E+00 0.  1.
<mgrwt>
<rscale>  0 0.12277287E+04</rscale>
<asrwt>0</asrwt>
<pdfrwt beam="1">  1        1 0.50677937E-01 0.12277287E+04</pdfrwt>
<pdfrwt beam="2">  1       -1 0.17599455E+00 0.12277287E+04</pdfrwt>
<totfact> 0.17043463E+01</totfact>
</mgrwt>
</event>
<event>
12    1  0.1114484E-007  0.1159020E+04  0.7818608E-02  0.9149502E-01
          1   -1    0    0  501    0  0.00000000000E+00  0.00000000000E+00  0.29178300026E+04  0.29178300026E+04  0.00000000000E+00 0. -1.
         -1   -1    0    0    0  501 -0.00000000000E+00 -0.00000000000E+00 -0.11509650877E+03  0.11509650877E+03  0.00000000000E+00 0.  1.
         23    2    1    2    0    0 -0.86451265337E+02 -0.37483273293E+02  0.66298637613E+02  0.15046533170E+03  0.96775459904E+02 0.  0.
        254    2    1    2    0    0  0.86451265337E+02  0.37483273293E+02  0.27364348562E+04  0.28824611796E+04  0.90090394212E+03 0.  0.
        -24    2    4    4    0    0  0.40711722252E+03 -0.14774396492E+03  0.20619101413E+04  0.21088238046E+04  0.89953855049E+02 0.  0.
         24    2    4    4    0    0 -0.32066595718E+03  0.18522723822E+03  0.67452471488E+03  0.77363737503E+03  0.79971314738E+02 0.  0.
         13    1    3    3    0    0 -0.24352860310E+02  0.29123448895E+02  0.41161375354E+02  0.55995498943E+02  0.00000000000E+00 0. -1.
        -13    1    3    3    0    0 -0.62098405027E+02 -0.66606722188E+02  0.25137262259E+02  0.94469832759E+02  0.00000000000E+00 0.  1.
          2    1    6    6  502    0 -0.83617363847E+01  0.16204345968E+02  0.71811846745E+02  0.74090760534E+02  0.00000000000E+00 0. -1.
          3    1    5    5  503    0  0.66813065677E+02 -0.53501293992E+01  0.46842551784E+03  0.47319665615E+03  0.00000000000E+00 0. -1.
         -4    1    5    5    0  503  0.34030415684E+03 -0.14239383552E+03  0.15934846234E+04  0.16356271484E+04  0.00000000000E+00 0.  1.
         -1    1    6    6    0  502 -0.31230422080E+03  0.16902289225E+03  0.60271286814E+03  0.69954661450E+03  0.00000000000E+00 0.  1.
<mgrwt>
<rscale>  0 0.11590204E+04</rscale>
<asrwt>0</asrwt>
<pdfrwt beam="1">  1        1 0.44889687E+00 0.11590204E+04</pdfrwt>
<pdfrwt beam="2">  1       -1 0.17707157E-01 0.11590204E+04</pdfrwt>
<totfact> 0.17284596E+01</totfact>
</mgrwt>
</event>
<event>
12    1  0.1114484E-007  0.1390200E+04  0.7818608E-02  0.8960943E-01
         -2   -1    0    0    0  501 -0.00000000000E+00  0.00000000000E+00  0.22016623369E+03  0.22016623369E+03  0.00000000000E+00 0.  1.
          2   -1    0    0  501    0  0.00000000000E+00 -0.00000000000E+00 -0.21945405854E+04  0.21945405854E+04  0.00000000000E+00 0. -1.
         23    2    1    2    0    0  0.17906751622E+03 -0.18765605055E+03 -0.11467555847E+04  0.11792225328E+04  0.90760355052E+02 0.  0.
        254    2    1    2    0    0 -0.17906751622E+03  0.18765605055E+03 -0.82761876697E+03  0.12354842863E+04  0.87987989496E+03 0.  0.
        -24    2    4    4    0    0  0.34242797451E+03  0.84700098321E+02 -0.45593168972E+03  0.58182392783E+03  0.78831167194E+02 0.  0.
         24    2    4    4    0    0 -0.52149549073E+03  0.10295595223E+03 -0.37168707725E+03  0.65366035846E+03  0.81012998163E+02 0.  0.
         11    1    3    3    0    0  0.12554451331E+03 -0.15094627318E+03 -0.99476918146E+03  0.10139585428E+04  0.00000000000E+00 0. -1.
        -11    1    3    3    0    0  0.53523002911E+02 -0.36709777365E+02 -0.15198640326E+03  0.16526398994E+03  0.00000000000E+00 0.  1.
          2    1    6    6  502    0 -0.45541557304E+03  0.11242155942E+03 -0.30640713925E+03  0.56029214360E+03  0.00000000000E+00 0. -1.
          1    1    5    5  503    0  0.93559991841E+02  0.55628233774E+01 -0.17325142339E+03  0.19697835613E+03  0.00000000000E+00 0. -1.
         -2    1    5    5    0  503  0.24886798267E+03  0.79137274944E+02 -0.28268026633E+03  0.38484557170E+03  0.00000000000E+00 0.  1.
         -1    1    6    6    0  502 -0.66079917693E+02 -0.94656071930E+01 -0.65279937994E+02  0.93368214861E+02  0.00000000000E+00 0.  1.
<mgrwt>
<rscale>  0 0.13901996E+04</rscale>
<asrwt>0</asrwt>
<pdfrwt beam="1">  1        2 0.33762163E+00 0.13901996E+04</pdfrwt>
<pdfrwt beam="2">  1       -2 0.33871728E-01 0.13901996E+04</pdfrwt>
<totfact> 0.41375131E+01</totfact>
</mgrwt>
</event>
<event>
12    1  0.1114484E-007  0.1612960E+04  0.7818608E-02  0.8812626E-01
         -1   -1    0    0    0  501 -0.00000000000E+00  0.00000000000E+00  0.51180135203E+03  0.51180135203E+03  0.00000000000E+00 0.  1.
          1   -1    0    0  501    0  0.00000000000E+00 -0.00000000000E+00 -0.12708245373E+04  0.12708245373E+04  0.00000000000E+00 0. -1.
         23    2    1    2    0    0 -0.17923993178E+03  0.29536007313E+03  0.21969469424E+03  0.42128393542E+03  0.99246509337E+02 0.  0.
        254    2    1    2    0    0  0.17923993178E+03 -0.29536007313E+03 -0.97871787948E+03  0.13613419539E+04  0.88090788499E+03 0.  0.
        -24    2    4    4    0    0 -0.47480529460E+02  0.12117823367E+03  0.97718526878E+02  0.18197355645E+03  0.81405772275E+02 0.  0.
         24    2    4    4    0    0  0.22672046124E+03 -0.41653830680E+03 -0.10764364064E+04  0.11793683974E+04  0.85370670241E+02 0.  0.
         13    1    3    3    0    0 -0.27761401044E+02  0.31467739720E+00  0.18713656879E+02  0.33481268847E+02  0.00000000000E+00 0. -1.
        -13    1    3    3    0    0 -0.15147853074E+03  0.29504539573E+03  0.20098103736E+03  0.38780266657E+03  0.00000000000E+00 0.  1.
          4    1    6    6  502    0  0.13461610641E+03 -0.16063093014E+03 -0.48947154222E+03  0.53245298616E+03  0.00000000000E+00 0. -1.
          1    1    5    5  503    0 -0.12758955231E+02  0.22191757704E+02 -0.13625315027E+02  0.28998521655E+02  0.00000000000E+00 0. -1.
         -2    1    5    5    0  503 -0.34721574229E+02  0.98986475966E+02  0.11134384191E+03  0.15297503480E+03  0.00000000000E+00 0.  1.
         -3    1    6    6    0  502  0.92104354838E+02 -0.25590737666E+03 -0.58696486414E+03  0.64691541127E+03  0.00000000000E+00 0.  1.
<mgrwt>
<rscale>  0 0.16129597E+04</rscale>
<asrwt>0</asrwt>
<pdfrwt beam="1">  1        1 0.19551147E+00 0.16129597E+04</pdfrwt>
<pdfrwt beam="2">  1       -1 0.78738670E-01 0.16129597E+04</pdfrwt>
<totfact> 0.14682049E+01</totfact>
</mgrwt>
</event>
<event>
12    1  0.1114484E-007  0.1481854E+04  0.7818608E-02  0.8896610E-01
          1   -1    0    0  501    0  0.00000000000E+00  0.00000000000E+00  0.23817554593E+04  0.23817554593E+04  0.00000000000E+00 0. -1.
         -1   -1    0    0    0  501 -0.00000000000E+00 -0.00000000000E+00 -0.23049086651E+03  0.23049086651E+03  0.00000000000E+00 0.  1.
         23    2    1    2    0    0 -0.26526303377E+03 -0.17089408242E+03  0.12727624264E+04  0.13134320008E+04  0.74901017086E+02 0.  0.
        254    2    1    2    0    0  0.26526303377E+03  0.17089408242E+03  0.87850216643E+03  0.12988143250E+04  0.90309652299E+03 0.  0.
        -24    2    4    4    0    0  0.16806685368E+02  0.80370796863E+02 -0.17500516736E+03  0.20974476694E+03  0.81388752246E+02 0.  0.
         24    2    4    4    0    0  0.24845634841E+03  0.90523285553E+02  0.10535073338E+04  0.10890695580E+04  0.79181927164E+02 0.  0.
         13    1    3    3    0    0 -0.26876982609E+02 -0.80999928882E+01  0.22095511488E+03  0.22273110441E+03  0.00000000000E+00 0.  1.
        -13    1    3    3    0    0 -0.23838605117E+03 -0.16279408953E+03  0.10518073115E+04  0.10907008964E+04  0.00000000000E+00 0. -1.
          4    1    6    6  502    0 -0.32384969091E+01  0.11171820370E+02  0.59435299559E+02  0.60562796057E+02  0.00000000000E+00 0. -1.
          1    1    5    5  503    0 -0.16270908186E+02  0.42761468470E+01 -0.86272803174E+00  0.16845539015E+02  0.00000000000E+00 0. -1.
         -2    1    5    5    0  503  0.33077593554E+02  0.76094650016E+02 -0.17414243933E+03  0.19289922792E+03  0.00000000000E+00 0.  1.
         -3    1    6    6    0  502  0.25169484532E+03  0.79351465183E+02  0.99407203423E+03  0.10285067620E+04  0.00000000000E+00 0.  1.
<mgrwt>
<rscale>  0 0.14818541E+04</rscale>
<asrwt>0</asrwt>
<pdfrwt beam="1">  1        1 0.36642390E+00 0.14818541E+04</pdfrwt>
<pdfrwt beam="2">  1       -1 0.35460135E-01 0.14818541E+04</pdfrwt>
<totfact> 0.12034421E+01</totfact>
</mgrwt>
</event>
<event>
12    1  0.1114484E-007  0.1301802E+04  0.7818608E-02  0.9028137E-01
          1   -1    0    0  501    0  0.00000000000E+00  0.00000000000E+00  0.15024268656E+04  0.15024268656E+04  0.00000000000E+00 0. -1.
         -1   -1    0    0    0  501 -0.00000000000E+00 -0.00000000000E+00 -0.28199201610E+03  0.28199201610E+03  0.00000000000E+00 0.  1.
         23    2    1    2    0    0  0.11173710688E+03  0.21091512097E+03  0.15592778784E+01  0.25528350211E+03  0.90536543977E+02 0.  0.
        254    2    1    2    0    0 -0.11173710688E+03 -0.21091512097E+03  0.12188755716E+04  0.15291353796E+04  0.89197924902E+03 0.  0.
        -24    2    4    4    0    0 -0.77824070024E+02  0.48275395412E+02 -0.11526160291E+03  0.16728805027E+03  0.79454106123E+02 0.  0.
         24    2    4    4    0    0 -0.33913036855E+02 -0.25919051638E+03  0.13341371745E+04  0.13618473293E+04  0.79851925628E+02 0.  0.
         11    1    3    3    0    0  0.19908786382E+02  0.13405879311E+03  0.14179392126E+01  0.13553645391E+03  0.00000000000E+00 0. -1.
        -11    1    3    3    0    0  0.91828320497E+02  0.76856327855E+02  0.14133866579E+00  0.11974704820E+03  0.00000000000E+00 0.  1.
          4    1    6    6  502    0  0.43181343034E+01  0.12140980792E+01  0.93105864261E+02  0.93213852392E+02  0.00000000000E+00 0. -1.
          3    1    5    5  503    0 -0.58576241804E+02 -0.51096578889E+01 -0.83892368675E+02  0.10244615283E+03  0.00000000000E+00 0. -1.
         -4    1    5    5    0  503 -0.19247828221E+02  0.53385053301E+02 -0.31369234239E+02  0.64841897442E+02  0.00000000000E+00 0.  1.
         -3    1    6    6    0  502 -0.38231171158E+02 -0.26040461446E+03  0.12410313102E+04  0.12686334769E+04  0.00000000000E+00 0.  1.
<mgrwt>
<rscale>  0 0.13018024E+04</rscale>
<asrwt>0</asrwt>
<pdfrwt beam="1">  1        1 0.23114259E+00 0.13018024E+04</pdfrwt>
<pdfrwt beam="2">  1       -1 0.43383388E-01 0.13018024E+04</pdfrwt>
<totfact> 0.33559774E+01</totfact>
</mgrwt>
</event>
<event>
12    1  0.1114484E-007  0.1582868E+04  0.7818608E-02  0.8831143E-01
          2   -1    0    0  501    0  0.00000000000E+00  0.00000000000E+00  0.19044386640E+04  0.19044386640E+04  0.00000000000E+00 0.  1.
         -2   -1    0    0    0  501 -0.00000000000E+00 -0.00000000000E+00 -0.32889872957E+03  0.32889872957E+03  0.00000000000E+00 0. -1.
         23    2    1    2    0    0  0.11081784072E+03 -0.43207703204E+03  0.14215694778E+03  0.47692459959E+03  0.90979780470E+02 0.  0.
        254    2    1    2    0    0 -0.11081784072E+03  0.43207703204E+03  0.14333829867E+04  0.17564127940E+04  0.91182671657E+03 0.  0.
        -24    2    4    4    0    0 -0.33878216205E+03  0.25511638307E+03  0.17964258774E+03  0.46736777361E+03  0.79394296000E+02 0.  0.
         24    2    4    4    0    0  0.22796432133E+03  0.17696064897E+03  0.12537403989E+04  0.12890450204E+04  0.80556027903E+02 0.  0.
         13    1    3    3    0    0  0.91162368870E+02 -0.28408530112E+03  0.13496323590E+03  0.32746009047E+03  0.00000000000E+00 0.  1.
        -13    1    3    3    0    0  0.19655471851E+02 -0.14799173092E+03  0.71937118839E+01  0.14946450912E+03  0.00000000000E+00 0. -1.
          4    1    6    6  502    0  0.18323619890E+03  0.15024769940E+03  0.11334961192E+04  0.11579997098E+04  0.00000000000E+00 0. -1.
          3    1    5    5  503    0 -0.13580379163E+03  0.10965977758E+03  0.11629090823E+03  0.20974153613E+03  0.00000000000E+00 0. -1.
         -4    1    5    5    0  503 -0.20297837043E+03  0.14545660549E+03  0.63351679516E+02  0.25762623748E+03  0.00000000000E+00 0.  1.
         -3    1    6    6    0  502  0.44728122435E+02  0.26712949570E+02  0.12024427973E+03  0.13104531056E+03  0.00000000000E+00 0.  1.
<mgrwt>
<rscale>  0 0.15828676E+04</rscale>
<asrwt>0</asrwt>
<pdfrwt beam="1">  1        2 0.29299056E+00 0.15828676E+04</pdfrwt>
<pdfrwt beam="2">  1       -2 0.50599806E-01 0.15828676E+04</pdfrwt>
<totfact> 0.26776072E+01</totfact>
</mgrwt>
</event>
<event>
12    1  0.1114484E-007  0.1083306E+04  0.7818608E-02  0.9221617E-01
         -1   -1    0    0    0  501 -0.00000000000E+00  0.00000000000E+00  0.82010464356E+03  0.82010464356E+03  0.00000000000E+00 0.  1.
          1   -1    0    0  501    0  0.00000000000E+00 -0.00000000000E+00 -0.35774452490E+03  0.35774452490E+03  0.00000000000E+00 0. -1.
         23    2    1    2    0    0  0.96922972509E+02  0.22054417878E+02  0.20476664426E+03  0.24597057307E+03  0.93229202863E+02 0.  0.
        254    2    1    2    0    0 -0.96922972509E+02 -0.22054417878E+02  0.25759347440E+03  0.93187859539E+03  0.89003531309E+03 0.  0.
        -24    2    4    4    0    0 -0.14503586860E+03  0.40107367700E+03  0.24628306116E+03  0.49896304154E+03  0.80082913590E+02 0.  0.
         24    2    4    4    0    0  0.48112896089E+02 -0.42312809488E+03  0.11310413234E+02  0.43291555385E+03  0.77043597208E+02 0.  0.
         11    1    3    3    0    0  0.68080936834E+02  0.23991230381E+02  0.48293346538E+02  0.86849527432E+02  0.00000000000E+00 0. -1.
        -11    1    3    3    0    0  0.28842035675E+02 -0.19368125030E+01  0.15647329772E+03  0.15912104564E+03  0.00000000000E+00 0.  1.
          4    1    6    6  502    0  0.14402456394E+02 -0.47540703911E+02 -0.22044298840E+02  0.54346116603E+02  0.00000000000E+00 0. -1.
          1    1    5    5  503    0 -0.19611094334E+02  0.89269191238E+02  0.90165409906E+02  0.12838763441E+03  0.00000000000E+00 0. -1.
         -2    1    5    5    0  503 -0.12542477426E+03  0.31180448576E+03  0.15611765126E+03  0.37057540714E+03  0.00000000000E+00 0.  1.
         -3    1    6    6    0  502  0.33710439695E+02 -0.37558739097E+03  0.33354712075E+02  0.37856943725E+03  0.00000000000E+00 0.  1.
<mgrwt>
<rscale>  0 0.10833060E+04</rscale>
<asrwt>0</asrwt>
<pdfrwt beam="1">  1        1 0.55037619E-01 0.10833060E+04</pdfrwt>
<pdfrwt beam="2">  1       -1 0.12616994E+00 0.10833060E+04</pdfrwt>
<totfact> 0.37962672E+01</totfact>
</mgrwt>
</event>
<event>
12    1  0.1114484E-007  0.2025757E+04  0.7818608E-02  0.8594672E-01
         -1   -1    0    0    0  501 -0.00000000000E+00  0.00000000000E+00  0.94345239528E+03  0.94345239528E+03  0.00000000000E+00 0.  1.
          1   -1    0    0  501    0  0.00000000000E+00 -0.00000000000E+00 -0.10874132660E+04  0.10874132660E+04  0.00000000000E+00 0. -1.
         23    2    1    2    0    0  0.45984816133E+03 -0.59334096677E+03  0.21917559464E+03  0.78740071238E+03  0.91913580243E+02 0.  0.
        254    2    1    2    0    0 -0.45984816133E+03  0.59334096677E+03 -0.36313646535E+03  0.12434649489E+04  0.92240075472E+03 0.  0.
        -24    2    4    4    0    0 -0.70295660267E+02  0.60616296426E+03 -0.52950863989E+03  0.81215398521E+03  0.82702339083E+02 0.  0.
         24    2    4    4    0    0 -0.38955250106E+03 -0.12821997483E+02  0.16637217454E+03  0.43131096368E+03  0.80211546710E+02 0.  0.
         13    1    3    3    0    0  0.37160765803E+03 -0.48314158657E+03  0.13945633905E+03  0.62527283220E+03  0.00000000000E+00 0. -1.
        -13    1    3    3    0    0  0.88240503295E+02 -0.11019938020E+03  0.79719255590E+02  0.16212788018E+03  0.00000000000E+00 0.  1.
          4    1    6    6  502    0 -0.11381290046E+03  0.31732648866E+02  0.40040664178E+02  0.12475412660E+03  0.00000000000E+00 0. -1.
          3    1    5    5  503    0  0.17326688126E+02  0.75325136901E+02 -0.56072990038E+02  0.95489635995E+02  0.00000000000E+00 0. -1.
         -4    1    5    5    0  503 -0.87622348392E+02  0.53083782736E+03 -0.47343564985E+03  0.71666434921E+03  0.00000000000E+00 0.  1.
         -3    1    6    6    0  502 -0.27573960060E+03 -0.44554646349E+02  0.12633151036E+03  0.30655683708E+03  0.00000000000E+00 0.  1.
<mgrwt>
<rscale>  0 0.20257568E+04</rscale>
<asrwt>0</asrwt>
<pdfrwt beam="1">  1        1 0.16729435E+00 0.20257568E+04</pdfrwt>
<pdfrwt beam="2">  1       -1 0.14514652E+00 0.20257568E+04</pdfrwt>
<totfact> 0.45712743E+00</totfact>
</mgrwt>
</event>
<event>
12    1  0.1114484E-007  0.3414493E+04  0.7818608E-02  0.8134358E-01
          2   -1    0    0  501    0  0.00000000000E+00  0.00000000000E+00  0.18136958885E+04  0.18136958885E+04  0.00000000000E+00 0. -1.
         -2   -1    0    0    0  501 -0.00000000000E+00 -0.00000000000E+00 -0.16070450598E+04  0.16070450598E+04  0.00000000000E+00 0.  1.
         23    2    1    2    0    0  0.12775981774E+04  0.93777893045E+03  0.14246376123E+03  0.15936694126E+04  0.88316748430E+02 0.  0.
        254    2    1    2    0    0 -0.12775981774E+04 -0.93777893045E+03  0.64187067476E+02  0.18270715356E+04  0.90685389734E+03 0.  0.
        -24    2    4    4    0    0 -0.62486600318E+03 -0.13846318989E+03  0.37438622731E+03  0.74584146460E+03  0.80528667119E+02 0.  0.
         24    2    4    4    0    0 -0.65273217426E+03 -0.79931574056E+03 -0.31019915984E+03  0.10812300710E+04  0.88713038667E+02 0.  0.
         13    1    3    3    0    0  0.34034301500E+03  0.23027439506E+03  0.15135765342E+01  0.41092816379E+03  0.00000000000E+00 0. -1.
        -13    1    3    3    0    0  0.93725516245E+03  0.70750453539E+03  0.14095018470E+03  0.11827412488E+04  0.00000000000E+00 0.  1.
          4    1    6    6  502    0 -0.58276759583E+03 -0.73122957337E+03 -0.30473281658E+03  0.98345149815E+03  0.00000000000E+00 0. -1.
          3    1    5    5  503    0 -0.39190947194E+03 -0.12620799928E+03  0.24389284950E+03  0.47854489373E+03  0.00000000000E+00 0. -1.
         -4    1    5    5    0  503 -0.23295653125E+03 -0.12255190610E+02  0.13049337781E+03  0.26729657087E+03  0.00000000000E+00 0.  1.
         -3    1    6    6    0  502 -0.69964578432E+02 -0.68086167190E+02 -0.54663432606E+01  0.97778572839E+02  0.00000000000E+00 0.  1.
<mgrwt>
<rscale>  0 0.34144932E+04</rscale>
<asrwt>0</asrwt>
<pdfrwt beam="1">  1        2 0.27903014E+00 0.34144932E+04</pdfrwt>
<pdfrwt beam="2">  1       -2 0.24723770E+00 0.34144932E+04</pdfrwt>
<totfact> 0.46890985E-01</totfact>
</mgrwt>
</event>
<event>
12    1  0.1114484E-007  0.1999629E+04  0.7818608E-02  0.8606794E-01
         -2   -1    0    0    0  501 -0.00000000000E+00  0.00000000000E+00  0.15682960943E+04  0.15682960943E+04  0.00000000000E+00 0.  1.
          2   -1    0    0  501    0  0.00000000000E+00 -0.00000000000E+00 -0.63739837395E+03  0.63739837395E+03  0.00000000000E+00 0. -1.
         23    2    1    2    0    0 -0.41132703663E+03  0.20231298269E+03 -0.34341617186E+03  0.58060332966E+03  0.95105653281E+02 0.  0.
        254    2    1    2    0    0  0.41132703663E+03 -0.20231298269E+03  0.12743138922E+04  0.16250911386E+04  0.89828995251E+03 0.  0.
        -24    2    4    4    0    0  0.78618269159E+02 -0.28690472577E+03  0.52650441450E+01  0.30800319723E+03  0.79643549000E+02 0.  0.
         24    2    4    4    0    0  0.33270876747E+03  0.84591743084E+02  0.12690488480E+04  0.13170879413E+04  0.79904815525E+02 0.  0.
         11    1    3    3    0    0 -0.32266682257E+03  0.12813923101E+03 -0.29379780689E+03  0.45480841268E+03  0.00000000000E+00 0.  1.
        -11    1    3    3    0    0 -0.88660214063E+02  0.74173751673E+02 -0.49618364970E+02  0.12579491698E+03  0.00000000000E+00 0. -1.
          4    1    6    6  502    0  0.22994429811E+03  0.38111996990E+02  0.96627375176E+03  0.99398786104E+03  0.00000000000E+00 0. -1.
          1    1    5    5  503    0  0.71598151417E+02 -0.19813236000E+03 -0.28858616205E+02  0.21263947680E+03  0.00000000000E+00 0. -1.
         -4    1    5    5    0  503  0.70201177426E+01 -0.88772365769E+02  0.34123660350E+02  0.95363720424E+02  0.00000000000E+00 0.  1.
         -3    1    6    6    0  502  0.10276446936E+03  0.46479746094E+02  0.30277509627E+03  0.32310008028E+03  0.00000000000E+00 0.  1.
<mgrwt>
<rscale>  0 0.19996293E+04</rscale>
<asrwt>0</asrwt>
<pdfrwt beam="1">  1        2 0.98061289E-01 0.19996293E+04</pdfrwt>
<pdfrwt beam="2">  1       -2 0.24127632E+00 0.19996293E+04</pdfrwt>
<totfact> 0.31120406E+00</totfact>
</mgrwt>
</event>
<event>
12    1  0.1114484E-007  0.1829514E+04  0.7818608E-02  0.8690760E-01
          2   -1    0    0  501    0  0.00000000000E+00  0.00000000000E+00  0.88517161482E+03  0.88517161482E+03  0.00000000000E+00 0. -1.
         -2   -1    0    0    0  501 -0.00000000000E+00 -0.00000000000E+00 -0.94533096893E+03  0.94533096893E+03  0.00000000000E+00 0.  1.
         23    2    1    2    0    0  0.63384366851E+03  0.27575732285E+03 -0.51040971067E+02  0.69933371840E+03  0.93072937752E+02 0.  0.
        254    2    1    2    0    0 -0.63384366851E+03 -0.27575732285E+03 -0.91183830384E+01  0.11311688654E+04  0.89535465588E+03 0.  0.
        -24    2    4    4    0    0 -0.17203627703E+03 -0.53969250630E+03  0.10553827323E+03  0.58141331670E+03  0.77708659410E+02 0.  0.
         24    2    4    4    0    0 -0.46180739148E+03  0.26393518345E+03 -0.11465665627E+03  0.54975554865E+03  0.78467614705E+02 0.  0.
         13    1    3    3    0    0  0.96980978852E+02  0.58131994604E+02 -0.39993155962E+02  0.11993369660E+03  0.00000000000E+00 0.  1.
        -13    1    3    3    0    0  0.53686268966E+03  0.21762532825E+03 -0.11047815105E+02  0.57940002180E+03  0.00000000000E+00 0. -1.
          4    1    6    6  502    0 -0.46399409593E+03  0.26471260375E+03 -0.11654974930E+03  0.54676057621E+03  0.00000000000E+00 0. -1.
          3    1    5    5  503    0 -0.11379386753E+03 -0.45192153477E+03  0.94357238450E+02  0.47548439125E+03  0.00000000000E+00 0. -1.
         -4    1    5    5    0  503 -0.58242409501E+02 -0.87770971535E+02  0.11181034784E+02  0.10592892545E+03  0.00000000000E+00 0.  1.
         -3    1    6    6    0  502  0.21867044494E+01 -0.77742030060E+00  0.18930930294E+01  0.29949724358E+01  0.00000000000E+00 0.  1.
<mgrwt>
<rscale>  0 0.18295137E+04</rscale>
<asrwt>0</asrwt>
<pdfrwt beam="1">  1        2 0.13618025E+00 0.18295137E+04</pdfrwt>
<pdfrwt beam="2">  1       -2 0.14543553E+00 0.18295137E+04</pdfrwt>
<totfact> 0.91872460E+00</totfact>
</mgrwt>
</event>
<event>
12    1  0.1114484E-007  0.2422814E+04  0.7818608E-02  0.8431011E-01
          1   -1    0    0  501    0  0.00000000000E+00  0.00000000000E+00  0.13658329691E+04  0.13658329691E+04  0.00000000000E+00 0. -1.
         -1   -1    0    0    0  501 -0.00000000000E+00 -0.00000000000E+00 -0.10744412026E+04  0.10744412026E+04  0.00000000000E+00 0.  1.
         23    2    1    2    0    0  0.78684948517E+03 -0.59159272518E+03  0.35664310309E+03  0.10510406090E+04  0.91531382612E+02 0.  0.
        254    2    1    2    0    0 -0.78684948517E+03  0.59159272518E+03 -0.65251336594E+02  0.13892335627E+04  0.97805832644E+03 0.  0.
        -24    2    4    4    0    0 -0.33637993694E+03  0.69244230102E+03 -0.34069516326E+03  0.84581123580E+03  0.81826952231E+02 0.  0.
         24    2    4    4    0    0 -0.45046954822E+03 -0.10084957584E+03  0.27544382667E+03  0.54342232686E+03  0.79655965620E+02 0.  0.
         13    1    3    3    0    0  0.13794500196E+03 -0.10222197399E+03  0.26177353103E+02  0.17367616229E+03  0.00000000000E+00 0.  1.
        -13    1    3    3    0    0  0.64890448321E+03 -0.48937075119E+03  0.33046574999E+03  0.87736444672E+03  0.00000000000E+00 0. -1.
          2    1    6    6  502    0 -0.10262690080E+03 -0.57692157113E+02  0.62397741025E+02  0.13324467661E+03  0.00000000000E+00 0. -1.
          1    1    5    5  503    0 -0.15536136213E+03  0.36216389838E+03 -0.13431637048E+03  0.41634208232E+03  0.00000000000E+00 0. -1.
         -2    1    5    5    0  503 -0.18101857482E+03  0.33027840264E+03 -0.20637879278E+03  0.42946915348E+03  0.00000000000E+00 0.  1.
         -1    1    6    6    0  502 -0.34784264742E+03 -0.43157418729E+02  0.21304608564E+03  0.41017765025E+03  0.00000000000E+00 0.  1.
<mgrwt>
<rscale>  0 0.24228142E+04</rscale>
<asrwt>0</asrwt>
<pdfrwt beam="1">  1        1 0.21012815E+00 0.24228142E+04</pdfrwt>
<pdfrwt beam="2">  1       -1 0.16529865E+00 0.24228142E+04</pdfrwt>
<totfact> 0.19365806E+00</totfact>
</mgrwt>
</event>
<event>
12    1  0.1114484E-007  0.2371418E+04  0.7818608E-02  0.8450283E-01
         -2   -1    0    0    0  501 -0.00000000000E+00  0.00000000000E+00  0.98859045559E+03  0.98859045559E+03  0.00000000000E+00 0.  1.
          2   -1    0    0  501    0  0.00000000000E+00 -0.00000000000E+00 -0.14221311862E+04  0.14221311862E+04  0.00000000000E+00 0. -1.
         23    2    1    2    0    0  0.73814507856E+03 -0.35667255421E+03  0.41986363854E+03  0.92501154975E+03  0.85366411927E+02 0.  0.
        254    2    1    2    0    0 -0.73814507856E+03  0.35667255421E+03 -0.85340436913E+03  0.14857100920E+04  0.89831063244E+03 0.  0.
        -24    2    4    4    0    0  0.70622851955E+02 -0.30062761356E+02  0.11880155587E+03  0.16097728045E+03  0.76866886928E+02 0.  0.
         24    2    4    4    0    0 -0.80876793052E+03  0.38673531556E+03 -0.97220592499E+03  0.13247328116E+04  0.77864573018E+02 0.  0.
         13    1    3    3    0    0  0.82807503352E+02 -0.17123718571E+02  0.26277923966E+02  0.88548481845E+02  0.00000000000E+00 0. -1.
        -13    1    3    3    0    0  0.65533757521E+03 -0.33954883564E+03  0.39358571457E+03  0.83646306791E+03  0.00000000000E+00 0.  1.
          4    1    6    6  502    0 -0.51517309505E+03  0.20792398517E+03 -0.57812683296E+03  0.80178945893E+03  0.00000000000E+00 0. -1.
          1    1    5    5  503    0  0.39121963641E+02 -0.55529691257E+02  0.79003574052E+02  0.10419039957E+03  0.00000000000E+00 0. -1.
         -2    1    5    5    0  503  0.31500888313E+02  0.25466929901E+02  0.39797981814E+02  0.56786880876E+02  0.00000000000E+00 0.  1.
         -3    1    6    6    0  502 -0.29359483547E+03  0.17881133040E+03 -0.39407909203E+03  0.52294335264E+03  0.00000000000E+00 0.  1.
<mgrwt>
<rscale>  0 0.23714176E+04</rscale>
<asrwt>0</asrwt>
<pdfrwt beam="1">  1        2 0.21878941E+00 0.23714176E+04</pdfrwt>
<pdfrwt beam="2">  1       -2 0.15209084E+00 0.23714176E+04</pdfrwt>
<totfact> 0.36590075E+00</totfact>
</mgrwt>
</event>
<event>
12    1  0.1114484E-007  0.2179922E+04  0.7818608E-02  0.8526832E-01
         -1   -1    0    0    0  501 -0.00000000000E+00  0.00000000000E+00  0.10219921595E+04  0.10219921595E+04  0.00000000000E+00 0.  1.
          1   -1    0    0  501    0  0.00000000000E+00 -0.00000000000E+00 -0.11624506648E+04  0.11624506648E+04  0.00000000000E+00 0. -1.
         23    2    1    2    0    0  0.71308516965E+03 -0.19791254394E+03  0.45260462281E+03  0.87166506574E+03  0.85376858845E+02 0.  0.
        254    2    1    2    0    0 -0.71308516965E+03  0.19791254394E+03 -0.59306312816E+03  0.13127777585E+04  0.90774541317E+03 0.  0.
        -24    2    4    4    0    0 -0.39472829575E+03 -0.41207095349E+02  0.17746938336E+03  0.44194575768E+03  0.79449471577E+02 0.  0.
         24    2    4    4    0    0 -0.31835687390E+03  0.23911963929E+03 -0.77053251152E+03  0.87083200086E+03  0.78094310676E+02 0.  0.
         11    1    3    3    0    0  0.49050953097E+03 -0.17178652532E+03  0.29400255333E+03  0.59711616258E+03  0.00000000000E+00 0.  1.
        -11    1    3    3    0    0  0.22257563868E+03 -0.26126018613E+02  0.15860206948E+03  0.27454890316E+03  0.00000000000E+00 0. -1.
          2    1    6    6  502    0 -0.30105538566E+03  0.22453420337E+03 -0.67291637719E+03  0.77062727982E+03  0.00000000000E+00 0. -1.
          1    1    5    5  503    0 -0.34692044869E+03 -0.90694783910E+01  0.14868806157E+03  0.37755025203E+03  0.00000000000E+00 0. -1.
         -4    1    5    5    0  503 -0.47807847063E+02 -0.32137616958E+02  0.28781321790E+02  0.64395505655E+02  0.00000000000E+00 0.  1.
         -1    1    6    6    0  502 -0.17301488236E+02  0.14585435919E+02 -0.97616134334E+02  0.10020472104E+03  0.00000000000E+00 0.  1.
<mgrwt>
<rscale>  0 0.21799224E+04</rscale>
<asrwt>0</asrwt>
<pdfrwt beam="1">  1        1 0.17883857E+00 0.21799224E+04</pdfrwt>
<pdfrwt beam="2">  1       -1 0.15722956E+00 0.21799224E+04</pdfrwt>
<totfact> 0.31910827E+00</totfact>
</mgrwt>
</event>
<event>
12    1  0.1114484E-007  0.2134206E+04  0.7818608E-02  0.8546323E-01
          3   -1    0    0  501    0  0.00000000000E+00  0.00000000000E+00  0.78455249097E+03  0.78455249097E+03  0.00000000000E+00 0. -1.
         -3   -1    0    0    0  501 -0.00000000000E+00 -0.00000000000E+00 -0.14514112638E+04  0.14514112638E+04  0.00000000000E+00 0.  1.
         23    2    1    2    0    0 -0.68501481337E+03  0.45195594826E+03 -0.60270161381E+03  0.10227125607E+04  0.95824177011E+02 0.  0.
        254    2    1    2    0    0  0.68501481337E+03 -0.45195594826E+03 -0.64157159048E+02  0.12132511941E+04  0.89126474468E+03 0.  0.
        -24    2    4    4    0    0  0.60758239682E+02 -0.23739300371E+03 -0.39402151440E+03  0.47084638096E+03  0.79977238988E+02 0.  0.
         24    2    4    4    0    0  0.62425657369E+03 -0.21456294454E+03  0.32986435535E+03  0.74240481309E+03  0.81368830668E+02 0.  0.
         11    1    3    3    0    0 -0.67938371446E+03  0.43392098970E+03 -0.57959333247E+03  0.99286357966E+03  0.00000000000E+00 0.  1.
        -11    1    3    3    0    0 -0.56310989188E+01  0.18034958555E+02 -0.23108281335E+02  0.29848981078E+02  0.00000000000E+00 0. -1.
          2    1    6    6  502    0  0.57784244245E+03 -0.17424873697E+03  0.30259731267E+03  0.67515157133E+03  0.00000000000E+00 0. -1.
          1    1    5    5  503    0  0.68673204075E+02 -0.16357997186E+03 -0.32072572831E+03  0.36652340846E+03  0.00000000000E+00 0. -1.
         -2    1    5    5    0  503 -0.79149643932E+01 -0.73813031857E+02 -0.73295786089E+02  0.10432297250E+03  0.00000000000E+00 0.  1.
         -1    1    6    6    0  502  0.46414131243E+02 -0.40314207575E+02  0.27267042675E+02  0.67253241763E+02  0.00000000000E+00 0.  1.
<mgrwt>
<rscale>  0 0.21342055E+04</rscale>
<asrwt>0</asrwt>
<pdfrwt beam="1">  1        3 0.12070038E+00 0.21342055E+04</pdfrwt>
<pdfrwt beam="2">  1       -3 0.22329404E+00 0.21342055E+04</pdfrwt>
<totfact> 0.14089906E-01</totfact>
</mgrwt>
</event>
<event>
12    1  0.1114484E-007  0.1455674E+04  0.7818608E-02  0.8914476E-01
         -1   -1    0    0    0  501 -0.00000000000E+00  0.00000000000E+00  0.25045367257E+03  0.25045367257E+03  0.00000000000E+00 0.  1.
          1   -1    0    0  501    0  0.00000000000E+00 -0.00000000000E+00 -0.21151484161E+04  0.21151484161E+04  0.00000000000E+00 0. -1.
         23    2    1    2    0    0 -0.33737499993E+03 -0.17102673929E+03 -0.16070172799E+03  0.42064533336E+03  0.89696237236E+02 0.  0.
        254    2    1    2    0    0  0.33737499993E+03  0.17102673929E+03 -0.17039930156E+04  0.19449567553E+04  0.85801663554E+03 0.  0.
        -24    2    4    4    0    0  0.23741306462E+03 -0.28366809242E+03 -0.36787554685E+03  0.52766370214E+03  0.79145528435E+02 0.  0.
         24    2    4    4    0    0  0.99961935307E+02  0.45469483171E+03 -0.13361174687E+04  0.14172930532E+04  0.82279583842E+02 0.  0.
         11    1    3    3    0    0 -0.85357053121E+02 -0.56993693104E+01 -0.52677405375E+02  0.10046501065E+03  0.00000000000E+00 0. -1.
        -11    1    3    3    0    0 -0.25201794681E+03 -0.16532736998E+03 -0.10802432261E+03  0.32018032271E+03  0.00000000000E+00 0.  1.
          4    1    6    6  502    0  0.86446140529E+02  0.40575560616E+03 -0.12530205157E+04  0.13199132396E+04  0.00000000000E+00 0. -1.
          1    1    5    5  503    0  0.21633939436E+03 -0.24513566519E+03 -0.35335153336E+03  0.48140578936E+03  0.00000000000E+00 0. -1.
         -2    1    5    5    0  503  0.21073670265E+02 -0.38532427233E+02 -0.14524013490E+02  0.46257912780E+02  0.00000000000E+00 0.  1.
         -3    1    6    6    0  502  0.13515794778E+02  0.48939225546E+02 -0.83096952992E+02  0.97379813628E+02  0.00000000000E+00 0.  1.
<mgrwt>
<rscale>  0 0.14556740E+04</rscale>
<asrwt>0</asrwt>
<pdfrwt beam="1">  1        1 0.32540746E+00 0.14556740E+04</pdfrwt>
<pdfrwt beam="2">  1       -1 0.38531333E-01 0.14556740E+04</pdfrwt>
<totfact> 0.15774741E+01</totfact>
</mgrwt>
</event>
<event>
12    1  0.1114484E-007  0.3246584E+04  0.7818608E-02  0.8176622E-01
         -2   -1    0    0    0  501 -0.00000000000E+00  0.00000000000E+00  0.22871369005E+04  0.22871369005E+04  0.00000000000E+00 0.  1.
          2   -1    0    0  501    0  0.00000000000E+00 -0.00000000000E+00 -0.11521289129E+04  0.11521289129E+04  0.00000000000E+00 0. -1.
         23    2    1    2    0    0 -0.17176684114E+02  0.14841281123E+04  0.30591151419E+03  0.15182427159E+04  0.92454300135E+02 0.  0.
        254    2    1    2    0    0  0.17176684114E+02 -0.14841281123E+04  0.82909647348E+03  0.19210230975E+04  0.89442578596E+03 0.  0.
        -24    2    4    4    0    0 -0.16167769970E+03 -0.10457485090E+04  0.12472305113E+03  0.10684045618E+04  0.78758145556E+02 0.  0.
         24    2    4    4    0    0  0.17885438381E+03 -0.43837960328E+03  0.70437342235E+03  0.85261853570E+03  0.81552940611E+02 0.  0.
         13    1    3    3    0    0 -0.12749168749E+02  0.36710402430E+03  0.11581014608E+03  0.38514918655E+03  0.00000000000E+00 0. -1.
        -13    1    3    3    0    0 -0.44275153643E+01  0.11170240880E+04  0.19010136811E+03  0.11330935293E+04  0.00000000000E+00 0.  1.
          2    1    6    6  502    0  0.81648865152E+02 -0.10527406074E+03  0.20679955650E+03  0.24599841791E+03  0.00000000000E+00 0. -1.
          3    1    5    5  503    0 -0.32079254386E+02 -0.33761941722E+03  0.71150940763E+02  0.34652331208E+03  0.00000000000E+00 0. -1.
         -2    1    5    5    0  503 -0.12959844531E+03 -0.70812909181E+03  0.53572110368E+02  0.72188124972E+03  0.00000000000E+00 0.  1.
         -1    1    6    6    0  502  0.97205518661E+02 -0.33310554254E+03  0.49757386585E+03  0.60662011779E+03  0.00000000000E+00 0.  1.
<mgrwt>
<rscale>  0 0.32465838E+04</rscale>
<asrwt>0</asrwt>
<pdfrwt beam="1">  1        2 0.17725060E+00 0.32465838E+04</pdfrwt>
<pdfrwt beam="2">  1       -2 0.35186722E+00 0.32465838E+04</pdfrwt>
<totfact> 0.25699284E-01</totfact>
</mgrwt>
</event>
<event>
12    1  0.1114484E-007  0.1535265E+04  0.7818608E-02  0.8861335E-01
          2   -1    0    0  501    0  0.00000000000E+00  0.00000000000E+00  0.83001688288E+03  0.83001688288E+03  0.00000000000E+00 0. -1.
         -2   -1    0    0    0  501 -0.00000000000E+00 -0.00000000000E+00 -0.70993732429E+03  0.70993732429E+03  0.00000000000E+00 0.  1.
         23    2    1    2    0    0 -0.29302223845E+02  0.36287017870E+03 -0.30144322579E+03  0.48170616671E+03  0.92948511339E+02 0.  0.
        254    2    1    2    0    0  0.29302223845E+02 -0.36287017870E+03  0.42152278439E+03  0.10582480405E+04  0.89981890981E+03 0.  0.
        -24    2    4    4    0    0  0.30842401927E+03 -0.26969601564E+03 -0.12191386672E+03  0.43507910353E+03  0.81052568830E+02 0.  0.
         24    2    4    4    0    0 -0.27912179542E+03 -0.93174163063E+02  0.54343665111E+03  0.62316893693E+03  0.80160643973E+02 0.  0.
         13    1    3    3    0    0  0.17187756580E+02  0.16381181225E+03 -0.17978008882E+03  0.24382495595E+03  0.00000000000E+00 0. -1.
        -13    1    3    3    0    0 -0.46489980426E+02  0.19905836646E+03 -0.12166313697E+03  0.23788121076E+03  0.00000000000E+00 0.  1.
          4    1    6    6  502    0 -0.24206740425E+03 -0.53635698349E+02  0.47558965187E+03  0.53633845033E+03  0.00000000000E+00 0. -1.
          1    1    5    5  503    0  0.21368942367E+03 -0.14845680084E+03 -0.10386596853E+03  0.28016197266E+03  0.00000000000E+00 0. -1.
         -2    1    5    5    0  503  0.94734595593E+02 -0.12123921480E+03 -0.18047898196E+02  0.15491713087E+03  0.00000000000E+00 0.  1.
         -3    1    6    6    0  502 -0.37054391166E+02 -0.39538464715E+02  0.67846999243E+02  0.86830486599E+02  0.00000000000E+00 0.  1.
<mgrwt>
<rscale>  0 0.15352654E+04</rscale>
<asrwt>0</asrwt>
<pdfrwt beam="1">  1        2 0.12769490E+00 0.15352654E+04</pdfrwt>
<pdfrwt beam="2">  1       -2 0.10922113E+00 0.15352654E+04</pdfrwt>
<totfact> 0.21118651E+01</totfact>
</mgrwt>
</event>
<event>
12    1  0.1114484E-007  0.1728795E+04  0.7818608E-02  0.8745110E-01
          2   -1    0    0  501    0  0.00000000000E+00  0.00000000000E+00  0.23080487187E+04  0.23080487187E+04  0.00000000000E+00 0. -1.
         -2   -1    0    0    0  501 -0.00000000000E+00 -0.00000000000E+00 -0.32372945653E+03  0.32372945653E+03  0.00000000000E+00 0.  1.
         23    2    1    2    0    0 -0.10519623086E+03 -0.61978416936E+03  0.66618023818E+03  0.92053327600E+03  0.91579140100E+02 0.  0.
        254    2    1    2    0    0  0.10519623086E+03  0.61978416936E+03  0.13181390239E+04  0.17112448992E+04  0.89200333799E+03 0.  0.
        -24    2    4    4    0    0 -0.10080980523E+03  0.78212271119E+03  0.80687950175E+03  0.11310969105E+04  0.80294075005E+02 0.  0.
         24    2    4    4    0    0  0.20600603609E+03 -0.16233854183E+03  0.51125952218E+03  0.58014798865E+03  0.79956867409E+02 0.  0.
         11    1    3    3    0    0 -0.26870651033E+01 -0.16765528472E+03  0.13325944775E+03  0.21418122053E+03  0.00000000000E+00 0.  1.
        -11    1    3    3    0    0 -0.10250916576E+03 -0.45212888464E+03  0.53292079043E+03  0.70635205547E+03  0.00000000000E+00 0. -1.
          2    1    6    6  502    0  0.20896080134E+03 -0.15843592163E+03  0.51195074645E+03  0.57520441979E+03  0.00000000000E+00 0. -1.
          3    1    5    5  503    0 -0.86504554875E+02  0.37856180553E+03  0.41635023708E+03  0.56933259044E+03  0.00000000000E+00 0. -1.
         -4    1    5    5    0  503 -0.14305250357E+02  0.40356090566E+03  0.39052926467E+03  0.56176432009E+03  0.00000000000E+00 0.  1.
         -1    1    6    6    0  502 -0.29547652473E+01 -0.39026202003E+01 -0.69122426611E+00  0.49435688607E+01  0.00000000000E+00 0.  1.
<mgrwt>
<rscale>  0 0.17287954E+04</rscale>
<asrwt>0</asrwt>
<pdfrwt beam="1">  1        2 0.35508441E+00 0.17287954E+04</pdfrwt>
<pdfrwt beam="2">  1       -2 0.49804533E-01 0.17287954E+04</pdfrwt>
<totfact> 0.16259523E+01</totfact>
</mgrwt>
</event>
<event>
12    1  0.1114484E-007  0.1986724E+04  0.7818608E-02  0.8612853E-01
         -1   -1    0    0    0  501 -0.00000000000E+00  0.00000000000E+00  0.57267729072E+03  0.57267729072E+03  0.00000000000E+00 0.  1.
          1   -1    0    0  501    0  0.00000000000E+00 -0.00000000000E+00 -0.17230794260E+04  0.17230794260E+04  0.00000000000E+00 0. -1.
         23    2    1    2    0    0 -0.44971905711E+03  0.76604665426E+02 -0.12051160682E+04  0.12914962293E+04  0.86846228051E+02 0.  0.
        254    2    1    2    0    0  0.44971905711E+03 -0.76604665426E+02  0.54713932892E+02  0.10042604875E+04  0.89298936565E+03 0.  0.
        -24    2    4    4    0    0  0.11690661012E+03 -0.26979508727E+02  0.45398508161E+03  0.47621301591E+03  0.79254859897E+02 0.  0.
         24    2    4    4    0    0  0.33281244698E+03 -0.49625156699E+02 -0.39927114872E+03  0.52804747156E+03  0.78675923775E+02 0.  0.
         13    1    3    3    0    0 -0.18275590957E+03  0.91162741273E+01 -0.58603137812E+03  0.61393452834E+03  0.00000000000E+00 0. -1.
        -13    1    3    3    0    0 -0.26696314754E+03  0.67488391299E+02 -0.61908469006E+03  0.67756170094E+03  0.00000000000E+00 0.  1.
          4    1    6    6  502    0  0.23219460368E+03 -0.18733149294E+02 -0.32221441489E+03  0.39760205485E+03  0.00000000000E+00 0. -1.
          1    1    5    5  503    0  0.43479993467E+02  0.25231143262E+02  0.21526295963E+03  0.22105488506E+03  0.00000000000E+00 0. -1.
         -2    1    5    5    0  503  0.73426616657E+02 -0.52210651989E+02  0.23872212198E+03  0.25515813085E+03  0.00000000000E+00 0.  1.
         -3    1    6    6    0  502  0.10061784330E+03 -0.30892007406E+02 -0.77056733826E+02  0.13044541671E+03  0.00000000000E+00 0.  1.
<mgrwt>
<rscale>  0 0.19867244E+04</rscale>
<asrwt>0</asrwt>
<pdfrwt beam="1">  1        1 0.26508914E+00 0.19867244E+04</pdfrwt>
<pdfrwt beam="2">  1       -1 0.88104200E-01 0.19867244E+04</pdfrwt>
<totfact> 0.54032230E+00</totfact>
</mgrwt>
</event>
<event>
12    1  0.1114484E-007  0.1523901E+04  0.7818608E-02  0.8868713E-01
         -2   -1    0    0    0  501 -0.00000000000E+00  0.00000000000E+00  0.37639944875E+03  0.37639944875E+03  0.00000000000E+00 0. -1.
          2   -1    0    0  501    0  0.00000000000E+00 -0.00000000000E+00 -0.15424264740E+04  0.15424264740E+04  0.00000000000E+00 0.  1.
         23    2    1    2    0    0  0.21170845369E+03 -0.17868911348E+03  0.12968717930E+03  0.31964044106E+03  0.92741460263E+02 0.  0.
        254    2    1    2    0    0 -0.21170845369E+03  0.17868911348E+03 -0.12957142046E+04  0.15991854817E+04  0.89541534294E+03 0.  0.
        -24    2    4    4    0    0 -0.39059524182E+03  0.35428030169E+03 -0.12075515120E+04  0.13200467268E+04  0.79142477087E+02 0.  0.
         24    2    4    4    0    0  0.17888678813E+03 -0.17559118821E+03 -0.88162692586E+02  0.27913875494E+03  0.85516289674E+02 0.  0.
         13    1    3    3    0    0  0.34959136807E+02 -0.66872030060E+02  0.68016081925E+02  0.10158837065E+03  0.00000000000E+00 0. -1.
        -13    1    3    3    0    0  0.17674931688E+03 -0.11181708342E+03  0.61671097375E+02  0.21805207041E+03  0.00000000000E+00 0.  1.
          2    1    6    6  502    0  0.18791123509E+03 -0.16059212559E+03 -0.79864651315E+02  0.25976686780E+03  0.00000000000E+00 0. -1.
          3    1    5    5  503    0 -0.30533946398E+03  0.31524726751E+03 -0.97034820335E+03  0.10649829406E+04  0.00000000000E+00 0. -1.
         -4    1    5    5    0  503 -0.85255777837E+02  0.39033034175E+02 -0.23720330864E+03  0.25506378622E+03  0.00000000000E+00 0.  1.
         -1    1    6    6    0  502 -0.90244469618E+01 -0.14999062621E+02 -0.82980412708E+01  0.19371887141E+02  0.00000000000E+00 0.  1.
<mgrwt>
<rscale>  0 0.15239009E+04</rscale>
<asrwt>0</asrwt>
<pdfrwt beam="1">  1        2 0.23729638E+00 0.15239009E+04</pdfrwt>
<pdfrwt beam="2">  1       -2 0.57907607E-01 0.15239009E+04</pdfrwt>
<totfact> 0.32336661E+01</totfact>
</mgrwt>
</event>
<event>
12    1  0.1114484E-007  0.1912620E+04  0.7818608E-02  0.8648600E-01
          1   -1    0    0  501    0  0.00000000000E+00  0.00000000000E+00  0.15787809266E+04  0.15787809266E+04  0.00000000000E+00 0. -1.
         -1   -1    0    0    0  501 -0.00000000000E+00 -0.00000000000E+00 -0.57926284990E+03  0.57926284990E+03  0.00000000000E+00 0.  1.
         23    2    1    2    0    0 -0.15358403561E+03 -0.71453745457E+03  0.52978501133E+03  0.90697679662E+03  0.88220867126E+02 0.  0.
        254    2    1    2    0    0  0.15358403561E+03  0.71453745457E+03  0.46973306533E+03  0.12510669798E+04  0.90020420206E+03 0.  0.
        -24    2    4    4    0    0 -0.35671929543E+03  0.16595428112E+03  0.21527591469E+03  0.45575264422E+03  0.81100395299E+02 0.  0.
         24    2    4    4    0    0  0.51030333104E+03  0.54858317345E+03  0.25445715064E+03  0.79531433562E+03  0.80146510074E+02 0.  0.
         13    1    3    3    0    0 -0.12985908310E+03 -0.64143448265E+03  0.43910654878E+03  0.78810921716E+03  0.00000000000E+00 0. -1.
        -13    1    3    3    0    0 -0.23724952511E+02 -0.73102971921E+02  0.90678462551E+02  0.11886757946E+03  0.00000000000E+00 0.  1.
          2    1    6    6  502    0  0.50564532211E+03  0.53811885257E+03  0.25965988686E+03  0.78273389354E+03  0.00000000000E+00 0. -1.
          1    1    5    5  503    0 -0.33404376586E+03  0.15669520788E+03  0.22167194169E+03  0.43043823647E+03  0.00000000000E+00 0. -1.
         -2    1    5    5    0  503 -0.22675529564E+02  0.92590732463E+01 -0.63960270018E+01  0.25314407752E+02  0.00000000000E+00 0.  1.
         -1    1    6    6    0  502  0.46580089287E+01  0.10464320878E+02 -0.52027362226E+01  0.12580442076E+02  0.00000000000E+00 0.  1.
<mgrwt>
<rscale>  0 0.19126203E+04</rscale>
<asrwt>0</asrwt>
<pdfrwt beam="1">  1        1 0.24288937E+00 0.19126203E+04</pdfrwt>
<pdfrwt beam="2">  1       -1 0.89117363E-01 0.19126203E+04</pdfrwt>
<totfact> 0.66578551E+00</totfact>
</mgrwt>
</event>
<event>
12    1  0.1114484E-007  0.3304759E+04  0.7818608E-02  0.8161685E-01
          2   -1    0    0  501    0  0.00000000000E+00  0.00000000000E+00  0.20833076422E+04  0.20833076422E+04  0.00000000000E+00 0. -1.
         -2   -1    0    0    0  501 -0.00000000000E+00 -0.00000000000E+00 -0.13105881355E+04  0.13105881355E+04  0.00000000000E+00 0.  1.
         23    2    1    2    0    0  0.97251104282E+03  0.85013773421E+03  0.11954596302E+04  0.17618741349E+04  0.81023727684E+02 0.  0.
        254    2    1    2    0    0 -0.97251104282E+03 -0.85013773421E+03 -0.42274012343E+03  0.16320216427E+04  0.90347857462E+03 0.  0.
        -24    2    4    4    0    0 -0.76826571367E+03 -0.82327640809E+03 -0.66010192745E+03  0.13077752286E+04  0.80778976520E+02 0.  0.
         24    2    4    4    0    0 -0.20424532915E+03 -0.26861326122E+02  0.23736180402E+03  0.32424641409E+03  0.79733466773E+02 0.  0.
         13    1    3    3    0    0  0.41689872634E+03  0.35284171817E+03  0.55894831454E+03  0.78148899188E+03  0.00000000000E+00 0.  1.
        -13    1    3    3    0    0  0.55561231648E+03  0.49729601604E+03  0.63651131565E+03  0.98038514307E+03  0.00000000000E+00 0. -1.
          2    1    6    6  502    0 -0.16466574151E+03 -0.44598666634E+02  0.15196710190E+03  0.22846848263E+03  0.00000000000E+00 0. -1.
          1    1    5    5  503    0 -0.69129568737E+03 -0.77294677487E+03 -0.60504914506E+03  0.12005919007E+04  0.00000000000E+00 0. -1.
         -2    1    5    5    0  503 -0.76970026298E+02 -0.50329633219E+02 -0.55052782394E+02  0.10718332789E+03  0.00000000000E+00 0.  1.
         -1    1    6    6    0  502 -0.39579587637E+02  0.17737340513E+02  0.85394702119E+02  0.95777931466E+02  0.00000000000E+00 0.  1.
<mgrwt>
<rscale>  0 0.33047592E+04</rscale>
<asrwt>0</asrwt>
<pdfrwt beam="1">  1        2 0.32050887E+00 0.33047592E+04</pdfrwt>
<pdfrwt beam="2">  1       -2 0.20162894E+00 0.33047592E+04</pdfrwt>
<totfact> 0.65045538E-01</totfact>
</mgrwt>
</event>
<event>
12    1  0.1114484E-007  0.1599072E+04  0.7818608E-02  0.8821118E-01
          2   -1    0    0  501    0  0.00000000000E+00  0.00000000000E+00  0.94642922670E+03  0.94642922670E+03  0.00000000000E+00 0. -1.
         -2   -1    0    0    0  501 -0.00000000000E+00 -0.00000000000E+00 -0.67544193033E+03  0.67544193033E+03  0.00000000000E+00 0.  1.
         23    2    1    2    0    0 -0.14596843964E+03  0.51108013506E+03  0.72534659075E+02  0.54404262241E+03  0.90616821894E+02 0.  0.
        254    2    1    2    0    0  0.14596843964E+03 -0.51108013506E+03  0.19845263730E+03  0.10778285346E+04  0.91641759638E+03 0.  0.
        -24    2    4    4    0    0 -0.21386577579E+03 -0.40684048514E+03 -0.21548898911E+03  0.51385760159E+03  0.79726908147E+02 0.  0.
         24    2    4    4    0    0  0.35983421543E+03 -0.10423964992E+03  0.41394162641E+03  0.56397093302E+03  0.79805864515E+02 0.  0.
         11    1    3    3    0    0 -0.15600149345E+03  0.43009527102E+03  0.58444765220E+02  0.46123117706E+03  0.00000000000E+00 0. -1.
        -11    1    3    3    0    0  0.10033053807E+02  0.80984864037E+02  0.14089893855E+02  0.82811445348E+02  0.00000000000E+00 0.  1.
          4    1    6    6  502    0  0.14841988943E+03 -0.68584792475E+02  0.13422775341E+03  0.21154060396E+03  0.00000000000E+00 0. -1.
          1    1    5    5  503    0 -0.47248688506E+02 -0.10723153768E+03 -0.18973724090E+02  0.11870570098E+03  0.00000000000E+00 0. -1.
         -2    1    5    5    0  503 -0.16661708728E+03 -0.29960894746E+03 -0.19651526502E+03  0.39515190061E+03  0.00000000000E+00 0.  1.
         -1    1    6    6    0  502  0.21141432600E+03 -0.35654857441E+02  0.27971387299E+03  0.35243032906E+03  0.00000000000E+00 0.  1.
<mgrwt>
<rscale>  0 0.15990722E+04</rscale>
<asrwt>0</asrwt>
<pdfrwt beam="1">  1        2 0.14560450E+00 0.15990722E+04</pdfrwt>
<pdfrwt beam="2">  1       -2 0.10391414E+00 0.15990722E+04</pdfrwt>
<totfact> 0.19732896E+01</totfact>
</mgrwt>
</event>
<event>
12    1  0.1114484E-007  0.2057408E+04  0.7818608E-02  0.8580241E-01
          2   -1    0    0  501    0  0.00000000000E+00  0.00000000000E+00  0.21756434199E+04  0.21756434199E+04  0.00000000000E+00 0.  1.
         -2   -1    0    0    0  501 -0.00000000000E+00 -0.00000000000E+00 -0.48639939395E+03  0.48639939395E+03  0.00000000000E+00 0. -1.
         23    2    1    2    0    0 -0.39506672983E+02 -0.22643902019E+03 -0.34626474163E+03  0.42519708605E+03  0.89765715138E+02 0.  0.
        254    2    1    2    0    0  0.39506672983E+02  0.22643902019E+03  0.20355087676E+04  0.22368457278E+04  0.89852515827E+03 0.  0.
        -24    2    4    4    0    0  0.19611268566E+03  0.51864402454E+03  0.15098478578E+04  0.16105002084E+04  0.81354520190E+02 0.  0.
         24    2    4    4    0    0 -0.15660601268E+03 -0.29220500435E+03  0.52566090977E+03  0.62634551938E+03  0.77975058882E+02 0.  0.
         11    1    3    3    0    0  0.99489782358E+01 -0.22500629810E-01 -0.19295186358E+01  0.10134382881E+02  0.00000000000E+00 0.  1.
        -11    1    3    3    0    0 -0.49455651219E+02 -0.22641651956E+03 -0.34433522299E+03  0.41506270317E+03  0.00000000000E+00 0. -1.
          4    1    6    6  502    0 -0.39548376650E+02 -0.21392206374E+02  0.57774743179E+02  0.73209436130E+02  0.00000000000E+00 0. -1.
          1    1    5    5  503    0  0.88334542713E+02  0.28092599706E+03  0.90593932662E+03  0.95260089795E+03  0.00000000000E+00 0. -1.
         -2    1    5    5    0  503  0.10777814295E+03  0.23771802748E+03  0.60390853119E+03  0.65789931048E+03  0.00000000000E+00 0.  1.
         -3    1    6    6    0  502 -0.11705763603E+03 -0.27081279798E+03  0.46788616659E+03  0.55313608325E+03  0.00000000000E+00 0.  1.
<mgrwt>
<rscale>  0 0.20574077E+04</rscale>
<asrwt>0</asrwt>
<pdfrwt beam="1">  1        2 0.33471437E+00 0.20574077E+04</pdfrwt>
<pdfrwt beam="2">  1       -2 0.74830677E-01 0.20574077E+04</pdfrwt>
<totfact> 0.79087458E+00</totfact>
</mgrwt>
</event>
<event>
12    1  0.1114484E-007  0.1458817E+04  0.7818608E-02  0.8912311E-01
         -2   -1    0    0    0  501 -0.00000000000E+00  0.00000000000E+00  0.25564339890E+03  0.25564339890E+03  0.00000000000E+00 0.  1.
          2   -1    0    0  501    0  0.00000000000E+00 -0.00000000000E+00 -0.20811677996E+04  0.20811677996E+04  0.00000000000E+00 0. -1.
         23    2    1    2    0    0 -0.39928491273E+03 -0.12334934733E+03 -0.31379275957E+03  0.53043052104E+03  0.90813758110E+02 0.  0.
        254    2    1    2    0    0  0.39928491273E+03  0.12334934733E+03 -0.15117316412E+04  0.18063806775E+04  0.89612225402E+03 0.  0.
        -24    2    4    4    0    0 -0.78623283335E+02  0.41056774864E+03 -0.67724819930E+03  0.79983255265E+03  0.79495232053E+02 0.  0.
         24    2    4    4    0    0  0.47790819607E+03 -0.28721840130E+03 -0.83448344186E+03  0.10065481249E+04  0.76719352126E+02 0.  0.
         11    1    3    3    0    0 -0.28141740558E+03 -0.80555070359E+02 -0.26818330989E+03  0.39699768668E+03  0.00000000000E+00 0.  1.
        -11    1    3    3    0    0 -0.11786750716E+03 -0.42794276976E+02 -0.45609449683E+02  0.13343283436E+03  0.00000000000E+00 0. -1.
          2    1    6    6  502    0  0.57470845455E+02 -0.46919779920E+02 -0.72711890783E+02  0.10388158107E+03  0.00000000000E+00 0. -1.
          1    1    5    5  503    0  0.11994124229E+02  0.62895822849E+02 -0.75610249135E+02  0.99079025641E+02  0.00000000000E+00 0. -1.
         -2    1    5    5    0  503 -0.90617407563E+02  0.34767192579E+03 -0.60163795016E+03  0.70075352701E+03  0.00000000000E+00 0.  1.
         -1    1    6    6    0  502  0.42043735061E+03 -0.24029862138E+03 -0.76177155108E+03  0.90266654378E+03  0.00000000000E+00 0.  1.
<mgrwt>
<rscale>  0 0.14588171E+04</rscale>
<asrwt>0</asrwt>
<pdfrwt beam="1">  1        2 0.32017966E+00 0.14588171E+04</pdfrwt>
<pdfrwt beam="2">  1       -2 0.39329754E-01 0.14588171E+04</pdfrwt>
<totfact> 0.35692882E+01</totfact>
</mgrwt>
</event>
<event>
12    1  0.1114484E-007  0.2113362E+04  0.7818608E-02  0.8555380E-01
         -1   -1    0    0    0  501 -0.00000000000E+00  0.00000000000E+00  0.80016542558E+03  0.80016542558E+03  0.00000000000E+00 0.  1.
          1   -1    0    0  501    0  0.00000000000E+00 -0.00000000000E+00 -0.13954299012E+04  0.13954299012E+04  0.00000000000E+00 0. -1.
         23    2    1    2    0    0  0.55578808468E+03 -0.19496985275E+03 -0.86526138525E+03  0.10505028733E+04  0.89248996890E+02 0.  0.
        254    2    1    2    0    0 -0.55578808468E+03  0.19496985275E+03  0.26999690968E+03  0.11450924534E+04  0.94415293101E+03 0.  0.
        -24    2    4    4    0    0 -0.69286875690E+03  0.17166624482E+03 -0.11496498168E+03  0.72747192653E+03  0.80386833304E+02 0.  0.
         24    2    4    4    0    0  0.13708067223E+03  0.23303607928E+02  0.38496189136E+03  0.41762052691E+03  0.82928148786E+02 0.  0.
         11    1    3    3    0    0  0.30080299170E+03 -0.13597274564E+03 -0.54148947414E+03  0.63417811218E+03  0.00000000000E+00 0. -1.
        -11    1    3    3    0    0  0.25498509298E+03 -0.58997107112E+02 -0.32377191112E+03  0.41632476112E+03  0.00000000000E+00 0.  1.
          2    1    6    6  502    0  0.11132946856E+03  0.50615737561E+02  0.32029239811E+03  0.34284606421E+03  0.00000000000E+00 0. -1.
          1    1    5    5  503    0 -0.68928903845E+03  0.17718394587E+03 -0.11476664852E+03  0.72089174833E+03  0.00000000000E+00 0. -1.
         -2    1    5    5    0  503 -0.35797184557E+01 -0.55177010475E+01 -0.19833316399E+00  0.65801781978E+01  0.00000000000E+00 0.  1.
         -1    1    6    6    0  502  0.25751203665E+02 -0.27312129633E+02  0.64669493251E+02  0.74774462704E+02  0.00000000000E+00 0.  1.
<mgrwt>
<rscale>  0 0.21133620E+04</rscale>
<asrwt>0</asrwt>
<pdfrwt beam="1">  1        1 0.21468152E+00 0.21133620E+04</pdfrwt>
<pdfrwt beam="2">  1       -1 0.12310237E+00 0.21133620E+04</pdfrwt>
<totfact> 0.41332947E+00</totfact>
</mgrwt>
</event>
<event>
12    1  0.1114484E-007  0.1388590E+04  0.7818608E-02  0.8962119E-01
          2   -1    0    0  501    0  0.00000000000E+00  0.00000000000E+00  0.24593745651E+04  0.24593745651E+04  0.00000000000E+00 0. -1.
         -2   -1    0    0    0  501 -0.00000000000E+00 -0.00000000000E+00 -0.19600337696E+03  0.19600337696E+03  0.00000000000E+00 0.  1.
         23    2    1    2    0    0 -0.20152928866E+03 -0.58975410496E+02  0.13157058200E+04  0.13350684032E+04  0.85051062475E+02 0.  0.
        254    2    1    2    0    0  0.20152928866E+03  0.58975410496E+02  0.94766536811E+03  0.13203095388E+04  0.89501702507E+03 0.  0.
        -24    2    4    4    0    0  0.29348653973E+03 -0.18386377720E+02 -0.52418035176E+02  0.30903431277E+03  0.79260003595E+02 0.  0.
         24    2    4    4    0    0 -0.91957251069E+02  0.77361788216E+02  0.10000834033E+04  0.10112752261E+04  0.89831993193E+02 0.  0.
         11    1    3    3    0    0 -0.15983751756E+03 -0.39873216769E+02  0.76924019256E+03  0.78668187934E+03  0.00000000000E+00 0.  1.
        -11    1    3    3    0    0 -0.41691771097E+02 -0.19102193726E+02  0.54646562745E+03  0.54838652388E+03  0.00000000000E+00 0. -1.
          2    1    6    6  502    0 -0.87289400251E+02  0.44911973666E+02  0.91236197494E+03  0.91762786471E+03  0.00000000000E+00 0. -1.
          3    1    5    5  503    0  0.17186191295E+03 -0.16955728489E+02  0.86880257265E+01  0.17291470626E+03  0.00000000000E+00 0. -1.
         -4    1    5    5    0  503  0.12162462678E+03 -0.14306492315E+01 -0.61106060903E+02  0.13611960651E+03  0.00000000000E+00 0.  1.
         -1    1    6    6    0  502 -0.46678508180E+01  0.32449814550E+02  0.87721428345E+02  0.93647361343E+02  0.00000000000E+00 0.  1.
<mgrwt>
<rscale>  0 0.13885902E+04</rscale>
<asrwt>0</asrwt>
<pdfrwt beam="1">  1        2 0.37836530E+00 0.13885902E+04</pdfrwt>
<pdfrwt beam="2">  1       -2 0.30154367E-01 0.13885902E+04</pdfrwt>
<totfact> 0.36481797E+01</totfact>
</mgrwt>
</event>
<event>
12    1  0.1114484E-007  0.2213740E+04  0.7818608E-02  0.8512731E-01
         -2   -1    0    0    0  501 -0.00000000000E+00  0.00000000000E+00  0.64267213675E+03  0.64267213675E+03  0.00000000000E+00 0.  1.
          2   -1    0    0  501    0  0.00000000000E+00 -0.00000000000E+00 -0.19063553577E+04  0.19063553577E+04  0.00000000000E+00 0. -1.
         23    2    1    2    0    0  0.22638298228E+03 -0.35098446715E+03  0.41961720387E+03  0.59871584141E+03  0.89121883555E+02 0.  0.
        254    2    1    2    0    0 -0.22638298228E+03  0.35098446715E+03 -0.16833004249E+04  0.19503116531E+04  0.89206270685E+03 0.  0.
        -24    2    4    4    0    0  0.30563915440E+03  0.11099766211E+03 -0.31197829872E+03  0.45783233601E+03  0.80896324546E+02 0.  0.
         24    2    4    4    0    0 -0.53202213667E+03  0.23998680504E+03 -0.13713221261E+04  0.14924793171E+04  0.79554495506E+02 0.  0.
         11    1    3    3    0    0  0.20785918330E+03 -0.35086435605E+03  0.40790531433E+03  0.57679977625E+03  0.00000000000E+00 0.  1.
        -11    1    3    3    0    0  0.18523798981E+02 -0.12011109643E+00  0.11711889542E+02  0.21916065158E+02  0.00000000000E+00 0. -1.
          4    1    6    6  502    0 -0.30350500857E+03  0.16774732482E+03 -0.87867517826E+03  0.94462930513E+03  0.00000000000E+00 0. -1.
          1    1    5    5  503    0  0.89230509314E+02  0.43939621565E+00 -0.58598394798E+02  0.10675227742E+03  0.00000000000E+00 0. -1.
         -2    1    5    5    0  503  0.21640864508E+03  0.11055826589E+03 -0.25337990393E+03  0.35108005859E+03  0.00000000000E+00 0.  1.
         -3    1    6    6    0  502 -0.22851712810E+03  0.72239480221E+02 -0.49264694788E+03  0.54785001195E+03  0.00000000000E+00 0.  1.
<mgrwt>
<rscale>  0 0.22137402E+04</rscale>
<asrwt>0</asrwt>
<pdfrwt beam="1">  1        2 0.29328543E+00 0.22137402E+04</pdfrwt>
<pdfrwt beam="2">  1       -2 0.98872639E-01 0.22137402E+04</pdfrwt>
<totfact> 0.58345012E+00</totfact>
</mgrwt>
</event>
<event>
12    1  0.1114484E-007  0.1243461E+04  0.7818608E-02  0.9075643E-01
          1   -1    0    0  501    0  0.00000000000E+00  0.00000000000E+00  0.16039122731E+04  0.16039122731E+04  0.00000000000E+00 0. -1.
         -1   -1    0    0    0  501 -0.00000000000E+00 -0.00000000000E+00 -0.24100364907E+03  0.24100364907E+03  0.00000000000E+00 0.  1.
         23    2    1    2    0    0  0.16614060195E+03 -0.81191900205E+02  0.55072402894E+01  0.20674204481E+03  0.92288239347E+02 0.  0.
        254    2    1    2    0    0 -0.16614060195E+03  0.81191900205E+02  0.13574013837E+04  0.16381738773E+04  0.89826516776E+03 0.  0.
        -24    2    4    4    0    0 -0.23536203261E+02  0.38664402186E+03  0.22703243055E+03  0.45602256350E+03  0.79782838951E+02 0.  0.
         24    2    4    4    0    0 -0.14260439868E+03 -0.30545212166E+03  0.11303689532E+04  0.11821513138E+04  0.78171256790E+02 0.  0.
         11    1    3    3    0    0  0.76581093961E+02 -0.87425838760E+02 -0.51363034023E+01  0.11633710864E+03  0.00000000000E+00 0. -1.
        -11    1    3    3    0    0  0.89559507984E+02  0.62339385546E+01  0.10643543692E+02  0.90404936163E+02  0.00000000000E+00 0.  1.
          2    1    6    6  502    0 -0.11999813484E+03 -0.28775325623E+03  0.95933900222E+03  0.10087283133E+04  0.00000000000E+00 0. -1.
          3    1    5    5  503    0 -0.14841897865E+02  0.34601458911E+03  0.22767865198E+03  0.41446826944E+03  0.00000000000E+00 0. -1.
         -4    1    5    5    0  503 -0.86943053958E+01  0.40629432756E+02 -0.64622142773E+00  0.41554294057E+02  0.00000000000E+00 0.  1.
         -1    1    6    6    0  502 -0.22606263849E+02 -0.17698865425E+02  0.17102995096E+03  0.17342300057E+03  0.00000000000E+00 0.  1.
<mgrwt>
<rscale>  0 0.12434608E+04</rscale>
<asrwt>0</asrwt>
<pdfrwt beam="1">  1        1 0.24675573E+00 0.12434608E+04</pdfrwt>
<pdfrwt beam="2">  1       -1 0.37077485E-01 0.12434608E+04</pdfrwt>
<totfact> 0.38265617E+01</totfact>
</mgrwt>
</event>
<event>
12    1  0.1114484E-007  0.1979956E+04  0.7818608E-02  0.8616049E-01
         -1   -1    0    0    0  501 -0.00000000000E+00  0.00000000000E+00  0.49027803354E+03  0.49027803354E+03  0.00000000000E+00 0.  1.
          1   -1    0    0  501    0  0.00000000000E+00 -0.00000000000E+00 -0.19989815503E+04  0.19989815503E+04  0.00000000000E+00 0. -1.
         23    2    1    2    0    0  0.49460994560E+03  0.11104881210E+03 -0.13536421935E+04  0.14494178092E+04  0.10720989055E+03 0.  0.
        254    2    1    2    0    0 -0.49460994560E+03 -0.11104881210E+03 -0.15506132329E+03  0.10398417747E+04  0.89457032446E+03 0.  0.
        -24    2    4    4    0    0 -0.15965050655E+03 -0.48381153564E+03 -0.25486860818E+02  0.51630600142E+03  0.79752246115E+02 0.  0.
         24    2    4    4    0    0 -0.33495943904E+03  0.37276272355E+03 -0.12957446247E+03  0.52353577325E+03  0.78423788990E+02 0.  0.
         13    1    3    3    0    0  0.14008727790E+03 -0.86194927049E+01 -0.44971115849E+03  0.47110388149E+03  0.00000000000E+00 0.  1.
        -13    1    3    3    0    0  0.35452266769E+03  0.11966830480E+03 -0.90393103496E+03  0.97831392766E+03  0.00000000000E+00 0. -1.
          4    1    6    6  502    0 -0.35098320429E+02  0.52434345232E+02  0.82167717415E+01  0.63629930022E+02  0.00000000000E+00 0. -1.
          1    1    5    5  503    0 -0.12957050717E+03 -0.27368134886E+03 -0.27241923824E+02  0.30402651110E+03  0.00000000000E+00 0. -1.
         -2    1    5    5    0  503 -0.30079999388E+02 -0.21013018679E+03  0.17550630059E+01  0.21227949031E+03  0.00000000000E+00 0.  1.
         -3    1    6    6    0  502 -0.29986111861E+03  0.32032837831E+03 -0.13779123421E+03  0.45990584323E+03  0.00000000000E+00 0.  1.
<mgrwt>
<rscale>  0 0.19799563E+04</rscale>
<asrwt>0</asrwt>
<pdfrwt beam="1">  1        1 0.30753562E+00 0.19799563E+04</pdfrwt>
<pdfrwt beam="2">  1       -1 0.75427392E-01 0.19799563E+04</pdfrwt>
<totfact> 0.48998616E+00</totfact>
</mgrwt>
</event>
<event>
12    1  0.1114484E-007  0.1282480E+04  0.7818608E-02  0.9043575E-01
         -2   -1    0    0    0  501 -0.00000000000E+00  0.00000000000E+00  0.63561158023E+03  0.63561158023E+03  0.00000000000E+00 0.  1.
          2   -1    0    0  501    0  0.00000000000E+00 -0.00000000000E+00 -0.64691822452E+03  0.64691822452E+03  0.00000000000E+00 0. -1.
         23    2    1    2    0    0  0.19263670141E+03  0.13976556384E+03 -0.20638383525E+03  0.32786999489E+03  0.90890783559E+02 0.  0.
        254    2    1    2    0    0 -0.19263670141E+03 -0.13976556384E+03  0.19507719096E+03  0.95465980985E+03  0.90370179293E+03 0.  0.
        -24    2    4    4    0    0  0.18754838288E+01 -0.41103065768E+03 -0.17114955769E+03  0.45273504850E+03  0.82019107812E+02 0.  0.
         24    2    4    4    0    0 -0.19451218523E+03  0.27126509384E+03  0.36622674865E+03  0.50192476136E+03  0.79916789839E+02 0.  0.
         13    1    3    3    0    0  0.56701550787E+01  0.79063205608E+01  0.92899161677E+01  0.13452252816E+02  0.00000000000E+00 0.  1.
        -13    1    3    3    0    0  0.18696654633E+03  0.13185924328E+03 -0.21567375141E+03  0.31441774208E+03  0.00000000000E+00 0. -1.
          4    1    6    6  502    0 -0.15077237922E+03  0.18856645932E+03  0.21077462424E+03  0.32049268656E+03  0.00000000000E+00 0. -1.
          1    1    5    5  503    0  0.25127977586E+02 -0.19293235338E+03 -0.11620728646E+03  0.22662400947E+03  0.00000000000E+00 0. -1.
         -2    1    5    5    0  503 -0.23252493757E+02 -0.21809830430E+03 -0.54942271226E+02  0.22611103903E+03  0.00000000000E+00 0.  1.
         -3    1    6    6    0  502 -0.43739806018E+02  0.82698634516E+02  0.15545212441E+03  0.18143207480E+03  0.00000000000E+00 0.  1.
<mgrwt>
<rscale>  0 0.12824800E+04</rscale>
<asrwt>0</asrwt>
<pdfrwt beam="1">  1        2 0.99525881E-01 0.12824800E+04</pdfrwt>
<pdfrwt beam="2">  1       -2 0.97786397E-01 0.12824800E+04</pdfrwt>
<totfact> 0.38663688E+01</totfact>
</mgrwt>
</event>
<event>
12    1  0.1114484E-007  0.2826621E+04  0.7818608E-02  0.8295051E-01
          2   -1    0    0  501    0  0.00000000000E+00  0.00000000000E+00  0.13171451541E+04  0.13171451541E+04  0.00000000000E+00 0. -1.
         -2   -1    0    0    0  501 -0.00000000000E+00 -0.00000000000E+00 -0.15164972656E+04  0.15164972656E+04  0.00000000000E+00 0.  1.
         23    2    1    2    0    0 -0.11485905022E+04  0.83442322307E+02 -0.62747203238E+03  0.13143588431E+04  0.87150754560E+02 0.  0.
        254    2    1    2    0    0  0.11485905022E+04 -0.83442322307E+02  0.42811992090E+03  0.15192835766E+04  0.89370753415E+03 0.  0.
        -24    2    4    4    0    0  0.73133347929E+03 -0.34262821277E+03 -0.71053369962E+02  0.81459716557E+03  0.79228849856E+02 0.  0.
         24    2    4    4    0    0  0.41725702292E+03  0.25918589046E+03  0.49917329087E+03  0.70468641105E+03  0.78282913960E+02 0.  0.
         13    1    3    3    0    0 -0.47769882383E+03  0.41768436382E+02 -0.30977783891E+03  0.57087921494E+03  0.00000000000E+00 0. -1.
        -13    1    3    3    0    0 -0.67089167838E+03  0.41673885925E+02 -0.31769419348E+03  0.74347962814E+03  0.00000000000E+00 0.  1.
          4    1    6    6  502    0  0.21183696733E+03  0.13014397519E+03  0.19715409037E+03  0.31730441276E+03  0.00000000000E+00 0. -1.
          3    1    5    5  503    0  0.45501720762E+02 -0.34752154106E+02 -0.21641886979E+02  0.61208578478E+02  0.00000000000E+00 0. -1.
         -4    1    5    5    0  503  0.68583175853E+03 -0.30787605866E+03 -0.49411482983E+02  0.75338858709E+03  0.00000000000E+00 0.  1.
         -3    1    6    6    0  502  0.20542005560E+03  0.12904191527E+03  0.30201920050E+03  0.38738199830E+03  0.00000000000E+00 0.  1.
<mgrwt>
<rscale>  0 0.28266213E+04</rscale>
<asrwt>0</asrwt>
<pdfrwt beam="1">  1        2 0.20263772E+00 0.28266213E+04</pdfrwt>
<pdfrwt beam="2">  1       -2 0.23330727E+00 0.28266213E+04</pdfrwt>
<totfact> 0.11435649E+00</totfact>
</mgrwt>
</event>
<event>
12    1  0.1114484E-007  0.1846447E+04  0.7818608E-02  0.8681982E-01
          2   -1    0    0  501    0  0.00000000000E+00  0.00000000000E+00  0.99082762613E+03  0.99082762613E+03  0.00000000000E+00 0. -1.
         -2   -1    0    0    0  501 -0.00000000000E+00 -0.00000000000E+00 -0.86023153915E+03  0.86023153915E+03  0.00000000000E+00 0.  1.
         23    2    1    2    0    0  0.68337097086E+03 -0.28549356250E+02  0.16256817518E+03  0.70928617389E+03  0.94061231877E+02 0.  0.
        254    2    1    2    0    0 -0.68337097086E+03  0.28549356250E+02 -0.31972088205E+02  0.11417729914E+04  0.91368068813E+03 0.  0.
        -24    2    4    4    0    0 -0.62341849852E+03  0.17328796225E+03 -0.37797293020E+03  0.75373373509E+03  0.81065808402E+02 0.  0.
         24    2    4    4    0    0 -0.59952472337E+02 -0.14473860600E+03  0.34600084199E+03  0.38803925629E+03  0.79462687819E+02 0.  0.
         11    1    3    3    0    0  0.38748648848E+03 -0.14495238597E+02  0.44102321432E+02  0.39025748610E+03  0.00000000000E+00 0.  1.
        -11    1    3    3    0    0  0.29588448237E+03 -0.14054117654E+02  0.11846585375E+03  0.31902868780E+03  0.00000000000E+00 0. -1.
          2    1    6    6  502    0 -0.37609490545E+02 -0.12529992233E+03  0.32861412685E+03  0.35369731223E+03  0.00000000000E+00 0. -1.
          3    1    5    5  503    0 -0.55309544041E+03  0.13297262360E+03 -0.30935849142E+03  0.64753298066E+03  0.00000000000E+00 0. -1.
         -4    1    5    5    0  503 -0.70323058109E+02  0.40315338652E+02 -0.68614438777E+02  0.10620075443E+03  0.00000000000E+00 0.  1.
         -1    1    6    6    0  502 -0.22342981793E+02 -0.19438683666E+02  0.17386715143E+02  0.34341944056E+02  0.00000000000E+00 0.  1.
<mgrwt>
<rscale>  0 0.18464465E+04</rscale>
<asrwt>0</asrwt>
<pdfrwt beam="1">  1        2 0.15243502E+00 0.18464465E+04</pdfrwt>
<pdfrwt beam="2">  1       -2 0.13234331E+00 0.18464465E+04</pdfrwt>
<totfact> 0.99675542E+00</totfact>
</mgrwt>
</event>
<event>
12    1  0.1114484E-007  0.1304097E+04  0.7818608E-02  0.9026322E-01
          2   -1    0    0  501    0  0.00000000000E+00  0.00000000000E+00  0.23189127423E+03  0.23189127423E+03  0.00000000000E+00 0. -1.
         -2   -1    0    0    0  501 -0.00000000000E+00 -0.00000000000E+00 -0.18334768930E+04  0.18334768930E+04  0.00000000000E+00 0.  1.
         23    2    1    2    0    0 -0.18243416456E+03 -0.67321214729E+02 -0.82477715913E+03  0.85229199900E+03  0.91268389800E+02 0.  0.
        254    2    1    2    0    0  0.18243416456E+03  0.67321214729E+02 -0.77680845964E+03  0.12130761682E+04  0.91121239930E+03 0.  0.
        -24    2    4    4    0    0  0.17473608278E+03  0.36451807545E+03 -0.40020581516E+02  0.41466500768E+03  0.83302435116E+02 0.  0.
         24    2    4    4    0    0  0.76980817825E+01 -0.29719686072E+03 -0.73678787813E+03  0.79841116057E+03  0.78859175003E+02 0.  0.
         13    1    3    3    0    0 -0.94446196217E+02 -0.76495477669E+02 -0.56305403114E+03  0.57602212116E+03  0.00000000000E+00 0. -1.
        -13    1    3    3    0    0 -0.87987968342E+02  0.91742629395E+01 -0.26172312799E+03  0.27626987784E+03  0.00000000000E+00 0.  1.
          4    1    6    6  502    0  0.53305379743E+01 -0.29015606711E+03 -0.73574432281E+03  0.79091002425E+03  0.00000000000E+00 0. -1.
          3    1    5    5  503    0  0.17439337400E+03  0.29158063888E+03 -0.35082317526E+02  0.34155978521E+03  0.00000000000E+00 0. -1.
         -4    1    5    5    0  503  0.34270877938E+00  0.72937436561E+02 -0.49382639897E+01  0.73105222471E+02  0.00000000000E+00 0.  1.
         -3    1    6    6    0  502  0.23675438082E+01 -0.70407936076E+01 -0.10435553147E+01  0.75011363141E+01  0.00000000000E+00 0.  1.
<mgrwt>
<rscale>  0 0.13040971E+04</rscale>
<asrwt>0</asrwt>
<pdfrwt beam="1">  1        2 0.35675581E-01 0.13040971E+04</pdfrwt>
<pdfrwt beam="2">  1       -2 0.28207337E+00 0.13040971E+04</pdfrwt>
<totfact> 0.58961016E+00</totfact>
</mgrwt>
</event>
<event>
12    1  0.1114484E-007  0.1813993E+04  0.7818608E-02  0.8698894E-01
         -2   -1    0    0    0  501 -0.00000000000E+00  0.00000000000E+00  0.10768678325E+04  0.10768678325E+04  0.00000000000E+00 0. -1.
          2   -1    0    0  501    0  0.00000000000E+00 -0.00000000000E+00 -0.76392138067E+03  0.76392138067E+03  0.00000000000E+00 0.  1.
         23    2    1    2    0    0  0.62427524532E+03 -0.22100292000E+03 -0.41355987165E+02  0.66966072398E+03  0.90406277424E+02 0.  0.
        254    2    1    2    0    0 -0.62427524532E+03  0.22100292000E+03  0.35430243899E+03  0.11711284892E+04  0.89858213164E+03 0.  0.
        -24    2    4    4    0    0 -0.28581652105E+02 -0.21941540894E+03  0.35537605694E+03  0.42600271403E+03  0.78905880617E+02 0.  0.
         24    2    4    4    0    0 -0.59569359322E+03  0.44041832894E+03 -0.10736179471E+01  0.74512577515E+03  0.79950651427E+02 0.  0.
         13    1    3    3    0    0  0.66044755943E+02 -0.54439044786E+02  0.72807014145E+00  0.85592344698E+02  0.00000000000E+00 0. -1.
        -13    1    3    3    0    0  0.55823048938E+03 -0.16656387521E+03 -0.42084057306E+02  0.58406837928E+03  0.00000000000E+00 0.  1.
          2    1    6    6  502    0 -0.49542512810E+03  0.39786949594E+03  0.11236445999E+02  0.63550959951E+03  0.00000000000E+00 0. -1.
          1    1    5    5  503    0 -0.20498236296E+02 -0.20694493429E+03  0.35464968437E+03  0.41112380391E+03  0.00000000000E+00 0. -1.
         -2    1    5    5    0  503 -0.80834158089E+01 -0.12470474649E+02  0.72637256954E+00  0.14878910115E+02  0.00000000000E+00 0.  1.
         -1    1    6    6    0  502 -0.10026846512E+03  0.42548833009E+02 -0.12310063946E+02  0.10961617564E+03  0.00000000000E+00 0.  1.
<mgrwt>
<rscale>  0 0.18139927E+04</rscale>
<asrwt>0</asrwt>
<pdfrwt beam="1">  1        2 0.11752637E+00 0.18139927E+04</pdfrwt>
<pdfrwt beam="2">  1       -2 0.16567197E+00 0.18139927E+04</pdfrwt>
<totfact> 0.78997024E+00</totfact>
</mgrwt>
</event>
<event>
12    1  0.1114484E-007  0.1348436E+04  0.7818608E-02  0.8992013E-01
         -1   -1    0    0    0  501 -0.00000000000E+00  0.00000000000E+00  0.37009694898E+03  0.37009694898E+03  0.00000000000E+00 0.  1.
          1   -1    0    0  501    0  0.00000000000E+00 -0.00000000000E+00 -0.12282455558E+04  0.12282455558E+04  0.00000000000E+00 0. -1.
         23    2    1    2    0    0 -0.25470855703E+02 -0.12558824879E+03 -0.67306736584E+03  0.69152689292E+03  0.93640760145E+02 0.  0.
        254    2    1    2    0    0  0.25470855703E+02  0.12558824879E+03 -0.18508124094E+03  0.90681561182E+03  0.87842945953E+03 0.  0.
        -24    2    4    4    0    0 -0.27252478639E+03 -0.21330722746E+02 -0.40906424965E+03  0.49846503086E+03  0.80056653163E+02 0.  0.
         24    2    4    4    0    0  0.29799564210E+03  0.14691897154E+03  0.22398300871E+03  0.40835058096E+03  0.78709731776E+02 0.  0.
         13    1    3    3    0    0 -0.81642893401E+01 -0.25278022254E+02 -0.28455906411E+02  0.38927787494E+02  0.00000000000E+00 0.  1.
        -13    1    3    3    0    0 -0.17306566363E+02 -0.10031022654E+03 -0.64461145942E+03  0.65259910543E+03  0.00000000000E+00 0. -1.
          4    1    6    6  502    0  0.63325766679E+02  0.69924791359E+02  0.57000978629E+02  0.11022132614E+03  0.00000000000E+00 0. -1.
          1    1    5    5  503    0 -0.84239403492E+02 -0.42166688202E+02 -0.15799266836E+03  0.18394561683E+03  0.00000000000E+00 0. -1.
         -2    1    5    5    0  503 -0.18828538290E+03  0.20835965456E+02 -0.25107158129E+03  0.31451941403E+03  0.00000000000E+00 0.  1.
         -3    1    6    6    0  502  0.23466987542E+03  0.76994180177E+02  0.16698203008E+03  0.29812925482E+03  0.00000000000E+00 0.  1.
<mgrwt>
<rscale>  0 0.13484360E+04</rscale>
<asrwt>0</asrwt>
<pdfrwt beam="1">  1        1 0.18896085E+00 0.13484360E+04</pdfrwt>
<pdfrwt beam="2">  1       -1 0.56937992E-01 0.13484360E+04</pdfrwt>
<totfact> 0.31150080E+01</totfact>
</mgrwt>
</event>
<event>
12    1  0.1114484E-007  0.1713423E+04  0.7818608E-02  0.8753745E-01
          1   -1    0    0  501    0  0.00000000000E+00  0.00000000000E+00  0.16789441500E+04  0.16789441500E+04  0.00000000000E+00 0. -1.
         -1   -1    0    0    0  501 -0.00000000000E+00 -0.00000000000E+00 -0.43715256841E+03  0.43715256841E+03  0.00000000000E+00 0.  1.
         23    2    1    2    0    0  0.10069252920E+02  0.58555317546E+03  0.20882419467E+03  0.62845203382E+03  0.91490455191E+02 0.  0.
        254    2    1    2    0    0 -0.10069252920E+02 -0.58555317546E+03  0.10329673869E+04  0.14876446846E+04  0.89615354376E+03 0.  0.
        -24    2    4    4    0    0  0.41900346654E+03 -0.43148642367E+03  0.62475811163E+03  0.87043782278E+03  0.74798840152E+02 0.  0.
         24    2    4    4    0    0 -0.42907271946E+03 -0.15406675178E+03  0.40820927528E+03  0.61720686180E+03  0.80433421192E+02 0.  0.
         13    1    3    3    0    0  0.27360531227E+02  0.36375366834E+03  0.17066558948E+03  0.40273077028E+03  0.00000000000E+00 0.  1.
        -13    1    3    3    0    0 -0.17291278307E+02  0.22179950712E+03  0.38158605191E+02  0.22572126354E+03  0.00000000000E+00 0. -1.
          2    1    6    6  502    0 -0.35861221317E+03 -0.11379448079E+03  0.29595152698E+03  0.47868487506E+03  0.00000000000E+00 0. -1.
          1    1    5    5  503    0  0.39536536348E+03 -0.39868830978E+03  0.55305086953E+03  0.78811890174E+03  0.00000000000E+00 0. -1.
         -2    1    5    5    0  503  0.23638103063E+02 -0.32798113895E+02  0.71707242095E+02  0.82318921035E+02  0.00000000000E+00 0.  1.
         -1    1    6    6    0  502 -0.70460506292E+02 -0.40272270999E+02  0.11225774830E+03  0.13852198674E+03  0.00000000000E+00 0.  1.
<mgrwt>
<rscale>  0 0.17134232E+04</rscale>
<asrwt>0</asrwt>
<pdfrwt beam="1">  1        1 0.25829910E+00 0.17134232E+04</pdfrwt>
<pdfrwt beam="2">  1       -1 0.67254242E-01 0.17134232E+04</pdfrwt>
<totfact> 0.10486162E+01</totfact>
</mgrwt>
</event>
<event>
12    1  0.1114484E-007  0.2002504E+04  0.7818608E-02  0.8605451E-01
         -2   -1    0    0    0  501 -0.00000000000E+00  0.00000000000E+00  0.14117471150E+04  0.14117471150E+04  0.00000000000E+00 0.  1.
          2   -1    0    0  501    0  0.00000000000E+00 -0.00000000000E+00 -0.71011701009E+03  0.71011701009E+03  0.00000000000E+00 0. -1.
         23    2    1    2    0    0  0.40330102632E+03  0.10117342987E+03  0.10013602800E+04  0.10879590584E+04  0.89692371678E+02 0.  0.
        254    2    1    2    0    0 -0.40330102632E+03 -0.10117342987E+03 -0.29973017510E+03  0.10339050667E+04  0.89790518900E+03 0.  0.
        -24    2    4    4    0    0 -0.36291584441E+02 -0.36903484067E+03 -0.41032592671E+03  0.55945562432E+03  0.84376754639E+02 0.  0.
         24    2    4    4    0    0 -0.36700944188E+03  0.26786141080E+03  0.11059575162E+03  0.47444944242E+03  0.80157266127E+02 0.  0.
         13    1    3    3    0    0  0.21171541535E+03  0.66143736307E+02  0.42204562407E+03  0.47678183663E+03  0.00000000000E+00 0. -1.
        -13    1    3    3    0    0  0.19158561097E+03  0.35029693559E+02  0.57931465597E+03  0.61117722175E+03  0.00000000000E+00 0.  1.
          2    1    6    6  502    0 -0.94636617561E+02  0.11496752824E+03  0.30662023550E+02  0.15203217298E+03  0.00000000000E+00 0. -1.
          3    1    5    5  503    0 -0.36971454497E+02 -0.18168787830E+03 -0.25954238121E+03  0.31896648917E+03  0.00000000000E+00 0. -1.
         -4    1    5    5    0  503  0.67987005600E+00 -0.18734696237E+03 -0.15078354551E+03  0.24048913515E+03  0.00000000000E+00 0.  1.
         -1    1    6    6    0  502 -0.27237282432E+03  0.15289388257E+03  0.79933728066E+02  0.32241726944E+03  0.00000000000E+00 0.  1.
<mgrwt>
<rscale>  0 0.20025041E+04</rscale>
<asrwt>0</asrwt>
<pdfrwt beam="1">  1        2 0.10924877E+00 0.20025041E+04</pdfrwt>
<pdfrwt beam="2">  1       -2 0.21719186E+00 0.20025041E+04</pdfrwt>
<totfact> 0.38463306E+00</totfact>
</mgrwt>
</event>
<event>
12    1  0.1114484E-007  0.2254380E+04  0.7818608E-02  0.8496129E-01
         -2   -1    0    0    0  501 -0.00000000000E+00  0.00000000000E+00  0.72350636016E+03  0.72350636016E+03  0.00000000000E+00 0.  1.
          2   -1    0    0  501    0  0.00000000000E+00 -0.00000000000E+00 -0.17561108339E+04  0.17561108339E+04  0.00000000000E+00 0. -1.
         23    2    1    2    0    0 -0.35420795752E+03 -0.76299420546E+03 -0.95597531484E+03  0.12767702210E+04  0.92897577789E+02 0.  0.
        254    2    1    2    0    0  0.35420795752E+03  0.76299420546E+03 -0.76629158909E+02  0.12028469731E+04  0.85635587103E+03 0.  0.
        -24    2    4    4    0    0 -0.30886298540E+02  0.53131620867E+03 -0.37643461966E+03  0.65705678009E+03  0.82278261734E+02 0.  0.
         24    2    4    4    0    0  0.38509425606E+03  0.23167799679E+03  0.29980546075E+03  0.54579019296E+03  0.77661703511E+02 0.  0.
         11    1    3    3    0    0 -0.27735788659E+03 -0.60047894388E+03 -0.69080052898E+03  0.95640353938E+03  0.00000000000E+00 0. -1.
        -11    1    3    3    0    0 -0.76850070929E+02 -0.16251526158E+03 -0.26517478587E+03  0.32036668164E+03  0.00000000000E+00 0.  1.
          2    1    6    6  502    0  0.36335651654E+01  0.95200808871E+01 -0.28300268010E+01  0.10575622327E+02  0.00000000000E+00 0. -1.
          3    1    5    5  503    0  0.25408474111E+01  0.30692027932E+03 -0.17297538005E+03  0.35231661310E+03  0.00000000000E+00 0. -1.
         -4    1    5    5    0  503 -0.33427145951E+02  0.22439592935E+03 -0.20345923961E+03  0.30474016699E+03  0.00000000000E+00 0.  1.
         -1    1    6    6    0  502  0.38146069090E+03  0.22215791591E+03  0.30263548755E+03  0.53521457064E+03  0.00000000000E+00 0.  1.
<mgrwt>
<rscale>  0 0.22543801E+04</rscale>
<asrwt>0</asrwt>
<pdfrwt beam="1">  1        2 0.27017089E+00 0.22543801E+04</pdfrwt>
<pdfrwt beam="2">  1       -2 0.11130867E+00 0.22543801E+04</pdfrwt>
<totfact> 0.53028030E+00</totfact>
</mgrwt>
</event>
<event>
12    1  0.1114484E-007  0.2152233E+04  0.7818608E-02  0.8538577E-01
          1   -1    0    0  501    0  0.00000000000E+00  0.00000000000E+00  0.14719232919E+04  0.14719232919E+04  0.00000000000E+00 0. -1.
         -1   -1    0    0    0  501 -0.00000000000E+00 -0.00000000000E+00 -0.78674376843E+03  0.78674376843E+03  0.00000000000E+00 0.  1.
         23    2    1    2    0    0 -0.64476251595E+02 -0.10679510754E+03 -0.63393236743E+03  0.65331858222E+03  0.96915124656E+02 0.  0.
        254    2    1    2    0    0  0.64476251595E+02  0.10679510754E+03  0.13191118909E+04  0.16053484781E+04  0.90638025875E+03 0.  0.
        -24    2    4    4    0    0 -0.26825087974E+03  0.31571692292E+03  0.32213415902E+03  0.53081352031E+03  0.79729963233E+02 0.  0.
         24    2    4    4    0    0  0.33272713133E+03 -0.20892181538E+03  0.99697773192E+03  0.10745349578E+04  0.79404715253E+02 0.  0.
         13    1    3    3    0    0 -0.48825243995E+02 -0.14071039544E+00 -0.23917441087E+03  0.24410719585E+03  0.00000000000E+00 0. -1.
        -13    1    3    3    0    0 -0.15651007601E+02 -0.10665439715E+03 -0.39475795656E+03  0.40921138638E+03  0.00000000000E+00 0.  1.
          4    1    6    6  502    0  0.95144887150E+02 -0.10291179733E+03  0.32358610513E+03  0.35263487492E+03  0.00000000000E+00 0. -1.
          1    1    5    5  503    0 -0.11225283834E+03  0.74869631974E+02  0.10159372920E+03  0.16890070255E+03  0.00000000000E+00 0. -1.
         -2    1    5    5    0  503 -0.15599804139E+03  0.24084729095E+03  0.22054042982E+03  0.36191281776E+03  0.00000000000E+00 0.  1.
         -3    1    6    6    0  502  0.23758224418E+03 -0.10601001805E+03  0.67339162679E+03  0.72190008291E+03  0.00000000000E+00 0.  1.
<mgrwt>
<rscale>  0 0.21522328E+04</rscale>
<asrwt>0</asrwt>
<pdfrwt beam="1">  1        1 0.22644974E+00 0.21522328E+04</pdfrwt>
<pdfrwt beam="2">  1       -1 0.12103750E+00 0.21522328E+04</pdfrwt>
<totfact> 0.37969337E+00</totfact>
</mgrwt>
</event>
<event>
12    1  0.1114484E-007  0.1303089E+04  0.7818608E-02  0.9027119E-01
         -2   -1    0    0    0  501 -0.00000000000E+00  0.00000000000E+00  0.35692463936E+03  0.35692463936E+03  0.00000000000E+00 0.  1.
          2   -1    0    0  501    0  0.00000000000E+00 -0.00000000000E+00 -0.11893546918E+04  0.11893546918E+04  0.00000000000E+00 0. -1.
         23    2    1    2    0    0 -0.21011766884E+03  0.16137866043E+03 -0.50543305891E+03  0.57794918139E+03  0.91488646438E+02 0.  0.
        254    2    1    2    0    0  0.21011766884E+03 -0.16137866043E+03 -0.32699699354E+03  0.96833014978E+03  0.87209158830E+03 0.  0.
        -24    2    4    4    0    0  0.53072503656E+03 -0.18473159516E+03 -0.28282537664E+03  0.63406676359E+03  0.79092606053E+02 0.  0.
         24    2    4    4    0    0 -0.32060736772E+03  0.23352934725E+02 -0.44171616905E+02  0.33426338619E+03  0.80289699271E+02 0.  0.
         13    1    3    3    0    0 -0.14648191847E+03  0.72870382155E+02 -0.23472478822E+03  0.28611670912E+03  0.00000000000E+00 0. -1.
        -13    1    3    3    0    0 -0.63635750369E+02  0.88508278279E+02 -0.27070827070E+03  0.29183247227E+03  0.00000000000E+00 0.  1.
          4    1    6    6  502    0 -0.17373148746E+03  0.40507512289E+02 -0.53080438987E+02  0.18612098562E+03  0.00000000000E+00 0. -1.
          1    1    5    5  503    0  0.81260324378E+02 -0.57424896960E+02 -0.63117086056E+02  0.11783304147E+03  0.00000000000E+00 0. -1.
         -2    1    5    5    0  503  0.44946471218E+03 -0.12730669820E+03 -0.21970829058E+03  0.51623372212E+03  0.00000000000E+00 0.  1.
         -3    1    6    6    0  502 -0.14687588026E+03 -0.17154577564E+02  0.89088220824E+01  0.14814240057E+03  0.00000000000E+00 0.  1.
<mgrwt>
<rscale>  0 0.13030886E+04</rscale>
<asrwt>0</asrwt>
<pdfrwt beam="1">  1        2 0.18297765E+00 0.13030886E+04</pdfrwt>
<pdfrwt beam="2">  1       -2 0.54911483E-01 0.13030886E+04</pdfrwt>
<totfact> 0.58751313E+01</totfact>
</mgrwt>
</event>
<event>
12    1  0.1114484E-007  0.2064824E+04  0.7818608E-02  0.8576899E-01
          2   -1    0    0  501    0  0.00000000000E+00  0.00000000000E+00  0.34377081061E+04  0.34377081061E+04  0.00000000000E+00 0. -1.
         -2   -1    0    0    0  501 -0.00000000000E+00 -0.00000000000E+00 -0.31005378768E+03  0.31005378768E+03  0.00000000000E+00 0.  1.
         23    2    1    2    0    0 -0.38105844556E+03 -0.71494296665E+03  0.16263919567E+04  0.18193545084E+04  0.92471865710E+02 0.  0.
        254    2    1    2    0    0  0.38105844556E+03  0.71494296665E+03  0.15012623617E+04  0.19284073854E+04  0.89923155014E+03 0.  0.
        -24    2    4    4    0    0  0.65575426181E+02  0.10521461286E+03  0.11385480829E+04  0.11479879071E+04  0.78830492311E+02 0.  0.
         24    2    4    4    0    0  0.31548301938E+03  0.60972835379E+03  0.36271427888E+03  0.78041947832E+03  0.78706499790E+02 0.  0.
         11    1    3    3    0    0 -0.13690080705E+03 -0.21227385083E+03  0.59264098682E+03  0.64422461764E+03  0.00000000000E+00 0.  1.
        -11    1    3    3    0    0 -0.24415763851E+03 -0.50266911581E+03  0.10337509699E+04  0.11751298908E+04  0.00000000000E+00 0. -1.
          4    1    6    6  502    0  0.29200786172E+03  0.50200153353E+03  0.30445994371E+03  0.65572096832E+03  0.00000000000E+00 0. -1.
          1    1    5    5  503    0  0.71165323747E+02  0.10822815447E+03  0.11296735395E+04  0.11370752581E+04  0.00000000000E+00 0. -1.
         -2    1    5    5    0  503 -0.55898975656E+01 -0.30135416147E+01  0.88745433700E+01  0.10912648986E+02  0.00000000000E+00 0.  1.
         -3    1    6    6    0  502  0.23475157659E+02  0.10772682025E+03  0.58254335177E+02  0.12469851000E+03  0.00000000000E+00 0.  1.
<mgrwt>
<rscale>  0 0.20648239E+04</rscale>
<asrwt>0</asrwt>
<pdfrwt beam="1">  1        2 0.52887814E+00 0.20648239E+04</pdfrwt>
<pdfrwt beam="2">  1       -2 0.47700585E-01 0.20648239E+04</pdfrwt>
<totfact> 0.34726126E+00</totfact>
</mgrwt>
</event>
<event>
12    1  0.1114484E-007  0.1881854E+04  0.7818608E-02  0.8663942E-01
          2   -1    0    0  501    0  0.00000000000E+00  0.00000000000E+00  0.11529996308E+04  0.11529996308E+04  0.00000000000E+00 0. -1.
         -2   -1    0    0    0  501 -0.00000000000E+00 -0.00000000000E+00 -0.76786136360E+03  0.76786136360E+03  0.00000000000E+00 0.  1.
         23    2    1    2    0    0 -0.14479967899E+03  0.34172431671E+03 -0.47942898434E+03  0.61312207345E+03  0.91236342870E+02 0.  0.
        254    2    1    2    0    0  0.14479967899E+03 -0.34172431671E+03  0.86456725156E+03  0.13077389210E+04  0.90827424121E+03 0.  0.
        -24    2    4    4    0    0  0.15042197826E+03  0.29408314932E+03  0.31091159209E+03  0.46102291735E+03  0.82246227680E+02 0.  0.
         24    2    4    4    0    0 -0.56222992711E+01 -0.63580746603E+03  0.55365565947E+03  0.84671600361E+03  0.78170693965E+02 0.  0.
         11    1    3    3    0    0 -0.39514908293E+01  0.11622089078E+03 -0.14283222920E+03  0.18418456892E+03  0.00000000000E+00 0. -1.
        -11    1    3    3    0    0 -0.14084818816E+03  0.22550342594E+03 -0.33659675515E+03  0.42893750453E+03  0.00000000000E+00 0.  1.
          2    1    6    6  502    0  0.23663355581E+02 -0.28094673365E+03  0.20699981861E+03  0.34977127734E+03  0.00000000000E+00 0. -1.
          1    1    5    5  503    0  0.52650042396E+02  0.57280183010E+02  0.37599534850E+02  0.86410481719E+02  0.00000000000E+00 0. -1.
         -2    1    5    5    0  503  0.97771935863E+02  0.23680296631E+03  0.27331205724E+03  0.37461243563E+03  0.00000000000E+00 0.  1.
         -1    1    6    6    0  502 -0.29285654852E+02 -0.35486073238E+03  0.34665584086E+03  0.49694472627E+03  0.00000000000E+00 0.  1.
<mgrwt>
<rscale>  0 0.18818543E+04</rscale>
<asrwt>0</asrwt>
<pdfrwt beam="1">  1        2 0.17738456E+00 0.18818543E+04</pdfrwt>
<pdfrwt beam="2">  1       -2 0.11813252E+00 0.18818543E+04</pdfrwt>
<totfact> 0.10470084E+01</totfact>
</mgrwt>
</event>
<event>
12    1  0.1114484E-007  0.4982134E+04  0.7818608E-02  0.7831269E-01
          1   -1    0    0  501    0  0.00000000000E+00  0.00000000000E+00  0.26155117818E+04  0.26155117818E+04  0.00000000000E+00 0. -1.
         -1   -1    0    0    0  501 -0.00000000000E+00 -0.00000000000E+00 -0.23725429361E+04  0.23725429361E+04  0.00000000000E+00 0.  1.
         23    2    1    2    0    0  0.16161674521E+04 -0.54999222857E+03  0.18187494177E+04  0.24959990086E+04  0.87595215422E+02 0.  0.
        254    2    1    2    0    0 -0.16161674521E+04  0.54999222857E+03 -0.15757805720E+04  0.24920557094E+04  0.90153677842E+03 0.  0.
        -24    2    4    4    0    0 -0.16549410902E+04  0.34294224955E+03 -0.14772651083E+04  0.22463229136E+04  0.84941354866E+02 0.  0.
         24    2    4    4    0    0  0.38773638118E+02  0.20704997903E+03 -0.98515463783E+02  0.24573279574E+03  0.79411721254E+02 0.  0.
         13    1    3    3    0    0  0.11424976976E+04 -0.38687491788E+03  0.13422529177E+04  0.18046096769E+04  0.00000000000E+00 0.  1.
        -13    1    3    3    0    0  0.47366975450E+03 -0.16311731069E+03  0.47649650003E+03  0.69138933164E+03  0.00000000000E+00 0. -1.
          2    1    6    6  502    0 -0.11827533269E+01  0.15964446715E+03 -0.50922503284E+02  0.16757343506E+03  0.00000000000E+00 0. -1.
          3    1    5    5  503    0 -0.11988488375E+04  0.24053634979E+03 -0.11173027788E+04  0.16563398717E+04  0.00000000000E+00 0. -1.
         -4    1    5    5    0  503 -0.45609225264E+03  0.10240589975E+03 -0.35996232942E+03  0.58998304198E+03  0.00000000000E+00 0.  1.
         -1    1    6    6    0  502  0.39956391445E+02  0.47405511874E+02 -0.47592960499E+02  0.78159360683E+02  0.00000000000E+00 0.  1.
<mgrwt>
<rscale>  0 0.49821337E+04</rscale>
<asrwt>0</asrwt>
<pdfrwt beam="1">  1        1 0.40238643E+00 0.49821337E+04</pdfrwt>
<pdfrwt beam="2">  1       -1 0.36500661E+00 0.49821337E+04</pdfrwt>
<totfact> 0.10042999E-02</totfact>
</mgrwt>
</event>
<event>
12    1  0.1114484E-007  0.1587076E+04  0.7818608E-02  0.8828527E-01
         -1   -1    0    0    0  501 -0.00000000000E+00  0.00000000000E+00  0.51218623503E+03  0.51218623503E+03  0.00000000000E+00 0.  1.
          1   -1    0    0  501    0  0.00000000000E+00 -0.00000000000E+00 -0.12294403674E+04  0.12294403674E+04  0.00000000000E+00 0. -1.
         23    2    1    2    0    0  0.46870380832E+03  0.42343902871E+02 -0.53137699843E+03  0.71558966181E+03  0.90723666082E+02 0.  0.
        254    2    1    2    0    0 -0.46870380832E+03 -0.42343902871E+02 -0.18587713398E+03  0.10260369407E+04  0.89259466088E+03 0.  0.
        -24    2    4    4    0    0 -0.40035689349E+03 -0.36190761934E+03 -0.35428137816E+03  0.65007430195E+03  0.76279329055E+02 0.  0.
         24    2    4    4    0    0 -0.68346914821E+02  0.31956371647E+03  0.16840424418E+03  0.37596263871E+03  0.78712429765E+02 0.  0.
         13    1    3    3    0    0  0.29861019936E+02 -0.38133934743E+01 -0.74789473405E+02  0.80620641362E+02  0.00000000000E+00 0.  1.
        -13    1    3    3    0    0  0.43884278838E+03  0.46157296345E+02 -0.45658752503E+03  0.63496902045E+03  0.00000000000E+00 0. -1.
          4    1    6    6  502    0 -0.38515456175E+02  0.44539373160E+02  0.38422854209E+02  0.70310112014E+02  0.00000000000E+00 0. -1.
          3    1    5    5  503    0 -0.18290632723E+02 -0.95050215365E+01  0.74332426639E+00  0.20626323249E+02  0.00000000000E+00 0. -1.
         -4    1    5    5    0  503 -0.38206626077E+03 -0.35240259780E+03 -0.35502470243E+03  0.62944797870E+03  0.00000000000E+00 0.  1.
         -3    1    6    6    0  502 -0.29831458646E+02  0.27502434331E+03  0.12998138997E+03  0.30565252670E+03  0.00000000000E+00 0.  1.
<mgrwt>
<rscale>  0 0.15870758E+04</rscale>
<asrwt>0</asrwt>
<pdfrwt beam="1">  1        1 0.18914467E+00 0.15870758E+04</pdfrwt>
<pdfrwt beam="2">  1       -1 0.78797883E-01 0.15870758E+04</pdfrwt>
<totfact> 0.15738502E+01</totfact>
</mgrwt>
</event>
<event>
12    1  0.1114484E-007  0.1720889E+04  0.7818608E-02  0.8749540E-01
         -1   -1    0    0    0  501 -0.00000000000E+00  0.00000000000E+00  0.70942388493E+03  0.70942388493E+03  0.00000000000E+00 0.  1.
          1   -1    0    0  501    0  0.00000000000E+00 -0.00000000000E+00 -0.10436137145E+04  0.10436137145E+04  0.00000000000E+00 0. -1.
         23    2    1    2    0    0 -0.58957585678E+03 -0.16395623875E+03 -0.24389737191E+03  0.66498424990E+03  0.90756737888E+02 0.  0.
        254    2    1    2    0    0  0.58957585678E+03  0.16395623875E+03 -0.90292457624E+02  0.10880533495E+04  0.89511229704E+03 0.  0.
        -24    2    4    4    0    0  0.39297341593E+03 -0.23125311506E+03 -0.34022163710E+03  0.57464084628E+03  0.80964381086E+02 0.  0.
         24    2    4    4    0    0  0.19660244084E+03  0.39520935381E+03  0.24992917947E+03  0.51341250321E+03  0.79277049729E+02 0.  0.
         11    1    3    3    0    0 -0.57086985853E+03 -0.14597571333E+03 -0.24688004638E+03  0.63886701399E+03  0.00000000000E+00 0. -1.
        -11    1    3    3    0    0 -0.18705998247E+02 -0.17980525423E+02  0.29826744664E+01  0.26117235916E+02  0.00000000000E+00 0.  1.
          2    1    6    6  502    0  0.28250820574E+02  0.14138366337E+02  0.13103887243E+02  0.34201083706E+02  0.00000000000E+00 0. -1.
          3    1    5    5  503    0  0.20609855596E+03 -0.13834408253E+03 -0.13783295491E+03  0.28392538351E+03  0.00000000000E+00 0. -1.
         -4    1    5    5    0  503  0.18687485997E+03 -0.92909032530E+02 -0.20238868219E+03  0.29071546277E+03  0.00000000000E+00 0.  1.
         -1    1    6    6    0  502  0.16835162027E+03  0.38107098748E+03  0.23682529223E+03  0.47921141951E+03  0.00000000000E+00 0.  1.
<mgrwt>
<rscale>  0 0.17208887E+04</rscale>
<asrwt>0</asrwt>
<pdfrwt beam="1">  1        1 0.16055596E+00 0.17208887E+04</pdfrwt>
<pdfrwt beam="2">  1       -1 0.10914214E+00 0.17208887E+04</pdfrwt>
<totfact> 0.10338780E+01</totfact>
</mgrwt>
</event>
<event>
12    1  0.1114484E-007  0.2273687E+04  0.7818608E-02  0.8488369E-01
         -2   -1    0    0    0  501 -0.00000000000E+00  0.00000000000E+00  0.67831505966E+03  0.67831505966E+03  0.00000000000E+00 0.  1.
          2   -1    0    0  501    0  0.00000000000E+00 -0.00000000000E+00 -0.19053288006E+04  0.19053288006E+04  0.00000000000E+00 0. -1.
         23    2    1    2    0    0  0.28738471459E+03  0.87284075860E+03 -0.22069635568E+03  0.94943326964E+03  0.90970808615E+02 0.  0.
        254    2    1    2    0    0 -0.28738471459E+03 -0.87284075860E+03 -0.10063173853E+04  0.16342105906E+04  0.90195820890E+03 0.  0.
        -24    2    4    4    0    0  0.27696679488E+03 -0.49584419820E+03 -0.28388669893E+03  0.63987457943E+03  0.79219601195E+02 0.  0.
         24    2    4    4    0    0 -0.56435150947E+03 -0.37699656041E+03 -0.72243068635E+03  0.99433601122E+03  0.78606449065E+02 0.  0.
         11    1    3    3    0    0  0.24121597297E+03  0.79049734302E+03 -0.21904395932E+03  0.85501546832E+03  0.00000000000E+00 0.  1.
        -11    1    3    3    0    0  0.46168741626E+02  0.82343415578E+02 -0.16523963599E+01  0.94417801320E+02  0.00000000000E+00 0. -1.
          4    1    6    6  502    0 -0.50935086571E+03 -0.31837500909E+03 -0.66110212420E+03  0.89322839713E+03  0.00000000000E+00 0. -1.
          1    1    5    5  503    0  0.16661399730E+03 -0.27176368110E+03 -0.11743966234E+03  0.33971723058E+03  0.00000000000E+00 0. -1.
         -2    1    5    5    0  503  0.11035279758E+03 -0.22408051709E+03 -0.16644703660E+03  0.30015734885E+03  0.00000000000E+00 0.  1.
         -3    1    6    6    0  502 -0.55000643763E+02 -0.58621551312E+02 -0.61328562145E+02  0.10110761409E+03  0.00000000000E+00 0.  1.
<mgrwt>
<rscale>  0 0.22736871E+04</rscale>
<asrwt>0</asrwt>
<pdfrwt beam="1">  1        2 0.29312751E+00 0.22736871E+04</pdfrwt>
<pdfrwt beam="2">  1       -2 0.10435616E+00 0.22736871E+04</pdfrwt>
<totfact> 0.51118336E+00</totfact>
</mgrwt>
</event>
<event>
12    1  0.1114484E-007  0.1081983E+04  0.7818608E-02  0.9222933E-01
          1   -1    0    0  501    0  0.00000000000E+00  0.00000000000E+00  0.32525656081E+04  0.32525656081E+04  0.00000000000E+00 0. -1.
         -1   -1    0    0    0  501 -0.00000000000E+00 -0.00000000000E+00 -0.89981835650E+02  0.89981835650E+02  0.00000000000E+00 0.  1.
         23    2    1    2    0    0  0.16389949632E+02  0.10874065131E+03  0.79065229989E+03  0.80350347710E+03  0.91616694365E+02 0.  0.
        254    2    1    2    0    0 -0.16389949632E+02 -0.10874065131E+03  0.23719314726E+04  0.25390439667E+04  0.89921754565E+03 0.  0.
        -24    2    4    4    0    0  0.30284109303E+03 -0.97669962878E+02  0.31343655259E+03  0.45416901805E+03  0.82309629921E+02 0.  0.
         24    2    4    4    0    0 -0.31923104267E+03 -0.11070688428E+02  0.20584949200E+04  0.20848749486E+04  0.85271314280E+02 0.  0.
         11    1    3    3    0    0  0.44191959651E+02  0.27752117747E+02  0.20086845767E+03  0.20753613330E+03  0.00000000000E+00 0.  1.
        -11    1    3    3    0    0 -0.27802010019E+02  0.80988533559E+02  0.58978384222E+03  0.59596734380E+03  0.00000000000E+00 0. -1.
          4    1    6    6  502    0 -0.31340082279E+02 -0.27933844847E+02  0.28931742550E+03  0.29234752118E+03  0.00000000000E+00 0. -1.
          1    1    5    5  503    0  0.10070487282E+03  0.42005279965E+01  0.76919472896E+02  0.12679006726E+03  0.00000000000E+00 0. -1.
         -2    1    5    5    0  503  0.20213622022E+03 -0.10187049087E+03  0.23651707969E+03  0.32737895079E+03  0.00000000000E+00 0.  1.
         -3    1    6    6    0  502 -0.28789096039E+03  0.16863156419E+02  0.17691774945E+04  0.17925274275E+04  0.00000000000E+00 0.  1.
<mgrwt>
<rscale>  0 0.10819830E+04</rscale>
<asrwt>0</asrwt>
<pdfrwt beam="1">  1        1 0.50039462E+00 0.10819830E+04</pdfrwt>
<pdfrwt beam="2">  1       -1 0.13843362E-01 0.10819830E+04</pdfrwt>
<totfact> 0.14857270E+01</totfact>
</mgrwt>
</event>
<event>
12    1  0.1114484E-007  0.1299206E+04  0.7818608E-02  0.9030195E-01
          1   -1    0    0  501    0  0.00000000000E+00  0.00000000000E+00  0.10434838532E+04  0.10434838532E+04  0.00000000000E+00 0. -1.
         -1   -1    0    0    0  501 -0.00000000000E+00 -0.00000000000E+00 -0.40439913953E+03  0.40439913953E+03  0.00000000000E+00 0.  1.
         23    2    1    2    0    0 -0.17281543898E+03  0.53485498708E+02 -0.13344120096E+03  0.24353918877E+03  0.93695826102E+02 0.  0.
        254    2    1    2    0    0  0.17281543898E+03 -0.53485498708E+02  0.77252591466E+03  0.12043438040E+04  0.90604736900E+03 0.  0.
        -24    2    4    4    0    0  0.26140945092E+03 -0.32769901383E+03  0.59324237831E+02  0.43091737846E+03  0.80304901284E+02 0.  0.
         24    2    4    4    0    0 -0.88594011938E+02  0.27421351512E+03  0.71320167683E+03  0.77342642553E+03  0.80559624178E+02 0.  0.
         13    1    3    3    0    0  0.60481869241E+01 -0.11691321646E+02 -0.61103262218E+01  0.14512189822E+02  0.00000000000E+00 0. -1.
        -13    1    3    3    0    0 -0.17886362591E+03  0.65176820355E+02 -0.12733087474E+03  0.22902699894E+03  0.00000000000E+00 0.  1.
          2    1    6    6  502    0 -0.20246248073E+02  0.10620208438E+02  0.98337645097E+02  0.10096034782E+03  0.00000000000E+00 0. -1.
          3    1    5    5  503    0  0.29745372489E+02 -0.68572959667E+01  0.99824952442E+01  0.32116349477E+02  0.00000000000E+00 0. -1.
         -4    1    5    5    0  503  0.23166407843E+03 -0.32084171787E+03  0.49341742587E+02  0.39880102899E+03  0.00000000000E+00 0.  1.
         -1    1    6    6    0  502 -0.68347763865E+02  0.26359330669E+03  0.61486403173E+03  0.67246607771E+03  0.00000000000E+00 0.  1.
<mgrwt>
<rscale>  0 0.12992059E+04</rscale>
<asrwt>0</asrwt>
<pdfrwt beam="1">  1        1 0.16053598E+00 0.12992059E+04</pdfrwt>
<pdfrwt beam="2">  1       -1 0.62215253E-01 0.12992059E+04</pdfrwt>
<totfact> 0.36047288E+01</totfact>
</mgrwt>
</event>
<event>
12    1  0.1114484E-007  0.2216717E+04  0.7818608E-02  0.8511502E-01
          1   -1    0    0  501    0  0.00000000000E+00  0.00000000000E+00  0.15389768642E+04  0.15389768642E+04  0.00000000000E+00 0. -1.
         -1   -1    0    0    0  501 -0.00000000000E+00 -0.00000000000E+00 -0.79823089217E+03  0.79823089217E+03  0.00000000000E+00 0.  1.
         23    2    1    2    0    0 -0.86996586643E+03  0.94281538436E+02  0.62232848358E+03  0.10776361780E+04  0.90980071716E+02 0.  0.
        254    2    1    2    0    0  0.86996586643E+03 -0.94281538436E+02  0.11841748846E+03  0.12595715784E+04  0.89820278455E+03 0.  0.
        -24    2    4    4    0    0  0.33568631095E+03 -0.40070117263E+03 -0.19475609073E+03  0.56400215822E+03  0.83197178389E+02 0.  0.
         24    2    4    4    0    0  0.53427955548E+03  0.30641963419E+03  0.31317357920E+03  0.69556942014E+03  0.79946806659E+02 0.  0.
         11    1    3    3    0    0 -0.73171107485E+03  0.67293172083E+02  0.48185436750E+03  0.87869966402E+03  0.00000000000E+00 0.  1.
        -11    1    3    3    0    0 -0.13825479158E+03  0.26988366353E+02  0.14047411608E+03  0.19893651400E+03  0.00000000000E+00 0. -1.
          2    1    6    6  502    0  0.86105731105E+01  0.43951360241E+01  0.19856348923E+02  0.22084695663E+02  0.00000000000E+00 0. -1.
          1    1    5    5  503    0  0.83520049539E+02 -0.16108040425E+03 -0.65621756069E+02  0.19294742853E+03  0.00000000000E+00 0. -1.
         -2    1    5    5    0  503  0.25216626141E+03 -0.23962076838E+03 -0.12913433466E+03  0.37105472969E+03  0.00000000000E+00 0.  1.
         -1    1    6    6    0  502  0.52566898237E+03  0.30202449817E+03  0.29331723027E+03  0.67348472447E+03  0.00000000000E+00 0.  1.
<mgrwt>
<rscale>  0 0.22167173E+04</rscale>
<asrwt>0</asrwt>
<pdfrwt beam="1">  1        1 0.23676567E+00 0.22167173E+04</pdfrwt>
<pdfrwt beam="2">  1       -1 0.12280475E+00 0.22167173E+04</pdfrwt>
<totfact> 0.32729249E+00</totfact>
</mgrwt>
</event>
<event>
12    1  0.1114484E-007  0.3416693E+04  0.7818608E-02  0.8133821E-01
          2   -1    0    0  501    0  0.00000000000E+00  0.00000000000E+00  0.29931530160E+04  0.29931530160E+04  0.00000000000E+00 0.  1.
         -2   -1    0    0    0  501 -0.00000000000E+00 -0.00000000000E+00 -0.97504123727E+03  0.97504123727E+03  0.00000000000E+00 0. -1.
         23    2    1    2    0    0  0.15308074940E+04 -0.32361174537E+03  0.12684551132E+04  0.20163478822E+04  0.92651293728E+02 0.  0.
        254    2    1    2    0    0 -0.15308074940E+04  0.32361174537E+03  0.74965666547E+03  0.19518463711E+04  0.89421641386E+03 0.  0.
        -24    2    4    4    0    0 -0.45887918071E+02  0.61433761537E+02  0.38196456656E+03  0.39780514952E+03  0.80449976976E+02 0.  0.
         24    2    4    4    0    0 -0.14849195759E+04  0.26217798383E+03  0.36769209891E+03  0.15540412216E+04  0.78250856555E+02 0.  0.
         11    1    3    3    0    0  0.11363637313E+04 -0.24617455491E+03  0.99309533737E+03  0.15291052254E+04  0.00000000000E+00 0. -1.
        -11    1    3    3    0    0  0.39444376267E+03 -0.77437190452E+02  0.27535977587E+03  0.48724265674E+03  0.00000000000E+00 0.  1.
          2    1    6    6  502    0 -0.13674808609E+03  0.32562440539E+02  0.56472696131E+02  0.15149097990E+03  0.00000000000E+00 0. -1.
          1    1    5    5  503    0 -0.66383918106E+01  0.29340431338E+02  0.30996219240E+02  0.43193688938E+02  0.00000000000E+00 0. -1.
         -2    1    5    5    0  503 -0.39249526261E+02  0.32093330200E+02  0.35096834732E+03  0.35461146058E+03  0.00000000000E+00 0.  1.
         -1    1    6    6    0  502 -0.13481714898E+04  0.22961554329E+03  0.31121940278E+03  0.14025502417E+04  0.00000000000E+00 0.  1.
<mgrwt>
<rscale>  0 0.34166929E+04</rscale>
<asrwt>0</asrwt>
<pdfrwt beam="1">  1        2 0.46048507E+00 0.34166929E+04</pdfrwt>
<pdfrwt beam="2">  1       -2 0.15000635E+00 0.34166929E+04</pdfrwt>
<totfact> 0.43551945E-01</totfact>
</mgrwt>
</event>
<event>
12    1  0.1114484E-007  0.1904152E+04  0.7818608E-02  0.8652792E-01
          1   -1    0    0  501    0  0.00000000000E+00  0.00000000000E+00  0.14502325923E+04  0.14502325923E+04  0.00000000000E+00 0. -1.
         -1   -1    0    0    0  501 -0.00000000000E+00 -0.00000000000E+00 -0.62503692885E+03  0.62503692885E+03  0.00000000000E+00 0.  1.
         23    2    1    2    0    0 -0.30263458189E+03 -0.24791399146E+03 -0.36301544430E+03  0.54141810767E+03  0.91128026377E+02 0.  0.
        254    2    1    2    0    0  0.30263458189E+03  0.24791399146E+03  0.11882111077E+04  0.15338514135E+04  0.88758407192E+03 0.  0.
        -24    2    4    4    0    0 -0.90261078163E+02  0.18261679864E+03  0.10956352725E+04  0.11172413861E+04  0.79471423436E+02 0.  0.
         24    2    4    4    0    0  0.39289566005E+03  0.65297192823E+02  0.92575835235E+02  0.41661002734E+03  0.79767828937E+02 0.  0.
         11    1    3    3    0    0 -0.24729241961E+03 -0.17255262236E+03 -0.31591049601E+03  0.43672347059E+03  0.00000000000E+00 0.  1.
        -11    1    3    3    0    0 -0.55342162276E+02 -0.75361369097E+02 -0.47104948296E+02  0.10469463707E+03  0.00000000000E+00 0. -1.
          2    1    6    6  502    0  0.10812636644E+03 -0.83000141600E+01  0.62583154877E+00  0.10844626789E+03  0.00000000000E+00 0. -1.
          3    1    5    5  503    0  0.11802359943E+02  0.25871675507E+02  0.90910374223E+02  0.95254057316E+02  0.00000000000E+00 0. -1.
         -4    1    5    5    0  503 -0.10206343811E+03  0.15674512313E+03  0.10047248983E+04  0.10219873288E+04  0.00000000000E+00 0.  1.
         -1    1    6    6    0  502  0.28476929361E+03  0.73597206983E+02  0.91950003686E+02  0.30816375945E+03  0.00000000000E+00 0.  1.
<mgrwt>
<rscale>  0 0.19041522E+04</rscale>
<asrwt>0</asrwt>
<pdfrwt beam="1">  1        1 0.22311271E+00 0.19041522E+04</pdfrwt>
<pdfrwt beam="2">  1       -1 0.96159528E-01 0.19041522E+04</pdfrwt>
<totfact> 0.69036847E+00</totfact>
</mgrwt>
</event>
<event>
12    1  0.1114484E-007  0.3461917E+04  0.7818608E-02  0.8122875E-01
          2   -1    0    0  501    0  0.00000000000E+00  0.00000000000E+00  0.36758971442E+04  0.36758971442E+04  0.00000000000E+00 0.  1.
         -2   -1    0    0    0  501 -0.00000000000E+00 -0.00000000000E+00 -0.81509822279E+03  0.81509822279E+03  0.00000000000E+00 0. -1.
         23    2    1    2    0    0 -0.15345320774E+03  0.95201445234E+03 -0.34297460522E+03  0.10275713612E+04  0.91607413127E+02 0.  0.
        254    2    1    2    0    0  0.15345320774E+03 -0.95201445234E+03  0.32037735266E+04  0.34634240058E+04  0.89513218543E+03 0.  0.
        -24    2    4    4    0    0  0.47335687562E+03 -0.31711191856E+03  0.17616501213E+04  0.18532440941E+04  0.80472492158E+02 0.  0.
         24    2    4    4    0    0 -0.31990366788E+03 -0.63490253378E+03  0.14421234053E+04  0.16101799116E+04  0.86717054294E+02 0.  0.
         11    1    3    3    0    0 -0.11395166863E+03  0.42155802473E+03 -0.15052450053E+03  0.46190234493E+03  0.00000000000E+00 0. -1.
        -11    1    3    3    0    0 -0.39501539104E+02  0.53045642762E+03 -0.19245010469E+03  0.56566901629E+03  0.00000000000E+00 0.  1.
          4    1    6    6  502    0 -0.26106057069E+03 -0.57649479093E+03  0.12927098658E+04  0.14393045760E+04  0.00000000000E+00 0. -1.
          3    1    5    5  503    0  0.22726359559E+03 -0.18995762759E+03  0.99129597761E+03  0.10346015452E+04  0.00000000000E+00 0. -1.
         -4    1    5    5    0  503  0.24609328003E+03 -0.12715429097E+03  0.77035414367E+03  0.81864254889E+03  0.00000000000E+00 0.  1.
         -3    1    6    6    0  502 -0.58843097197E+02 -0.58407742847E+02  0.14941353959E+03  0.17087533563E+03  0.00000000000E+00 0.  1.
<mgrwt>
<rscale>  0 0.34619169E+04</rscale>
<asrwt>0</asrwt>
<pdfrwt beam="1">  1        2 0.56552263E+00 0.34619169E+04</pdfrwt>
<pdfrwt beam="2">  1       -2 0.12539973E+00 0.34619169E+04</pdfrwt>
<totfact> 0.23794237E-01</totfact>
</mgrwt>
</event>
<event>
12    1  0.1114484E-007  0.1423355E+04  0.7818608E-02  0.8937085E-01
         -1   -1    0    0    0  501 -0.00000000000E+00  0.00000000000E+00  0.67177280391E+03  0.67177280391E+03  0.00000000000E+00 0.  1.
          1   -1    0    0  501    0  0.00000000000E+00 -0.00000000000E+00 -0.75395223994E+03  0.75395223994E+03  0.00000000000E+00 0. -1.
         23    2    1    2    0    0 -0.29455159073E+03  0.22806702670E+03 -0.22234450328E+03  0.44609334163E+03  0.10386040169E+03 0.  0.
        254    2    1    2    0    0  0.29455159073E+03 -0.22806702670E+03  0.14016506725E+03  0.97963170222E+03  0.89512949769E+03 0.  0.
        -24    2    4    4    0    0 -0.21458022497E+03 -0.44976225899E+02  0.32738295900E+03  0.40182609461E+03  0.78848428154E+02 0.  0.
         24    2    4    4    0    0  0.50913181570E+03 -0.18309080080E+03 -0.18721789175E+03  0.57780560761E+03  0.77918765997E+02 0.  0.
         11    1    3    3    0    0 -0.27544346923E+03  0.16561521640E+03 -0.18663818242E+03  0.37166021549E+03  0.00000000000E+00 0. -1.
        -11    1    3    3    0    0 -0.19108121500E+02  0.62451810301E+02 -0.35706320859E+02  0.74433126136E+02  0.00000000000E+00 0.  1.
          4    1    6    6  502    0  0.13358099789E+03 -0.48285568761E+02 -0.86398864276E+02  0.16625324928E+03  0.00000000000E+00 0. -1.
          1    1    5    5  503    0 -0.71214796918E+01 -0.11141986607E+02  0.61419751392E+02  0.62827105612E+02  0.00000000000E+00 0. -1.
         -2    1    5    5    0  503 -0.20745874528E+03 -0.33834239293E+02  0.26596320760E+03  0.33899898900E+03  0.00000000000E+00 0.  1.
         -3    1    6    6    0  502  0.37555081782E+03 -0.13480523204E+03 -0.10081902747E+03  0.41155235833E+03  0.00000000000E+00 0.  1.
<mgrwt>
<rscale>  0 0.14233546E+04</rscale>
<asrwt>0</asrwt>
<pdfrwt beam="1">  1        1 0.11599265E+00 0.14233546E+04</pdfrwt>
<pdfrwt beam="2">  1       -1 0.10334966E+00 0.14233546E+04</pdfrwt>
<totfact> 0.20893020E+01</totfact>
</mgrwt>
</event>
<event>
12    1  0.1114484E-007  0.3433598E+04  0.7818608E-02  0.8129709E-01
         -1   -1    0    0    0  501 -0.00000000000E+00  0.00000000000E+00  0.17793399978E+04  0.17793399978E+04  0.00000000000E+00 0.  1.
          1   -1    0    0  501    0  0.00000000000E+00 -0.00000000000E+00 -0.16564563700E+04  0.16564563700E+04  0.00000000000E+00 0. -1.
         23    2    1    2    0    0 -0.60601241894E+03 -0.94223000309E+03  0.11971249010E+04  0.16421494177E+04  0.92185957959E+02 0.  0.
        254    2    1    2    0    0  0.60601241894E+03  0.94223000309E+03 -0.10742412732E+04  0.17936469501E+04  0.89895864084E+03 0.  0.
        -24    2    4    4    0    0  0.79517641399E+03  0.93223057468E+03 -0.86613048383E+03  0.15027700888E+04  0.82319809023E+02 0.  0.
         24    2    4    4    0    0 -0.18916399505E+03  0.99994284077E+01 -0.20811078941E+03  0.29087686136E+03  0.73595123557E+02 0.  0.
         11    1    3    3    0    0 -0.20413170815E+02 -0.51973282841E+02  0.86886325381E+02  0.10328191134E+03  0.00000000000E+00 0. -1.
        -11    1    3    3    0    0 -0.58559924812E+03 -0.89025672025E+03  0.11102385756E+04  0.15388675063E+04  0.00000000000E+00 0.  1.
          2    1    6    6  502    0 -0.11384540573E+03  0.20287482128E+02 -0.17062334234E+03  0.20611812945E+03  0.00000000000E+00 0. -1.
          1    1    5    5  503    0  0.31143155611E+03  0.33992837068E+03 -0.28164501810E+03  0.54024515505E+03  0.00000000000E+00 0. -1.
         -2    1    5    5    0  503  0.48374485788E+03  0.59230220400E+03 -0.58448546574E+03  0.96252493372E+03  0.00000000000E+00 0.  1.
         -1    1    6    6    0  502 -0.75318589323E+02 -0.10288053720E+02 -0.37487447076E+02  0.84758731911E+02  0.00000000000E+00 0.  1.
<mgrwt>
<rscale>  0 0.34335982E+04</rscale>
<asrwt>0</asrwt>
<pdfrwt beam="1">  1        1 0.25483944E+00 0.34335982E+04</pdfrwt>
<pdfrwt beam="2">  1       -1 0.27374462E+00 0.34335982E+04</pdfrwt>
<totfact> 0.20458595E-01</totfact>
</mgrwt>
</event>
<event>
12    1  0.1114484E-007  0.1208000E+04  0.7818608E-02  0.9105883E-01
          2   -1    0    0  501    0  0.00000000000E+00  0.00000000000E+00  0.49295893584E+03  0.49295893584E+03  0.00000000000E+00 0. -1.
         -2   -1    0    0    0  501 -0.00000000000E+00 -0.00000000000E+00 -0.74005357092E+03  0.74005357092E+03  0.00000000000E+00 0.  1.
         23    2    1    2    0    0  0.50242365119E+02 -0.12727973847E+03  0.16991367115E+03  0.23679050484E+03  0.92057919048E+02 0.  0.
        254    2    1    2    0    0 -0.50242365119E+02  0.12727973847E+03 -0.41700830623E+03  0.99622200193E+03  0.89433658239E+03 0.  0.
        -24    2    4    4    0    0  0.10370694789E+03  0.41135381141E+03 -0.49284977843E+03  0.65503331362E+03  0.78744197641E+02 0.  0.
         24    2    4    4    0    0 -0.15394931301E+03 -0.28407407293E+03  0.75841472200E+02  0.34118868831E+03  0.79115878520E+02 0.  0.
         11    1    3    3    0    0  0.95544718166E+01 -0.32451066073E+02 -0.45115276103E+01  0.34127899179E+02  0.00000000000E+00 0.  1.
        -11    1    3    3    0    0  0.40687893303E+02 -0.94828672400E+02  0.17442519876E+03  0.20266260566E+03  0.00000000000E+00 0. -1.
          4    1    6    6  502    0 -0.14222201435E+03 -0.21646657668E+03  0.83526661098E+02  0.27214257899E+03  0.00000000000E+00 0. -1.
          1    1    5    5  503    0  0.65394066908E+02  0.23230121511E+03 -0.33750192040E+03  0.41490695921E+03  0.00000000000E+00 0. -1.
         -2    1    5    5    0  503  0.38312880985E+02  0.17905259630E+03 -0.15534785802E+03  0.24012635441E+03  0.00000000000E+00 0.  1.
         -3    1    6    6    0  502 -0.11727298665E+02 -0.67607496257E+02 -0.76851888981E+01  0.69046109322E+02  0.00000000000E+00 0.  1.
<mgrwt>
<rscale>  0 0.12080000E+04</rscale>
<asrwt>0</asrwt>
<pdfrwt beam="1">  1        2 0.75839836E-01 0.12080000E+04</pdfrwt>
<pdfrwt beam="2">  1       -2 0.11385440E+00 0.12080000E+04</pdfrwt>
<totfact> 0.37302224E+01</totfact>
</mgrwt>
</event>
<event>
12    1  0.1114484E-007  0.2183430E+04  0.7818608E-02  0.8525357E-01
         -2   -1    0    0    0  501 -0.00000000000E+00  0.00000000000E+00  0.15512145296E+04  0.15512145296E+04  0.00000000000E+00 0.  1.
          2   -1    0    0  501    0  0.00000000000E+00 -0.00000000000E+00 -0.76832833915E+03  0.76832833915E+03  0.00000000000E+00 0. -1.
         23    2    1    2    0    0 -0.47349386914E+03  0.75570864057E+03  0.49288116724E+03  0.10228161798E+04  0.89045489483E+02 0.  0.
        254    2    1    2    0    0  0.47349386914E+03 -0.75570864057E+03  0.29000502319E+03  0.12967266889E+04  0.89560325962E+03 0.  0.
        -24    2    4    4    0    0  0.68031308464E+02  0.57794736294E+02  0.36226398193E+03  0.38154865839E+03  0.79847953267E+02 0.  0.
         24    2    4    4    0    0  0.40546256067E+03 -0.81350337686E+03 -0.72258958747E+02  0.91517803049E+03  0.78369880041E+02 0.  0.
         11    1    3    3    0    0 -0.47082364165E+03  0.73998341935E+03  0.47040163894E+03  0.99525276406E+03  0.00000000000E+00 0. -1.
        -11    1    3    3    0    0 -0.26702274844E+01  0.15725221213E+02  0.22479528301E+02  0.27563415784E+02  0.00000000000E+00 0.  1.
          2    1    6    6  502    0  0.16152549082E+03 -0.38752509569E+03 -0.60332980062E+02  0.42415357179E+03  0.00000000000E+00 0. -1.
          3    1    5    5  503    0  0.32733208581E+01 -0.89166727879E+01  0.23017307375E+01  0.97734153414E+01  0.00000000000E+00 0. -1.
         -4    1    5    5    0  503  0.64757987606E+02  0.66711409082E+02  0.35996225120E+03  0.37177524305E+03  0.00000000000E+00 0.  1.
         -1    1    6    6    0  502  0.24393706985E+03 -0.42597828117E+03 -0.11925978685E+02  0.49102445870E+03  0.00000000000E+00 0.  1.
<mgrwt>
<rscale>  0 0.21834304E+04</rscale>
<asrwt>0</asrwt>
<pdfrwt beam="1">  1        2 0.11820436E+00 0.21834304E+04</pdfrwt>
<pdfrwt beam="2">  1       -2 0.23864839E+00 0.21834304E+04</pdfrwt>
<totfact> 0.25108564E+00</totfact>
</mgrwt>
</event>
<event>
12    1  0.1114484E-007  0.1205411E+04  0.7818608E-02  0.9108134E-01
          2   -1    0    0  501    0  0.00000000000E+00  0.00000000000E+00  0.32099239666E+03  0.32099239666E+03  0.00000000000E+00 0. -1.
         -2   -1    0    0    0  501 -0.00000000000E+00 -0.00000000000E+00 -0.11316586117E+04  0.11316586117E+04  0.00000000000E+00 0.  1.
         23    2    1    2    0    0 -0.62426474331E+02 -0.18549105286E+03  0.23191567986E+02  0.21773817667E+03  0.92563866421E+02 0.  0.
        254    2    1    2    0    0  0.62426474331E+02  0.18549105286E+03 -0.83385778303E+03  0.12349128317E+04  0.88959929417E+03 0.  0.
        -24    2    4    4    0    0  0.22798091161E+03 -0.29063870928E+03 -0.49279743419E+03  0.62108271854E+03  0.80301162729E+02 0.  0.
         24    2    4    4    0    0 -0.16555443728E+03  0.47612976214E+03 -0.34106034884E+03  0.61383011315E+03  0.79733457024E+02 0.  0.
         13    1    3    3    0    0  0.12587345035E+02 -0.66036371926E+01  0.18981283521E+02  0.23713675449E+02  0.00000000000E+00 0.  1.
        -13    1    3    3    0    0 -0.75013819366E+02 -0.17888741566E+03  0.42102844652E+01  0.19402450122E+03  0.00000000000E+00 0. -1.
          2    1    6    6  502    0 -0.24998996164E+01  0.51816943070E+02 -0.60326310673E+02  0.79564494887E+02  0.00000000000E+00 0. -1.
          1    1    5    5  503    0  0.88606018225E+02 -0.55336303455E+02 -0.14142068762E+03  0.17582077190E+03  0.00000000000E+00 0. -1.
         -2    1    5    5    0  503  0.13937489338E+03 -0.23530240583E+03 -0.35137674657E+03  0.44526194664E+03  0.00000000000E+00 0.  1.
         -1    1    6    6    0  502 -0.16305453766E+03  0.42431281907E+03 -0.28073403816E+03  0.53426561827E+03  0.00000000000E+00 0.  1.
<mgrwt>
<rscale>  0 0.12054108E+04</rscale>
<asrwt>0</asrwt>
<pdfrwt beam="1">  1        2 0.49383447E-01 0.12054108E+04</pdfrwt>
<pdfrwt beam="2">  1       -2 0.17410132E+00 0.12054108E+04</pdfrwt>
<totfact> 0.19996114E+01</totfact>
</mgrwt>
</event>
<event>
12    1  0.1114484E-007  0.1525294E+04  0.7818608E-02  0.8867805E-01
          1   -1    0    0  501    0  0.00000000000E+00  0.00000000000E+00  0.20465644222E+04  0.20465644222E+04  0.00000000000E+00 0. -1.
         -1   -1    0    0    0  501 -0.00000000000E+00 -0.00000000000E+00 -0.28419834292E+03  0.28419834292E+03  0.00000000000E+00 0.  1.
         23    2    1    2    0    0  0.13323162942E+03 -0.45470329386E+03  0.73164837919E+03  0.87630304190E+03  0.89955088517E+02 0.  0.
        254    2    1    2    0    0 -0.13323162942E+03  0.45470329386E+03  0.10307177001E+04  0.14544597232E+04  0.91025730246E+03 0.  0.
        -24    2    4    4    0    0 -0.12510308331E+03 -0.21331549054E+03  0.60535603218E+03  0.65818615335E+03  0.74825175031E+02 0.  0.
         24    2    4    4    0    0 -0.81285461169E+01  0.66801878440E+03  0.42536166794E+03  0.79627356989E+03  0.82485635032E+02 0.  0.
         11    1    3    3    0    0  0.99049030682E+02 -0.30224284708E+03  0.56130487094E+03  0.64515471573E+03  0.00000000000E+00 0. -1.
        -11    1    3    3    0    0  0.34182598742E+02 -0.15246044678E+03  0.17034350825E+03  0.23114832617E+03  0.00000000000E+00 0.  1.
          4    1    6    6  502    0 -0.37472547369E+02  0.55344764052E+03  0.34399557178E+03  0.65271849675E+03  0.00000000000E+00 0. -1.
          1    1    5    5  503    0 -0.12341545862E+03 -0.14692083924E+03  0.45641915082E+03  0.49511165373E+03  0.00000000000E+00 0. -1.
         -2    1    5    5    0  503 -0.16876246898E+01 -0.66394651294E+02  0.14893688136E+03  0.16307449962E+03  0.00000000000E+00 0.  1.
         -3    1    6    6    0  502  0.29344001252E+02  0.11457114388E+03  0.81366096159E+02  0.14355507314E+03  0.00000000000E+00 0.  1.
<mgrwt>
<rscale>  0 0.15252937E+04</rscale>
<asrwt>0</asrwt>
<pdfrwt beam="1">  1        1 0.31485606E+00 0.15252937E+04</pdfrwt>
<pdfrwt beam="2">  1       -1 0.43722823E-01 0.15252937E+04</pdfrwt>
<totfact> 0.13831887E+01</totfact>
</mgrwt>
</event>
<event>
12    1  0.1114484E-007  0.1279680E+04  0.7818608E-02  0.9045836E-01
          1   -1    0    0  501    0  0.00000000000E+00  0.00000000000E+00  0.87151335508E+03  0.87151335508E+03  0.00000000000E+00 0. -1.
         -1   -1    0    0    0  501 -0.00000000000E+00 -0.00000000000E+00 -0.46975199946E+03  0.46975199946E+03  0.00000000000E+00 0.  1.
         23    2    1    2    0    0 -0.17518754399E+03  0.11782194912E+03  0.42643040987E+03  0.48396922933E+03  0.88377786852E+02 0.  0.
        254    2    1    2    0    0  0.17518754399E+03 -0.11782194912E+03 -0.24669054247E+02  0.85729612521E+03  0.83052718005E+03 0.  0.
        -24    2    4    4    0    0  0.26413332669E+02  0.17488841494E+03 -0.34230427989E+03  0.39356683810E+03  0.80243468276E+02 0.  0.
         24    2    4    4    0    0  0.14877421132E+03 -0.29271036406E+03  0.31763522564E+03  0.46372928711E+03  0.79621554700E+02 0.  0.
         13    1    3    3    0    0 -0.44571361155E+02  0.78676680095E+02  0.20280741500E+03  0.22205286263E+03  0.00000000000E+00 0. -1.
        -13    1    3    3    0    0 -0.13061618283E+03  0.39145269022E+02  0.22362299487E+03  0.26191636669E+03  0.00000000000E+00 0.  1.
          4    1    6    6  502    0  0.38437090405E+02 -0.12631676474E+03  0.84373005672E+02  0.15669122202E+03  0.00000000000E+00 0. -1.
          3    1    5    5  503    0  0.50074347263E+02  0.10394435655E+03 -0.16703083940E+03  0.20300534679E+03  0.00000000000E+00 0. -1.
         -2    1    5    5    0  503 -0.23661014594E+02  0.70944058387E+02 -0.17527344049E+03  0.19056149132E+03  0.00000000000E+00 0.  1.
         -3    1    6    6    0  502  0.11033712091E+03 -0.16639359932E+03  0.23326221997E+03  0.30703806509E+03  0.00000000000E+00 0.  1.
<mgrwt>
<rscale>  0 0.12796799E+04</rscale>
<asrwt>0</asrwt>
<pdfrwt beam="1">  1        1 0.13407898E+00 0.12796799E+04</pdfrwt>
<pdfrwt beam="2">  1       -1 0.72269538E-01 0.12796799E+04</pdfrwt>
<totfact> 0.36526906E+01</totfact>
</mgrwt>
</event>
<event>
12    1  0.1114484E-007  0.1651798E+04  0.7818608E-02  0.8789344E-01
         -2   -1    0    0    0  501 -0.00000000000E+00  0.00000000000E+00  0.10511773461E+04  0.10511773461E+04  0.00000000000E+00 0.  1.
          2   -1    0    0  501    0  0.00000000000E+00 -0.00000000000E+00 -0.64889992200E+03  0.64889992200E+03  0.00000000000E+00 0. -1.
         23    2    1    2    0    0 -0.31169713441E+03  0.37831566438E+03 -0.16582276192E+03  0.52656637270E+03  0.97453121950E+02 0.  0.
        254    2    1    2    0    0  0.31169713441E+03 -0.37831566438E+03  0.56810018599E+03  0.11735108954E+04  0.90228163824E+03 0.  0.
        -24    2    4    4    0    0  0.60483257240E+03 -0.34825743220E+03  0.28568358016E+03  0.75825960576E+03  0.78973679325E+02 0.  0.
         24    2    4    4    0    0 -0.29313543800E+03 -0.30058232178E+02  0.28241660584E+03  0.41525128961E+03  0.76436980183E+02 0.  0.
         13    1    3    3    0    0 -0.17402191493E+03  0.18304687521E+03 -0.37413731513E+02  0.25532248767E+03  0.00000000000E+00 0.  1.
        -13    1    3    3    0    0 -0.13767521947E+03  0.19526878917E+03 -0.12840903041E+03  0.27124388504E+03  0.00000000000E+00 0. -1.
          4    1    6    6  502    0 -0.12540343961E+03 -0.27000503956E+02  0.75405247731E+02  0.14879852575E+03  0.00000000000E+00 0. -1.
          3    1    5    5  503    0  0.27634958149E+03 -0.11448246196E+03  0.12741410738E+03  0.32513025089E+03  0.00000000000E+00 0. -1.
         -4    1    5    5    0  503  0.32848299092E+03 -0.23377497025E+03  0.15826947277E+03  0.43312935487E+03  0.00000000000E+00 0.  1.
         -3    1    6    6    0  502 -0.16773199839E+03 -0.30577282225E+01  0.20701135811E+03  0.26645276386E+03  0.00000000000E+00 0.  1.
<mgrwt>
<rscale>  0 0.16517977E+04</rscale>
<asrwt>0</asrwt>
<pdfrwt beam="1">  1        2 0.99830757E-01 0.16517977E+04</pdfrwt>
<pdfrwt beam="2">  1       -2 0.16171959E+00 0.16517977E+04</pdfrwt>
<totfact> 0.10520328E+01</totfact>
</mgrwt>
</event>
<event>
12    1  0.1284913E-007  0.1561884E+04  0.7818608E-02  0.8844312E-01
         -1   -1    0    0    0  501 -0.00000000000E+00  0.00000000000E+00  0.39591205687E+03  0.39591205687E+03  0.00000000000E+00 0.  1.
          1   -1    0    0  501    0  0.00000000000E+00 -0.00000000000E+00 -0.15404191312E+04  0.15404191312E+04  0.00000000000E+00 0. -1.
         23    2    1    2    0    0  0.41458752326E+03  0.28442039349E+03 -0.23407689883E+03  0.56122792478E+03  0.86064012869E+02 0.  0.
        254    2    1    2    0    0 -0.41458752326E+03 -0.28442039349E+03 -0.91043017550E+03  0.13751032633E+04  0.89958218390E+03 0.  0.
        -24    2    4    4    0    0  0.13427831845E+03  0.16431022532E+03 -0.50722061117E+03  0.55548179700E+03  0.79112334407E+02 0.  0.
         24    2    4    4    0    0 -0.54886584171E+03 -0.44873061881E+03 -0.40320956433E+03  0.81962146629E+03  0.81169666687E+02 0.  0.
         13    1    3    3    0    0  0.77411038368E+02  0.35146827783E+02 -0.94599367803E+01  0.85540977130E+02  0.00000000000E+00 0.  1.
        -13    1    3    3    0    0  0.33717648489E+03  0.24927356571E+03 -0.22461696205E+03  0.47568694765E+03  0.00000000000E+00 0. -1.
          4    1    6    6  502    0 -0.48136224040E+03 -0.37548305070E+03 -0.31699221261E+03  0.68788166911E+03  0.00000000000E+00 0. -1.
          3    1    5    5  503    0  0.95739954913E+02  0.12377147902E+03 -0.44552488548E+03  0.47220540188E+03  0.00000000000E+00 0. -1.
         -4    1    5    5    0  503  0.38538363534E+02  0.40538746305E+02 -0.61695725690E+02  0.83276395120E+02  0.00000000000E+00 0.  1.
         -3    1    6    6    0  502 -0.67503601309E+02 -0.73247568117E+02 -0.86217351721E+02  0.13173979719E+03  0.00000000000E+00 0.  1.
<mgrwt>
<rscale>  0 0.15618841E+04</rscale>
<asrwt>0</asrwt>
<pdfrwt beam="1">  1        1 0.23698756E+00 0.15618841E+04</pdfrwt>
<pdfrwt beam="2">  1       -1 0.60909547E-01 0.15618841E+04</pdfrwt>
<totfact> 0.16137139E+01</totfact>
</mgrwt>
</event>
<event>
12    1  0.1114484E-007  0.1368507E+04  0.7818608E-02  0.8976936E-01
          2   -1    0    0  501    0  0.00000000000E+00  0.00000000000E+00  0.11906260755E+04  0.11906260755E+04  0.00000000000E+00 0. -1.
         -2   -1    0    0    0  501 -0.00000000000E+00 -0.00000000000E+00 -0.39324087398E+03  0.39324087398E+03  0.00000000000E+00 0.  1.
         23    2    1    2    0    0  0.13575396680E+03  0.14772890130E+03  0.60079601892E+03  0.64024455275E+03  0.93296640860E+02 0.  0.
        254    2    1    2    0    0 -0.13575396680E+03 -0.14772890130E+03  0.19658918257E+03  0.94362239670E+03  0.90084568771E+03 0.  0.
        -24    2    4    4    0    0  0.12753128869E+03  0.22567516142E+03  0.36023415867E+03  0.45171195109E+03  0.84151824780E+02 0.  0.
         24    2    4    4    0    0 -0.26328525549E+03 -0.37340406272E+03 -0.16364497610E+03  0.49191044561E+03  0.80290027270E+02 0.  0.
         11    1    3    3    0    0  0.94250764713E+02  0.61799670675E+02  0.21415747295E+03  0.24200377923E+03  0.00000000000E+00 0.  1.
        -11    1    3    3    0    0  0.41503202088E+02  0.85929230627E+02  0.38663854597E+03  0.39824077352E+03  0.00000000000E+00 0. -1.
          2    1    6    6  502    0 -0.11063312407E+03 -0.22452307513E+03 -0.78708682624E+02  0.26238398604E+03  0.00000000000E+00 0. -1.
          1    1    5    5  503    0  0.82540928120E+02  0.20451000214E+03  0.26937361310E+03  0.34813717013E+03  0.00000000000E+00 0. -1.
         -2    1    5    5    0  503  0.44990360567E+02  0.21165159280E+02  0.90860545564E+02  0.10357478096E+03  0.00000000000E+00 0.  1.
         -1    1    6    6    0  502 -0.15265213142E+03 -0.14888098759E+03 -0.84936293473E+02  0.22952645957E+03  0.00000000000E+00 0.  1.
<mgrwt>
<rscale>  0 0.13685070E+04</rscale>
<asrwt>0</asrwt>
<pdfrwt beam="1">  1        2 0.18317324E+00 0.13685070E+04</pdfrwt>
<pdfrwt beam="2">  1       -2 0.60498597E-01 0.13685070E+04</pdfrwt>
<totfact> 0.47634180E+01</totfact>
</mgrwt>
</event>
<event>
12    1  0.1114484E-007  0.1609405E+04  0.7818608E-02  0.8814791E-01
         -2   -1    0    0    0  501 -0.00000000000E+00  0.00000000000E+00  0.33958694170E+03  0.33958694170E+03  0.00000000000E+00 0.  1.
          2   -1    0    0  501    0  0.00000000000E+00 -0.00000000000E+00 -0.19068628961E+04  0.19068628961E+04  0.00000000000E+00 0. -1.
         23    2    1    2    0    0  0.11534290382E+03  0.51156771825E+02  0.20294479506E+03  0.25533923679E+03  0.89947402605E+02 0.  0.
        254    2    1    2    0    0 -0.11534290382E+03 -0.51156771825E+02 -0.17702207495E+04  0.19911106011E+04  0.90272859867E+03 0.  0.
        -24    2    4    4    0    0 -0.46429677923E+02  0.10820320934E+03  0.57117985696E+02  0.15388795198E+03  0.80965350430E+02 0.  0.
         24    2    4    4    0    0 -0.68913225898E+02 -0.15935998116E+03 -0.18273387352E+04  0.18372226491E+04  0.77945960667E+02 0.  0.
         11    1    3    3    0    0  0.86915438877E+02  0.64214617059E+02  0.19519296794E+03  0.22311007439E+03  0.00000000000E+00 0.  1.
        -11    1    3    3    0    0  0.28427464943E+02 -0.13057845234E+02  0.77518271189E+01  0.32229162399E+02  0.00000000000E+00 0. -1.
          2    1    6    6  502    0 -0.85511252245E+02 -0.11876980236E+03 -0.13787799052E+04  0.13865253215E+04  0.00000000000E+00 0. -1.
          3    1    5    5  503    0 -0.11270626001E+02  0.89666882091E+02  0.67511861709E+02  0.11280526684E+03  0.00000000000E+00 0. -1.
         -4    1    5    5    0  503 -0.35159051921E+02  0.18536327247E+02 -0.10393876012E+02  0.41082685141E+02  0.00000000000E+00 0.  1.
         -1    1    6    6    0  502  0.16598026347E+02 -0.40590178805E+02 -0.44855882999E+03  0.45069732754E+03  0.00000000000E+00 0.  1.
<mgrwt>
<rscale>  0 0.16094045E+04</rscale>
<asrwt>0</asrwt>
<pdfrwt beam="1">  1        2 0.29336352E+00 0.16094045E+04</pdfrwt>
<pdfrwt beam="2">  1       -2 0.52244146E-01 0.16094045E+04</pdfrwt>
<totfact> 0.24945002E+01</totfact>
</mgrwt>
</event>
<event>
12    1  0.1114484E-007  0.1518245E+04  0.7818608E-02  0.8872410E-01
         -2   -1    0    0    0  501 -0.00000000000E+00  0.00000000000E+00  0.33052440290E+03  0.33052440290E+03  0.00000000000E+00 0. -1.
          2   -1    0    0  501    0  0.00000000000E+00 -0.00000000000E+00 -0.17434931194E+04  0.17434931194E+04  0.00000000000E+00 0.  1.
         23    2    1    2    0    0  0.95853324517E+01 -0.69762434010E+02  0.20992565852E+03  0.24027227709E+03  0.93291528213E+02 0.  0.
        254    2    1    2    0    0 -0.95853324517E+01  0.69762434010E+02 -0.16228943750E+04  0.18337452452E+04  0.85080949460E+03 0.  0.
        -24    2    4    4    0    0  0.31139298255E+03 -0.11571094609E+03 -0.28892454141E+03  0.44689130207E+03  0.76680066587E+02 0.  0.
         24    2    4    4    0    0 -0.32097831500E+03  0.18547338010E+03 -0.13339698336E+04  0.13868539432E+04  0.80379656789E+02 0.  0.
         11    1    3    3    0    0  0.35465333498E+02 -0.55202674797E+02  0.19744489362E+03  0.20806155628E+03  0.00000000000E+00 0. -1.
        -11    1    3    3    0    0 -0.25880001046E+02 -0.14559759213E+02  0.12480764893E+02  0.32210720805E+02  0.00000000000E+00 0.  1.
          2    1    6    6  502    0 -0.64924891337E+02  0.83728043936E+01 -0.29844352182E+03  0.30553867363E+03  0.00000000000E+00 0. -1.
          3    1    5    5  503    0  0.55295107874E+02 -0.54424032485E+02 -0.67635542206E+02  0.10292759997E+03  0.00000000000E+00 0. -1.
         -4    1    5    5    0  503  0.25609787467E+03 -0.61286913607E+02 -0.22128899921E+03  0.34396370210E+03  0.00000000000E+00 0.  1.
         -1    1    6    6    0  502 -0.25605342366E+03  0.17710057571E+03 -0.10355263118E+04  0.10813152695E+04  0.00000000000E+00 0.  1.
<mgrwt>
<rscale>  0 0.15182451E+04</rscale>
<asrwt>0</asrwt>
<pdfrwt beam="1">  1        2 0.26822971E+00 0.15182451E+04</pdfrwt>
<pdfrwt beam="2">  1       -2 0.50849908E-01 0.15182451E+04</pdfrwt>
<totfact> 0.32716443E+01</totfact>
</mgrwt>
</event>
<event>
12    1  0.1114484E-007  0.1806815E+04  0.7818608E-02  0.8702684E-01
          1   -1    0    0  501    0  0.00000000000E+00  0.00000000000E+00  0.29653646864E+04  0.29653646864E+04  0.00000000000E+00 0. -1.
         -1   -1    0    0    0  501 -0.00000000000E+00 -0.00000000000E+00 -0.27522583369E+03  0.27522583369E+03  0.00000000000E+00 0.  1.
         23    2    1    2    0    0 -0.61915250479E+03  0.12782483368E+03  0.14358012874E+04  0.15713743735E+04  0.89459892645E+02 0.  0.
        254    2    1    2    0    0  0.61915250479E+03 -0.12782483368E+03  0.12543375653E+04  0.16692161466E+04  0.90179310495E+03 0.  0.
        -24    2    4    4    0    0 -0.16260940362E+03  0.18111118762E+03  0.33275017077E+03  0.41960527682E+03  0.78120623145E+02 0.  0.
         24    2    4    4    0    0  0.78176190840E+03 -0.30893602129E+03  0.92158739455E+03  0.12496108698E+04  0.74905630623E+02 0.  0.
         11    1    3    3    0    0 -0.45856342757E+03  0.87501248905E+02  0.11488866956E+04  0.12401119002E+04  0.00000000000E+00 0.  1.
        -11    1    3    3    0    0 -0.16058907722E+03  0.40323584772E+02  0.28691459175E+03  0.33126247323E+03  0.00000000000E+00 0. -1.
          4    1    6    6  502    0  0.57729627340E+03 -0.22353204764E+03  0.62847210535E+03  0.88216480932E+03  0.00000000000E+00 0. -1.
          1    1    5    5  503    0 -0.10956316096E+03  0.63574198317E+02  0.16601876514E+03  0.20882527460E+03  0.00000000000E+00 0. -1.
         -2    1    5    5    0  503 -0.53046242662E+02  0.11753698930E+03  0.16673140563E+03  0.21078000222E+03  0.00000000000E+00 0.  1.
         -3    1    6    6    0  502  0.20446563501E+03 -0.85403973656E+02  0.29311528921E+03  0.36744606051E+03  0.00000000000E+00 0.  1.
<mgrwt>
<rscale>  0 0.18068148E+04</rscale>
<asrwt>0</asrwt>
<pdfrwt beam="1">  1        1 0.45620993E+00 0.18068148E+04</pdfrwt>
<pdfrwt beam="2">  1       -1 0.42342438E-01 0.18068148E+04</pdfrwt>
<totfact> 0.32863649E+00</totfact>
</mgrwt>
</event>
<event>
12    1  0.1114484E-007  0.1431611E+04  0.7818608E-02  0.8931250E-01
         -1   -1    0    0    0  501 -0.00000000000E+00  0.00000000000E+00  0.22422549095E+03  0.22422549095E+03  0.00000000000E+00 0.  1.
          1   -1    0    0  501    0  0.00000000000E+00 -0.00000000000E+00 -0.22850982710E+04  0.22850982710E+04  0.00000000000E+00 0. -1.
         23    2    1    2    0    0  0.17921456095E+03  0.14386807408E+03 -0.12567607531E+04  0.12807274752E+04  0.89439329406E+02 0.  0.
        254    2    1    2    0    0 -0.17921456095E+03 -0.14386807408E+03 -0.80411202701E+03  0.12285962868E+04  0.90002044553E+03 0.  0.
        -24    2    4    4    0    0  0.23469858295E+03  0.10866678623E+03 -0.66457322437E+03  0.71764433871E+03  0.80398576201E+02 0.  0.
         24    2    4    4    0    0 -0.41391314390E+03 -0.25253486031E+03 -0.13953880263E+03  0.51095194809E+03  0.80640371115E+02 0.  0.
         13    1    3    3    0    0  0.16223820843E+03  0.11317373552E+03 -0.11782218524E+04  0.11947117912E+04  0.00000000000E+00 0. -1.
        -13    1    3    3    0    0  0.16976352518E+02  0.30694338564E+02 -0.78538900718E+02  0.86015683981E+02  0.00000000000E+00 0.  1.
          4    1    6    6  502    0 -0.37243900045E+03 -0.24226154648E+03 -0.10635256182E+03  0.45685044967E+03  0.00000000000E+00 0. -1.
          3    1    5    5  503    0  0.19830350353E+03  0.10328890689E+03 -0.48109788247E+03  0.53051677666E+03  0.00000000000E+00 0. -1.
         -4    1    5    5    0  503  0.36395079425E+02  0.53778793462E+01 -0.18347534190E+03  0.18712756205E+03  0.00000000000E+00 0.  1.
         -3    1    6    6    0  502 -0.41474143447E+02 -0.10273313830E+02 -0.33186240814E+02  0.54101498418E+02  0.00000000000E+00 0.  1.
<mgrwt>
<rscale>  0 0.14316107E+04</rscale>
<asrwt>0</asrwt>
<pdfrwt beam="1">  1        1 0.35155357E+00 0.14316107E+04</pdfrwt>
<pdfrwt beam="2">  1       -1 0.34496230E-01 0.14316107E+04</pdfrwt>
<totfact> 0.14789648E+01</totfact>
</mgrwt>
</event>
<event>
12    1  0.1114484E-007  0.1415166E+04  0.7818608E-02  0.8942913E-01
         -2   -1    0    0    0  501 -0.00000000000E+00  0.00000000000E+00  0.37067668046E+03  0.37067668046E+03  0.00000000000E+00 0. -1.
          2   -1    0    0  501    0  0.00000000000E+00 -0.00000000000E+00 -0.13507020661E+04  0.13507020661E+04  0.00000000000E+00 0.  1.
         23    2    1    2    0    0  0.17107125924E+03  0.27995067673E+03 -0.54773202690E+03  0.64507820674E+03  0.92074765205E+02 0.  0.
        254    2    1    2    0    0 -0.17107125924E+03 -0.27995067673E+03 -0.43229335871E+03  0.10763005398E+04  0.92946626987E+03 0.  0.
        -24    2    4    4    0    0  0.60854834749E+02  0.25125555361E+03  0.97177100067E+02  0.28724659087E+03  0.78959173351E+02 0.  0.
         24    2    4    4    0    0 -0.23192609399E+03 -0.53120623034E+03 -0.52947045878E+03  0.78905394891E+03  0.79356129886E+02 0.  0.
         11    1    3    3    0    0  0.17227381066E+03  0.23928352583E+03 -0.43752494094E+03  0.52760112350E+03  0.00000000000E+00 0.  1.
        -11    1    3    3    0    0 -0.12025514241E+01  0.40667150894E+02 -0.11020708595E+03  0.11747708324E+03  0.00000000000E+00 0. -1.
          4    1    6    6  502    0 -0.17084502287E+02 -0.85021798188E+01 -0.10497251669E+02  0.21779797352E+02  0.00000000000E+00 0. -1.
          3    1    5    5  503    0  0.38875094433E+02  0.33180697917E+02  0.17019874286E+02  0.53869358657E+02  0.00000000000E+00 0. -1.
         -4    1    5    5    0  503  0.21979740316E+02  0.21807485570E+03  0.80157225781E+02  0.23337723221E+03  0.00000000000E+00 0.  1.
         -3    1    6    6    0  502 -0.21484159170E+03 -0.52270405052E+03 -0.51897320711E+03  0.76727415156E+03  0.00000000000E+00 0.  1.
<mgrwt>
<rscale>  0 0.14151661E+04</rscale>
<asrwt>0</asrwt>
<pdfrwt beam="1">  1        2 0.20780031E+00 0.14151661E+04</pdfrwt>
<pdfrwt beam="2">  1       -2 0.57027183E-01 0.14151661E+04</pdfrwt>
<totfact> 0.43286744E+01</totfact>
</mgrwt>
</event>
<event>
12    1  0.1114484E-007  0.2906505E+04  0.7818608E-02  0.8270945E-01
         -2   -1    0    0    0  501 -0.00000000000E+00  0.00000000000E+00  0.81479494336E+03  0.81479494336E+03  0.00000000000E+00 0.  1.
          2   -1    0    0  501    0  0.00000000000E+00 -0.00000000000E+00 -0.25919935111E+04  0.25919935111E+04  0.00000000000E+00 0. -1.
         23    2    1    2    0    0  0.59702948871E+03  0.11154445736E+04 -0.12144258930E+04  0.17558877672E+04  0.87468818986E+02 0.  0.
        254    2    1    2    0    0 -0.59702948871E+03 -0.11154445736E+04 -0.56277267470E+03  0.16509006872E+04  0.89894337332E+03 0.  0.
        -24    2    4    4    0    0 -0.43121009757E+03 -0.10213997086E+03  0.48832494702E+02  0.45304552133E+03  0.80566183770E+02 0.  0.
         24    2    4    4    0    0 -0.16581939115E+03 -0.10133046028E+04 -0.61160516940E+03  0.11978551659E+04  0.80708281759E+02 0.  0.
         13    1    3    3    0    0  0.52083077441E+03  0.10259740246E+04 -0.11071027726E+04  0.15967354019E+04  0.00000000000E+00 0. -1.
        -13    1    3    3    0    0  0.76198714302E+02  0.89470549051E+02 -0.10732312046E+03  0.15915236534E+03  0.00000000000E+00 0.  1.
          4    1    6    6  502    0 -0.14080317645E+03 -0.92246518117E+03 -0.57883884704E+03  0.10980992468E+04  0.00000000000E+00 0. -1.
          3    1    5    5  503    0 -0.41328884881E+03 -0.98580664133E+02  0.28690248438E+02  0.42585085447E+03  0.00000000000E+00 0. -1.
         -4    1    5    5    0  503 -0.17921248753E+02 -0.35593067269E+01  0.20142246263E+02  0.27194666863E+02  0.00000000000E+00 0.  1.
         -3    1    6    6    0  502 -0.25016214701E+02 -0.90839421582E+02 -0.32766322365E+02  0.99755919086E+02  0.00000000000E+00 0.  1.
<mgrwt>
<rscale>  0 0.29065053E+04</rscale>
<asrwt>0</asrwt>
<pdfrwt beam="1">  1        2 0.39876824E+00 0.29065053E+04</pdfrwt>
<pdfrwt beam="2">  1       -2 0.12535307E+00 0.29065053E+04</pdfrwt>
<totfact> 0.12630447E+00</totfact>
</mgrwt>
</event>
<event>
12    1  0.1114484E-007  0.1237693E+04  0.7818608E-02  0.9080489E-01
         -2   -1    0    0    0  501 -0.00000000000E+00  0.00000000000E+00  0.22447166840E+03  0.22447166840E+03  0.00000000000E+00 0. -1.
          2   -1    0    0  501    0  0.00000000000E+00 -0.00000000000E+00 -0.17060986404E+04  0.17060986404E+04  0.00000000000E+00 0.  1.
         23    2    1    2    0    0  0.18899339728E+02  0.26920838401E+03 -0.41997093448E+03  0.50694257443E+03  0.88231790725E+02 0.  0.
        254    2    1    2    0    0 -0.18899339728E+02 -0.26920838401E+03 -0.10616560375E+04  0.14236277344E+04  0.90927006163E+03 0.  0.
        -24    2    4    4    0    0 -0.11457724168E+03  0.39489588397E+02 -0.10804697264E+04  0.10902041142E+04  0.80267110977E+02 0.  0.
         24    2    4    4    0    0  0.95677901956E+02 -0.30869797241E+03  0.18813688857E+02  0.33342362016E+03  0.79803862696E+02 0.  0.
         13    1    3    3    0    0 -0.28825553023E+02  0.76375637112E+02 -0.16143062671E+03  0.18089775480E+03  0.00000000000E+00 0. -1.
        -13    1    3    3    0    0  0.47724892751E+02  0.19283274690E+03 -0.25854030778E+03  0.32604481964E+03  0.00000000000E+00 0.  1.
          4    1    6    6  502    0  0.82687532735E+02 -0.20520644313E+03  0.45255294820E+02  0.22582062368E+03  0.00000000000E+00 0. -1.
          1    1    5    5  503    0 -0.83906128615E+02  0.85272043169E+01 -0.92204420190E+03  0.92589333181E+03  0.00000000000E+00 0. -1.
         -2    1    5    5    0  503 -0.30671113068E+02  0.30962384080E+02 -0.15842552447E+03  0.16431078238E+03  0.00000000000E+00 0.  1.
         -3    1    6    6    0  502  0.12990369221E+02 -0.10349152928E+03 -0.26441605963E+02  0.10760299648E+03  0.00000000000E+00 0.  1.
<mgrwt>
<rscale>  0 0.12376927E+04</rscale>
<asrwt>0</asrwt>
<pdfrwt beam="1">  1        2 0.26247672E+00 0.12376927E+04</pdfrwt>
<pdfrwt beam="2">  1       -2 0.34534102E-01 0.12376927E+04</pdfrwt>
<totfact> 0.75268759E+01</totfact>
</mgrwt>
</event>
<event>
12    1  0.1114484E-007  0.1974077E+04  0.7818608E-02  0.8618837E-01
         -2   -1    0    0    0  501 -0.00000000000E+00  0.00000000000E+00  0.57256963318E+03  0.57256963318E+03  0.00000000000E+00 0.  1.
          2   -1    0    0  501    0  0.00000000000E+00 -0.00000000000E+00 -0.17015318193E+04  0.17015318193E+04  0.00000000000E+00 0. -1.
         23    2    1    2    0    0  0.28537959339E+03 -0.70465564253E+03 -0.24316600150E+03  0.80329339696E+03  0.90385233539E+02 0.  0.
        254    2    1    2    0    0 -0.28537959339E+03  0.70465564253E+03 -0.88579618465E+03  0.14708080555E+04  0.89479627214E+03 0.  0.
        -24    2    4    4    0    0 -0.41638188630E+02  0.75810096983E+03 -0.28360998303E+03  0.81432223775E+03  0.78963695542E+02 0.  0.
         24    2    4    4    0    0 -0.24374140476E+03 -0.53445327301E+02 -0.60218620162E+03  0.65648581779E+03  0.77968789497E+02 0.  0.
         13    1    3    3    0    0  0.51565661726E+02 -0.57866069716E+02 -0.31970017355E+02  0.83842599574E+02  0.00000000000E+00 0. -1.
        -13    1    3    3    0    0  0.23381393167E+03 -0.64678957281E+03 -0.21119598415E+03  0.71945079739E+03  0.00000000000E+00 0.  1.
          4    1    6    6  502    0 -0.21409718974E+03 -0.63127007151E+02 -0.46497680648E+03  0.51577713816E+03  0.00000000000E+00 0. -1.
          1    1    5    5  503    0 -0.52176290484E+02  0.64836906750E+03 -0.26570570724E+03  0.70264097222E+03  0.00000000000E+00 0. -1.
         -2    1    5    5    0  503  0.10538101854E+02  0.10973190233E+03 -0.17904275787E+02  0.11168126553E+03  0.00000000000E+00 0.  1.
         -3    1    6    6    0  502 -0.29644215029E+02  0.96816798501E+01 -0.13720939514E+03  0.14070867964E+03  0.00000000000E+00 0.  1.
<mgrwt>
<rscale>  0 0.19740775E+04</rscale>
<asrwt>0</asrwt>
<pdfrwt beam="1">  1        2 0.26177413E+00 0.19740775E+04</pdfrwt>
<pdfrwt beam="2">  1       -2 0.88087636E-01 0.19740775E+04</pdfrwt>
<totfact> 0.10118376E+01</totfact>
</mgrwt>
</event>
<event>
12    1  0.1114484E-007  0.2234680E+04  0.7818608E-02  0.8504131E-01
          2   -1    0    0  501    0  0.00000000000E+00  0.00000000000E+00  0.31859526776E+04  0.31859526776E+04  0.00000000000E+00 0. -1.
         -2   -1    0    0    0  501 -0.00000000000E+00 -0.00000000000E+00 -0.39186041732E+03  0.39186041732E+03  0.00000000000E+00 0.  1.
         23    2    1    2    0    0  0.53083303061E+03 -0.76636951878E+03  0.11061193206E+04  0.14495815576E+04  0.93170784152E+02 0.  0.
        254    2    1    2    0    0 -0.53083303061E+03  0.76636951878E+03  0.16879729397E+04  0.21282315373E+04  0.90056142801E+03 0.  0.
        -24    2    4    4    0    0 -0.48056179902E+03  0.49838407936E+03  0.38804939458E+03  0.79762003971E+03  0.79303605693E+02 0.  0.
         24    2    4    4    0    0 -0.50271231591E+02  0.26798543941E+03  0.12999235451E+04  0.13306114976E+04  0.79889561176E+02 0.  0.
         11    1    3    3    0    0  0.50976307387E+03 -0.71652714466E+03  0.10677683203E+04  0.13832565656E+04  0.00000000000E+00 0.  1.
        -11    1    3    3    0    0  0.21069956745E+02 -0.49842374119E+02  0.38351000266E+02  0.66324991944E+02  0.00000000000E+00 0. -1.
          4    1    6    6  502    0 -0.50925378214E+02  0.20541356444E+03  0.11273714552E+04  0.11470634353E+04  0.00000000000E+00 0. -1.
          1    1    5    5  503    0 -0.21071020949E+03  0.17694299464E+03  0.12424506725E+03  0.30190139528E+03  0.00000000000E+00 0. -1.
         -2    1    5    5    0  503 -0.26985158953E+03  0.32144108473E+03  0.26380432733E+03  0.49571864443E+03  0.00000000000E+00 0.  1.
         -3    1    6    6    0  502  0.65414662330E+00  0.62571874977E+02  0.17255208985E+03  0.18354806226E+03  0.00000000000E+00 0.  1.
<mgrwt>
<rscale>  0 0.22346801E+04</rscale>
<asrwt>0</asrwt>
<pdfrwt beam="1">  1        2 0.49014655E+00 0.22346801E+04</pdfrwt>
<pdfrwt beam="2">  1       -2 0.60286220E-01 0.22346801E+04</pdfrwt>
<totfact> 0.31003760E+00</totfact>
</mgrwt>
</event>
<event>
12    1  0.1114484E-007  0.1702023E+04  0.7818608E-02  0.8760211E-01
         -1   -1    0    0    0  501 -0.00000000000E+00  0.00000000000E+00  0.73339813710E+03  0.73339813710E+03  0.00000000000E+00 0.  1.
          1   -1    0    0  501    0  0.00000000000E+00 -0.00000000000E+00 -0.98748629531E+03  0.98748629531E+03  0.00000000000E+00 0. -1.
         23    2    1    2    0    0 -0.26084404915E+03  0.17405556830E+02 -0.64542203205E+03  0.70226828745E+03  0.90931714578E+02 0.  0.
        254    2    1    2    0    0  0.26084404915E+03 -0.17405556830E+02  0.39133387385E+03  0.10186161450E+04  0.90337925511E+03 0.  0.
        -24    2    4    4    0    0  0.56565445189E+02 -0.27336494712E+02 -0.28752196850E+03  0.30490175972E+03  0.79682288999E+02 0.  0.
         24    2    4    4    0    0  0.20427860396E+03  0.99309378814E+01  0.67885584234E+03  0.71371438524E+03  0.81942647310E+02 0.  0.
         13    1    3    3    0    0 -0.25750002236E+03  0.44960636622E+00 -0.62171084696E+03  0.67292706952E+03  0.00000000000E+00 0. -1.
        -13    1    3    3    0    0 -0.33440267837E+01  0.16955950464E+02 -0.23711185095E+02  0.29341217934E+02  0.00000000000E+00 0.  1.
          2    1    6    6  502    0  0.19478613279E+03  0.30800044085E+02  0.59857426992E+03  0.63022332301E+03  0.00000000000E+00 0. -1.
          1    1    5    5  503    0 -0.14179065838E+02 -0.26798451768E+02 -0.74227021432E+02  0.80180132426E+02  0.00000000000E+00 0. -1.
         -2    1    5    5    0  503  0.70744511027E+02 -0.53804294349E+00 -0.21329494707E+03  0.22472162730E+03  0.00000000000E+00 0.  1.
         -1    1    6    6    0  502  0.94924711662E+01 -0.20869106204E+02  0.80281572418E+02  0.83491062231E+02  0.00000000000E+00 0.  1.
<mgrwt>
<rscale>  0 0.17020230E+04</rscale>
<asrwt>0</asrwt>
<pdfrwt beam="1">  1        1 0.15192097E+00 0.17020230E+04</pdfrwt>
<pdfrwt beam="2">  1       -1 0.11283048E+00 0.17020230E+04</pdfrwt>
<totfact> 0.10581782E+01</totfact>
</mgrwt>
</event>
<event>
12    1  0.1114484E-007  0.2612078E+04  0.7818608E-02  0.8364110E-01
          2   -1    0    0  501    0  0.00000000000E+00  0.00000000000E+00  0.39024732355E+04  0.39024732355E+04  0.00000000000E+00 0.  1.
         -2   -1    0    0    0  501 -0.00000000000E+00 -0.00000000000E+00 -0.43709138009E+03  0.43709138009E+03  0.00000000000E+00 0. -1.
         23    2    1    2    0    0 -0.10969997050E+04  0.11361557266E+03  0.10071589238E+04  0.14964444376E+04  0.93059152950E+02 0.  0.
        254    2    1    2    0    0  0.10969997050E+04 -0.11361557266E+03  0.24582229316E+04  0.28431201780E+04  0.90783011283E+03 0.  0.
        -24    2    4    4    0    0 -0.46502620773E+02  0.31159600655E+02 -0.28170181352E+02  0.10130868767E+03  0.79601988847E+02 0.  0.
         24    2    4    4    0    0  0.11435023258E+04 -0.14477517331E+03  0.24863931130E+04  0.27418114903E+04  0.82596103359E+02 0.  0.
         13    1    3    3    0    0 -0.26569123260E+03  0.22116399402E+02  0.29870642377E+03  0.40038293396E+03  0.00000000000E+00 0. -1.
        -13    1    3    3    0    0 -0.83130847240E+03  0.91499173256E+02  0.70845250000E+03  0.10960615036E+04  0.00000000000E+00 0.  1.
          2    1    6    6  502    0  0.91951235948E+03 -0.14180719315E+03  0.19530351091E+04  0.21633211496E+04  0.00000000000E+00 0. -1.
          3    1    5    5  503    0 -0.10886768557E+02  0.53943816210E+02 -0.15623834571E+02  0.57206304230E+02  0.00000000000E+00 0. -1.
         -4    1    5    5    0  503 -0.35615852217E+02 -0.22784215555E+02 -0.12546346781E+02  0.44102383441E+02  0.00000000000E+00 0.  1.
         -1    1    6    6    0  502  0.22398996629E+03 -0.29679801632E+01  0.53335800392E+03  0.57849034067E+03  0.00000000000E+00 0.  1.
<mgrwt>
<rscale>  0 0.26120776E+04</rscale>
<asrwt>0</asrwt>
<pdfrwt beam="1">  1        2 0.60038047E+00 0.26120776E+04</pdfrwt>
<pdfrwt beam="2">  1       -2 0.67244831E-01 0.26120776E+04</pdfrwt>
<totfact> 0.73506493E-01</totfact>
</mgrwt>
</event>
<event>
12    1  0.1114484E-007  0.4155796E+04  0.7818608E-02  0.7973834E-01
          2   -1    0    0  501    0  0.00000000000E+00  0.00000000000E+00  0.45573911669E+04  0.45573911669E+04  0.00000000000E+00 0. -1.
         -2   -1    0    0    0  501 -0.00000000000E+00 -0.00000000000E+00 -0.94739730265E+03  0.94739730265E+03  0.00000000000E+00 0.  1.
         23    2    1    2    0    0  0.48945986743E+03 -0.17960311971E+04  0.82958270989E+03  0.20395972362E+04  0.80314323630E+02 0.  0.
        254    2    1    2    0    0 -0.48945986743E+03  0.17960311971E+04  0.27804111543E+04  0.34651912333E+04  0.90086906558E+03 0.  0.
        -24    2    4    4    0    0 -0.65700851736E+02  0.10369179360E+04  0.21470866641E+04  0.23866579388E+04  0.81483531483E+02 0.  0.
         24    2    4    4    0    0 -0.42375901570E+03  0.75911326115E+03  0.63332449026E+03  0.10785332945E+04  0.79432428849E+02 0.  0.
         13    1    3    3    0    0  0.17172151182E+03 -0.51097538072E+03  0.26047542043E+03  0.59869154159E+03  0.00000000000E+00 0.  1.
        -13    1    3    3    0    0  0.31773835561E+03 -0.12850558164E+04  0.56910728947E+03  0.14409056946E+04  0.00000000000E+00 0. -1.
          2    1    6    6  502    0 -0.11552845457E+03  0.14904278887E+03  0.15763677711E+03  0.24578431648E+03  0.00000000000E+00 0. -1.
          1    1    5    5  503    0  0.12635313660E+02  0.97365795298E+02  0.23794020761E+03  0.25740103271E+03  0.00000000000E+00 0. -1.
         -2    1    5    5    0  503 -0.78336165396E+02  0.93955214068E+03  0.19091464565E+04  0.21292569061E+04  0.00000000000E+00 0.  1.
         -1    1    6    6    0  502 -0.30823056113E+03  0.61007047228E+03  0.47568771316E+03  0.83274897803E+03  0.00000000000E+00 0.  1.
<mgrwt>
<rscale>  0 0.41557960E+04</rscale>
<asrwt>0</asrwt>
<pdfrwt beam="1">  1        2 0.70113709E+00 0.41557960E+04</pdfrwt>
<pdfrwt beam="2">  1       -2 0.14575343E+00 0.41557960E+04</pdfrwt>
<totfact> 0.26963197E-02</totfact>
</mgrwt>
</event>
<event>
12    1  0.1114484E-007  0.2434233E+04  0.7818608E-02  0.8426797E-01
         -2   -1    0    0    0  501 -0.00000000000E+00  0.00000000000E+00  0.87271426544E+03  0.87271426544E+03  0.00000000000E+00 0.  1.
          2   -1    0    0  501    0  0.00000000000E+00 -0.00000000000E+00 -0.16974318364E+04  0.16974318364E+04  0.00000000000E+00 0. -1.
         23    2    1    2    0    0  0.48574828871E+03  0.59061978355E+03 -0.11315892637E+04  0.13687466643E+04  0.90498842794E+02 0.  0.
        254    2    1    2    0    0 -0.48574828871E+03 -0.59061978355E+03  0.30687169273E+03  0.12013994376E+04  0.87430386257E+03 0.  0.
        -24    2    4    4    0    0  0.14156334305E+03 -0.24448556797E+03 -0.16761678522E+03  0.33831089504E+03  0.80904276613E+02 0.  0.
         24    2    4    4    0    0 -0.62731163176E+03 -0.34613421558E+03  0.47448847795E+03  0.86308854253E+03  0.80335160471E+02 0.  0.
         13    1    3    3    0    0  0.47834444730E+03  0.55228204944E+03 -0.10644298005E+04  0.12910614519E+04  0.00000000000E+00 0. -1.
        -13    1    3    3    0    0  0.74038414134E+01  0.38337734116E+02 -0.67159463255E+02  0.77685212425E+02  0.00000000000E+00 0.  1.
          2    1    6    6  502    0 -0.37574777379E+03 -0.23016804506E+03  0.25059865816E+03  0.50691558069E+03  0.00000000000E+00 0. -1.
          1    1    5    5  503    0  0.34154917573E+02 -0.15027897233E+02 -0.59870589148E+01  0.37792075414E+02  0.00000000000E+00 0. -1.
         -4    1    5    5    0  503  0.10740842547E+03 -0.22945767074E+03 -0.16162972631E+03  0.30051881963E+03  0.00000000000E+00 0.  1.
         -1    1    6    6    0  502 -0.25156385797E+03 -0.11596617052E+03  0.22388981979E+03  0.35617296184E+03  0.00000000000E+00 0.  1.
<mgrwt>
<rscale>  0 0.24342333E+04</rscale>
<asrwt>0</asrwt>
<pdfrwt beam="1">  1        2 0.26114335E+00 0.24342333E+04</pdfrwt>
<pdfrwt beam="2">  1       -2 0.13426374E+00 0.24342333E+04</pdfrwt>
<totfact> 0.35302857E+00</totfact>
</mgrwt>
</event>
<event>
12    1  0.1114484E-007  0.1339400E+04  0.7818608E-02  0.8998891E-01
          1   -1    0    0  501    0  0.00000000000E+00  0.00000000000E+00  0.68734245014E+03  0.68734245014E+03  0.00000000000E+00 0. -1.
         -1   -1    0    0    0  501 -0.00000000000E+00 -0.00000000000E+00 -0.65251044109E+03  0.65251044109E+03  0.00000000000E+00 0.  1.
         23    2    1    2    0    0  0.33034451963E+03 -0.24499428805E+02  0.15997321109E+03  0.37937331693E+03  0.92762932658E+02 0.  0.
        254    2    1    2    0    0 -0.33034451963E+03  0.24499428805E+02 -0.12514120205E+03  0.96047957430E+03  0.89282303315E+03 0.  0.
        -24    2    4    4    0    0 -0.16500843877E+03 -0.42049350740E+03 -0.13684755624E+03  0.47893982033E+03  0.81323571136E+02 0.  0.
         24    2    4    4    0    0 -0.16533608086E+03  0.44499293621E+03  0.11706354194E+02  0.48153975396E+03  0.79929737956E+02 0.  0.
         11    1    3    3    0    0  0.30738456520E+03 -0.15033372351E+02  0.17114771886E+03  0.35214033406E+03  0.00000000000E+00 0. -1.
        -11    1    3    3    0    0  0.22959954431E+02 -0.94660564544E+01 -0.11174507764E+02  0.27232982871E+02  0.00000000000E+00 0.  1.
          4    1    6    6  502    0 -0.55521434382E+02  0.20195447142E+03 -0.30057242644E+02  0.21159318524E+03  0.00000000000E+00 0. -1.
          1    1    5    5  503    0 -0.22030857415E+02 -0.21027851968E+02  0.64145024347E+01  0.31123545401E+02  0.00000000000E+00 0. -1.
         -2    1    5    5    0  503 -0.14297758136E+03 -0.39946565543E+03 -0.14326205867E+03  0.44781627493E+03  0.00000000000E+00 0.  1.
         -3    1    6    6    0  502 -0.10981464648E+03  0.24303846478E+03  0.41763596839E+02  0.26994656872E+03  0.00000000000E+00 0.  1.
<mgrwt>
<rscale>  0 0.13394001E+04</rscale>
<asrwt>0</asrwt>
<pdfrwt beam="1">  1        1 0.10574499E+00 0.13394001E+04</pdfrwt>
<pdfrwt beam="2">  1       -1 0.10038622E+00 0.13394001E+04</pdfrwt>
<totfact> 0.25934566E+01</totfact>
</mgrwt>
</event>
<event>
12    1  0.1114484E-007  0.3884874E+04  0.7818608E-02  0.8028182E-01
         -2   -1    0    0    0  501 -0.00000000000E+00  0.00000000000E+00  0.11597374820E+04  0.11597374820E+04  0.00000000000E+00 0.  1.
          2   -1    0    0  501    0  0.00000000000E+00 -0.00000000000E+00 -0.32533757707E+04  0.32533757707E+04  0.00000000000E+00 0. -1.
         23    2    1    2    0    0 -0.11299483128E+04  0.80812399441E+03 -0.23689152112E+04  0.27476290718E+04  0.88649075255E+02 0.  0.
        254    2    1    2    0    0  0.11299483128E+04 -0.80812399441E+03  0.27527692249E+03  0.16654841809E+04  0.87647737714E+03 0.  0.
        -24    2    4    4    0    0  0.46688150236E+03 -0.40531818056E+03  0.55747208163E+03  0.83632177931E+03  0.79986448957E+02 0.  0.
         24    2    4    4    0    0  0.66306681046E+03 -0.40280581385E+03 -0.28219515913E+03  0.82916240154E+03  0.77240284109E+02 0.  0.
         11    1    3    3    0    0 -0.10490733920E+04  0.74320215121E+03 -0.21434692904E+04  0.24994729481E+04  0.00000000000E+00 0. -1.
        -11    1    3    3    0    0 -0.80874920784E+02  0.64921843199E+02 -0.22544592081E+03  0.24815612373E+03  0.00000000000E+00 0.  1.
          2    1    6    6  502    0  0.59948917968E+03 -0.38766498337E+03 -0.25107838650E+03  0.75677722749E+03  0.00000000000E+00 0. -1.
          1    1    5    5  503    0  0.25326897516E+03 -0.27170450567E+03  0.33589625785E+03  0.50079417750E+03  0.00000000000E+00 0. -1.
         -2    1    5    5    0  503  0.21361252720E+03 -0.13361367489E+03  0.22157582378E+03  0.33552760181E+03  0.00000000000E+00 0.  1.
         -1    1    6    6    0  502  0.63577630783E+02 -0.15140830483E+02 -0.31116772631E+02  0.72385174052E+02  0.00000000000E+00 0.  1.
<mgrwt>
<rscale>  0 0.38848742E+04</rscale>
<asrwt>0</asrwt>
<pdfrwt beam="1">  1        2 0.50051934E+00 0.38848742E+04</pdfrwt>
<pdfrwt beam="2">  1       -2 0.17842115E+00 0.38848742E+04</pdfrwt>
<totfact> 0.17691315E-01</totfact>
</mgrwt>
</event>
<event>
12    1  0.1114484E-007  0.1524488E+04  0.7818608E-02  0.8868330E-01
         -2   -1    0    0    0  501 -0.00000000000E+00  0.00000000000E+00  0.45730880324E+03  0.45730880324E+03  0.00000000000E+00 0. -1.
          2   -1    0    0  501    0  0.00000000000E+00 -0.00000000000E+00 -0.12705115225E+04  0.12705115225E+04  0.00000000000E+00 0.  1.
         23    2    1    2    0    0  0.13612743655E+03 -0.34140774481E+03 -0.64804662125E+03  0.75069080544E+03  0.92099592068E+02 0.  0.
        254    2    1    2    0    0 -0.13612743655E+03  0.34140774481E+03 -0.16515609798E+03  0.97712952026E+03  0.89017730563E+03 0.  0.
        -24    2    4    4    0    0  0.95497241643E+02 -0.24999039310E+03 -0.18853877782E+03  0.33684635237E+03  0.79395683491E+02 0.  0.
         24    2    4    4    0    0 -0.23162467819E+03  0.59139813791E+03  0.23382679844E+02  0.64028316789E+03  0.77550217889E+02 0.  0.
         11    1    3    3    0    0  0.51348808938E+02 -0.43669733223E+02 -0.14708418758E+03  0.16179463531E+03  0.00000000000E+00 0. -1.
        -11    1    3    3    0    0  0.84778627614E+02 -0.29773801159E+03 -0.50096243367E+03  0.58889617013E+03  0.00000000000E+00 0.  1.
          2    1    6    6  502    0 -0.77797309254E+02  0.27424518306E+03 -0.16506176059E+02  0.28554385934E+03  0.00000000000E+00 0. -1.
          1    1    5    5  503    0  0.16605531533E+01 -0.10926646193E+03 -0.62303072598E+02  0.12579185186E+03  0.00000000000E+00 0. -1.
         -2    1    5    5    0  503  0.93836688489E+02 -0.14072393117E+03 -0.12623570522E+03  0.21105450051E+03  0.00000000000E+00 0.  1.
         -1    1    6    6    0  502 -0.15382736894E+03  0.31715295485E+03  0.39888855903E+02  0.35473930855E+03  0.00000000000E+00 0.  1.
<mgrwt>
<rscale>  0 0.15244882E+04</rscale>
<asrwt>0</asrwt>
<pdfrwt beam="1">  1        2 0.19546331E+00 0.15244882E+04</pdfrwt>
<pdfrwt beam="2">  1       -2 0.70355203E-01 0.15244882E+04</pdfrwt>
<totfact> 0.30501499E+01</totfact>
</mgrwt>
</event>
<event>
12    1  0.1114484E-007  0.2096183E+04  0.7818608E-02  0.8562927E-01
         -1   -1    0    0    0  501 -0.00000000000E+00  0.00000000000E+00  0.35041572110E+03  0.35041572110E+03  0.00000000000E+00 0.  1.
          1   -1    0    0  501    0  0.00000000000E+00 -0.00000000000E+00 -0.31348345579E+04  0.31348345579E+04  0.00000000000E+00 0. -1.
         23    2    1    2    0    0 -0.84134563317E+03  0.11625212360E+03 -0.10841151253E+04  0.13802996135E+04  0.92435856206E+02 0.  0.
        254    2    1    2    0    0  0.84134563317E+03 -0.11625212360E+03 -0.17003037114E+04  0.21049506654E+04  0.90465880971E+03 0.  0.
        -24    2    4    4    0    0 -0.10793146569E+03  0.19069210305E+03 -0.23925131189E+03  0.33400965682E+03  0.79426577106E+02 0.  0.
         24    2    4    4    0    0  0.94927709886E+03 -0.30694422665E+03 -0.14610523996E+04  0.17709410086E+04  0.78842710592E+02 0.  0.
         13    1    3    3    0    0 -0.13556884965E+03  0.45175739922E+02 -0.14726533170E+03  0.20519950875E+03  0.00000000000E+00 0. -1.
        -13    1    3    3    0    0 -0.70577678352E+03  0.71076383677E+02 -0.93684979361E+03  0.11751001048E+04  0.00000000000E+00 0.  1.
          2    1    6    6  502    0  0.71462140624E+02 -0.29113812322E+02 -0.80406516334E+02  0.11144352596E+03  0.00000000000E+00 0. -1.
          3    1    5    5  503    0 -0.19011193554E+01 -0.15216629201E+01  0.50286784099E+01  0.55872461371E+01  0.00000000000E+00 0. -1.
         -4    1    5    5    0  503 -0.10603034633E+03  0.19221376597E+03 -0.24427999030E+03  0.32842241068E+03  0.00000000000E+00 0.  1.
         -1    1    6    6    0  502  0.87781495824E+03 -0.27783041433E+03 -0.13806458832E+04  0.16594974826E+04  0.00000000000E+00 0.  1.
<mgrwt>
<rscale>  0 0.20961825E+04</rscale>
<asrwt>0</asrwt>
<pdfrwt beam="1">  1        1 0.48228222E+00 0.20961825E+04</pdfrwt>
<pdfrwt beam="2">  1       -1 0.53910113E-01 0.20961825E+04</pdfrwt>
<totfact> 0.15222965E+00</totfact>
</mgrwt>
</event>
<event>
12    1  0.1114484E-007  0.1313852E+04  0.7818608E-02  0.9018652E-01
          2   -1    0    0  501    0  0.00000000000E+00  0.00000000000E+00  0.41213771839E+03  0.41213771839E+03  0.00000000000E+00 0. -1.
         -2   -1    0    0    0  501 -0.00000000000E+00 -0.00000000000E+00 -0.10471061823E+04  0.10471061823E+04  0.00000000000E+00 0.  1.
         23    2    1    2    0    0  0.46835556931E+02  0.55558576036E+02  0.19810630584E+03  0.22991343806E+03  0.91289406950E+02 0.  0.
        254    2    1    2    0    0 -0.46835556931E+02 -0.55558576036E+02 -0.83307476976E+03  0.12293304626E+04  0.90108794776E+03 0.  0.
        -24    2    4    4    0    0 -0.36429157745E+03  0.78567822964E+01 -0.48050913221E+02  0.37640880149E+03  0.81268771054E+02 0.  0.
         24    2    4    4    0    0  0.31745602052E+03 -0.63415358332E+02 -0.78502385654E+03  0.85292166115E+03  0.80081658838E+02 0.  0.
         11    1    3    3    0    0  0.21359116214E+02  0.78976571491E+02  0.13200964288E+03  0.15530633118E+03  0.00000000000E+00 0. -1.
        -11    1    3    3    0    0  0.25476440717E+02 -0.23417995455E+02  0.66096662957E+02  0.74607106878E+02  0.00000000000E+00 0.  1.
          4    1    6    6  502    0  0.26769856252E+02 -0.30497877562E+02 -0.10928386078E+03  0.11657490281E+03  0.00000000000E+00 0. -1.
          3    1    5    5  503    0 -0.59002852110E+02 -0.27667956880E+02 -0.17919312637E+02  0.67586641879E+02  0.00000000000E+00 0. -1.
         -4    1    5    5    0  503 -0.30528872534E+03  0.35524739177E+02 -0.30131600584E+02  0.30882215961E+03  0.00000000000E+00 0.  1.
         -3    1    6    6    0  502  0.29068616427E+03 -0.32917480771E+02 -0.67573999576E+03  0.73634675833E+03  0.00000000000E+00 0.  1.
<mgrwt>
<rscale>  0 0.13138523E+04</rscale>
<asrwt>0</asrwt>
<pdfrwt beam="1">  1        2 0.63405804E-01 0.13138523E+04</pdfrwt>
<pdfrwt beam="2">  1       -2 0.16109326E+00 0.13138523E+04</pdfrwt>
<totfact> 0.18591512E+01</totfact>
</mgrwt>
</event>
<event>
12    1  0.1114484E-007  0.1083163E+04  0.7818608E-02  0.9221759E-01
         -1   -1    0    0    0  501 -0.00000000000E+00  0.00000000000E+00  0.30684382076E+03  0.30684382076E+03  0.00000000000E+00 0.  1.
          1   -1    0    0  501    0  0.00000000000E+00 -0.00000000000E+00 -0.95589603374E+03  0.95589603374E+03  0.00000000000E+00 0. -1.
         23    2    1    2    0    0 -0.23938311582E+02 -0.14082644506E+03 -0.14095984389E+03  0.22006035412E+03  0.90287050433E+02 0.  0.
        254    2    1    2    0    0  0.23938311582E+02  0.14082644506E+03 -0.50809236909E+03  0.10426795004E+04  0.89923164680E+03 0.  0.
        -24    2    4    4    0    0 -0.12020101523E+03 -0.35129022852E+03 -0.13806154681E+03  0.40521833013E+03  0.85368587013E+02 0.  0.
         24    2    4    4    0    0  0.14413932681E+03  0.49211667358E+03 -0.37003082228E+03  0.63746117026E+03  0.80492038100E+02 0.  0.
         11    1    3    3    0    0 -0.32649082378E+02 -0.42319709172E+02 -0.99261195031E+02  0.11273732835E+03  0.00000000000E+00 0. -1.
        -11    1    3    3    0    0  0.87107707962E+01 -0.98506735892E+02 -0.41698648856E+02  0.10732302577E+03  0.00000000000E+00 0.  1.
          2    1    6    6  502    0 -0.50578835095E+01  0.25640386863E+00 -0.31398361149E+01  0.59587330338E+01  0.00000000000E+00 0. -1.
          3    1    5    5  503    0  0.24045495206E+01 -0.51316728466E+02 -0.44377367672E+02  0.67886222758E+02  0.00000000000E+00 0. -1.
         -4    1    5    5    0  503 -0.12260556475E+03 -0.29997350005E+03 -0.93684179140E+02  0.33733210737E+03  0.00000000000E+00 0.  1.
         -1    1    6    6    0  502  0.14919721032E+03  0.49186026971E+03 -0.36689098617E+03  0.63150243723E+03  0.00000000000E+00 0.  1.
<mgrwt>
<rscale>  0 0.10831635E+04</rscale>
<asrwt>0</asrwt>
<pdfrwt beam="1">  1        1 0.14706093E+00 0.10831635E+04</pdfrwt>
<pdfrwt beam="2">  1       -1 0.47206742E-01 0.10831635E+04</pdfrwt>
<totfact> 0.73177522E+01</totfact>
</mgrwt>
</event>
<event>
12    1  0.1114484E-007  0.1967336E+04  0.7818608E-02  0.8622046E-01
         -2   -1    0    0    0  501 -0.00000000000E+00  0.00000000000E+00  0.36093233468E+03  0.36093233468E+03  0.00000000000E+00 0. -1.
          2   -1    0    0  501    0  0.00000000000E+00 -0.00000000000E+00 -0.26808423085E+04  0.26808423085E+04  0.00000000000E+00 0.  1.
         23    2    1    2    0    0 -0.10165926247E+03  0.56122211550E+03 -0.17429562785E+04  0.18360278152E+04  0.88298814797E+02 0.  0.
        254    2    1    2    0    0  0.10165926247E+03 -0.56122211550E+03 -0.57695369532E+03  0.12057468280E+04  0.89198933748E+03 0.  0.
        -24    2    4    4    0    0  0.41468892113E+03 -0.56966398580E+03 -0.51558182133E+03  0.87665836220E+03  0.78875290873E+02 0.  0.
         24    2    4    4    0    0 -0.31302965866E+03  0.84418703010E+01 -0.61371873998E+02  0.32908846583E+03  0.80460419121E+02 0.  0.
         11    1    3    3    0    0 -0.90823678535E+02  0.44048765332E+03 -0.12521225044E+04  0.13304469472E+04  0.00000000000E+00 0.  1.
        -11    1    3    3    0    0 -0.10835583932E+02  0.12073446218E+03 -0.49083377415E+03  0.50558086800E+03  0.00000000000E+00 0. -1.
          2    1    6    6  502    0 -0.89791274385E+02 -0.20238091077E+02  0.10922751508E+02  0.92689588340E+02  0.00000000000E+00 0. -1.
          1    1    5    5  503    0  0.12454879674E+03 -0.13728489669E+03 -0.17156243128E+03  0.25257318436E+03  0.00000000000E+00 0. -1.
         -2    1    5    5    0  503  0.29014012439E+03 -0.43237908911E+03 -0.34401939005E+03  0.62408517785E+03  0.00000000000E+00 0.  1.
         -1    1    6    6    0  502 -0.22323838428E+03  0.28679961378E+02 -0.72294625507E+02  0.23639887749E+03  0.00000000000E+00 0.  1.
<mgrwt>
<rscale>  0 0.19673359E+04</rscale>
<asrwt>0</asrwt>
<pdfrwt beam="1">  1        2 0.41243729E+00 0.19673359E+04</pdfrwt>
<pdfrwt beam="2">  1       -2 0.55528050E-01 0.19673359E+04</pdfrwt>
<totfact> 0.77488006E+00</totfact>
</mgrwt>
</event>
<event>
12    1  0.1114484E-007  0.1675889E+04  0.7818608E-02  0.8775236E-01
          2   -1    0    0  501    0  0.00000000000E+00  0.00000000000E+00  0.17261879235E+04  0.17261879235E+04  0.00000000000E+00 0. -1.
         -2   -1    0    0    0  501 -0.00000000000E+00 -0.00000000000E+00 -0.40676413261E+03  0.40676413261E+03  0.00000000000E+00 0.  1.
         23    2    1    2    0    0  0.15952664060E+03  0.46106537155E+03  0.57695491078E+02  0.49787524429E+03  0.80752481593E+02 0.  0.
        254    2    1    2    0    0 -0.15952664060E+03 -0.46106537155E+03  0.12617282998E+04  0.16350768118E+04  0.91841594720E+03 0.  0.
        -24    2    4    4    0    0 -0.12212781500E+03 -0.79428345603E+02  0.12311625451E+04  0.12423262710E+04  0.79933008430E+02 0.  0.
         24    2    4    4    0    0 -0.37398825604E+02 -0.38163702595E+03  0.30565754710E+02  0.39275054083E+03  0.79203726117E+02 0.  0.
         13    1    3    3    0    0 -0.87737451504E+01  0.41485739857E+02  0.67752330915E+01  0.42941227263E+02  0.00000000000E+00 0. -1.
        -13    1    3    3    0    0  0.16830038575E+03  0.41957963169E+03  0.50920257986E+02  0.45493401703E+03  0.00000000000E+00 0.  1.
          4    1    6    6  502    0 -0.49632429762E+02 -0.37367991937E+03  0.29763044637E+02  0.37813476308E+03  0.00000000000E+00 0. -1.
          1    1    5    5  503    0 -0.44357810588E+02 -0.60100058460E+01  0.64026518163E+03  0.64182804421E+03  0.00000000000E+00 0. -1.
         -2    1    5    5    0  503 -0.77770004408E+02 -0.73418339757E+02  0.59089736346E+03  0.60049822676E+03  0.00000000000E+00 0.  1.
         -3    1    6    6    0  502  0.12233604157E+02 -0.79571065787E+01  0.80271007328E+00  0.14615777750E+02  0.00000000000E+00 0.  1.
<mgrwt>
<rscale>  0 0.16758894E+04</rscale>
<asrwt>0</asrwt>
<pdfrwt beam="1">  1        2 0.26556737E+00 0.16758894E+04</pdfrwt>
<pdfrwt beam="2">  1       -2 0.62579098E-01 0.16758894E+04</pdfrwt>
<totfact> 0.21408508E+01</totfact>
</mgrwt>
</event>
<event>
12    1  0.1114484E-007  0.1364828E+04  0.7818608E-02  0.8979679E-01
          2   -1    0    0  501    0  0.00000000000E+00  0.00000000000E+00  0.91796046587E+03  0.91796046587E+03  0.00000000000E+00 0. -1.
         -2   -1    0    0    0  501 -0.00000000000E+00 -0.00000000000E+00 -0.50730820638E+03  0.50730820638E+03  0.00000000000E+00 0.  1.
         23    2    1    2    0    0 -0.29019078717E+03  0.23450599772E+02 -0.13876395770E+03  0.33478676250E+03  0.89811562734E+02 0.  0.
        254    2    1    2    0    0  0.29019078717E+03 -0.23450599772E+02  0.54941621719E+03  0.10904819098E+04  0.89584149948E+03 0.  0.
        -24    2    4    4    0    0 -0.22077418155E+02 -0.38735887816E+03  0.60774330786E+02  0.40081885485E+03  0.80174324088E+02 0.  0.
         24    2    4    4    0    0  0.31226820533E+03  0.36390827838E+03  0.48864188641E+03  0.68966305490E+03  0.83207986455E+02 0.  0.
         13    1    3    3    0    0 -0.75493525074E+02 -0.14817606018E+02 -0.11998844680E+01  0.76943313542E+02  0.00000000000E+00 0. -1.
        -13    1    3    3    0    0 -0.21469726210E+03  0.38268205790E+02 -0.13756407324E+03  0.25784344896E+03  0.00000000000E+00 0.  1.
          2    1    6    6  502    0  0.27239885375E+03  0.28406525250E+03  0.42977578919E+03  0.58275332017E+03  0.00000000000E+00 0. -1.
          3    1    5    5  503    0 -0.35477845359E+02 -0.80412813649E+02  0.14382537462E+01  0.87903166520E+02  0.00000000000E+00 0. -1.
         -4    1    5    5    0  503  0.13400427204E+02 -0.30694606451E+03  0.59336077040E+02  0.31291568833E+03  0.00000000000E+00 0.  1.
         -1    1    6    6    0  502  0.39869351581E+02  0.79843025887E+02  0.58866097220E+02  0.10690973473E+03  0.00000000000E+00 0.  1.
<mgrwt>
<rscale>  0 0.13648280E+04</rscale>
<asrwt>0</asrwt>
<pdfrwt beam="1">  1        2 0.14122469E+00 0.13648280E+04</pdfrwt>
<pdfrwt beam="2">  1       -2 0.78047417E-01 0.13648280E+04</pdfrwt>
<totfact> 0.40667889E+01</totfact>
</mgrwt>
</event>
<event>
12    1  0.1114484E-007  0.1791178E+04  0.7818608E-02  0.8711005E-01
         -2   -1    0    0    0  501 -0.00000000000E+00  0.00000000000E+00  0.71177500319E+03  0.71177500319E+03  0.00000000000E+00 0.  1.
          2   -1    0    0  501    0  0.00000000000E+00 -0.00000000000E+00 -0.11268727584E+04  0.11268727584E+04  0.00000000000E+00 0. -1.
         23    2    1    2    0    0  0.19384003460E+03 -0.49832389099E+03  0.24790262019E+03  0.59586154063E+03  0.87718909981E+02 0.  0.
        254    2    1    2    0    0 -0.19384003460E+03  0.49832389099E+03 -0.66300037541E+03  0.12427862210E+04  0.90501239434E+03 0.  0.
        -24    2    4    4    0    0  0.12551547281E+03  0.64246125208E+03 -0.57073823503E+03  0.87203697641E+03  0.78713156196E+02 0.  0.
         24    2    4    4    0    0 -0.31935550741E+03 -0.14413736109E+03 -0.92262140384E+02  0.37074924457E+03  0.78607765672E+02 0.  0.
         13    1    3    3    0    0  0.11515933990E+03 -0.36522106571E+03  0.14188282479E+03  0.40838564663E+03  0.00000000000E+00 0.  1.
        -13    1    3    3    0    0  0.78680694699E+02 -0.13310282527E+03  0.10601979540E+03  0.18747589400E+03  0.00000000000E+00 0. -1.
          4    1    6    6  502    0 -0.26866522377E+03 -0.93088969678E+02 -0.54540616242E+02  0.28951897616E+03  0.00000000000E+00 0. -1.
          1    1    5    5  503    0  0.77086011461E+02  0.54548661696E+03 -0.47947953011E+03  0.73034137377E+03  0.00000000000E+00 0. -1.
         -2    1    5    5    0  503  0.48429461351E+02  0.96974635123E+02 -0.91258704915E+02  0.14169560264E+03  0.00000000000E+00 0.  1.
         -3    1    6    6    0  502 -0.50690283644E+02 -0.51048391417E+02 -0.37721524142E+02  0.81230268408E+02  0.00000000000E+00 0.  1.
<mgrwt>
<rscale>  0 0.17911782E+04</rscale>
<asrwt>0</asrwt>
<pdfrwt beam="1">  1        2 0.17336504E+00 0.17911782E+04</pdfrwt>
<pdfrwt beam="2">  1       -2 0.10950385E+00 0.17911782E+04</pdfrwt>
<totfact> 0.13163368E+01</totfact>
</mgrwt>
</event>
<event>
12    1  0.1114484E-007  0.3844780E+04  0.7818608E-02  0.8036613E-01
         -2   -1    0    0    0  501 -0.00000000000E+00  0.00000000000E+00  0.12113488622E+04  0.12113488622E+04  0.00000000000E+00 0. -1.
          2   -1    0    0  501    0  0.00000000000E+00 -0.00000000000E+00 -0.30508000972E+04  0.30508000972E+04  0.00000000000E+00 0.  1.
         23    2    1    2    0    0 -0.30028959860E+03 -0.89561927567E+03  0.85037706224E+03  0.12742199785E+04  0.90485776297E+02 0.  0.
        254    2    1    2    0    0  0.30028959860E+03  0.89561927567E+03 -0.26898282972E+04  0.29879289809E+04  0.89455888385E+03 0.  0.
        -24    2    4    4    0    0  0.81289024338E+01  0.45712931313E+03 -0.22474678399E+04  0.22948587366E+04  0.78940748869E+02 0.  0.
         24    2    4    4    0    0  0.29216069616E+03  0.43848996253E+03 -0.44236045732E+03  0.69307024429E+03  0.83858629245E+02 0.  0.
         11    1    3    3    0    0 -0.24275744657E+03 -0.80940588256E+03  0.76678829707E+03  0.11410667610E+04  0.00000000000E+00 0. -1.
        -11    1    3    3    0    0 -0.57532152029E+02 -0.86213393103E+02  0.83588765170E+02  0.13315321750E+03  0.00000000000E+00 0.  1.
          4    1    6    6  502    0 -0.15706654760E+01  0.28516704938E+02 -0.16494605512E+02  0.32980925724E+02  0.00000000000E+00 0. -1.
          3    1    5    5  503    0 -0.20840528989E+02  0.12118269761E+03 -0.47893264511E+03  0.49446542083E+03  0.00000000000E+00 0. -1.
         -4    1    5    5    0  503  0.28969431422E+02  0.33594661552E+03 -0.17685351948E+04  0.18003933158E+04  0.00000000000E+00 0.  1.
         -3    1    6    6    0  502  0.29373136164E+03  0.40997325759E+03 -0.42586585180E+03  0.66008931857E+03  0.00000000000E+00 0.  1.
<mgrwt>
<rscale>  0 0.38447800E+04</rscale>
<asrwt>0</asrwt>
<pdfrwt beam="1">  1        2 0.46935386E+00 0.38447800E+04</pdfrwt>
<pdfrwt beam="2">  1       -2 0.18636136E+00 0.38447800E+04</pdfrwt>
<totfact> 0.21177374E-01</totfact>
</mgrwt>
</event>
<event>
12    1  0.1114484E-007  0.1092874E+04  0.7818608E-02  0.9212165E-01
          2   -1    0    0  501    0  0.00000000000E+00  0.00000000000E+00  0.41194819353E+03  0.41194819353E+03  0.00000000000E+00 0. -1.
         -2   -1    0    0    0  501 -0.00000000000E+00 -0.00000000000E+00 -0.72483284452E+03  0.72483284452E+03  0.00000000000E+00 0.  1.
         23    2    1    2    0    0  0.11375668433E+03 -0.43582791126E+02 -0.15332534039E+03  0.21619385725E+03  0.91602843811E+02 0.  0.
        254    2    1    2    0    0 -0.11375668433E+03  0.43582791126E+02 -0.15955931060E+03  0.92058718081E+03  0.89843282496E+03 0.  0.
        -24    2    4    4    0    0 -0.13098824012E+03 -0.11222555259E+03  0.34073930094E+03  0.39022222282E+03  0.80110038543E+02 0.  0.
         24    2    4    4    0    0  0.17231555785E+02  0.15580834372E+03 -0.50029861154E+03  0.53036495799E+03  0.80094453386E+02 0.  0.
         13    1    3    3    0    0  0.93182075567E+02 -0.24902360672E+02 -0.48911392724E+02  0.10814504664E+03  0.00000000000E+00 0. -1.
        -13    1    3    3    0    0  0.20574608764E+02 -0.18680430454E+02 -0.10441394766E+03  0.10804881061E+03  0.00000000000E+00 0.  1.
          2    1    6    6  502    0  0.17119026740E+02  0.13082766574E+03 -0.48108311637E+03  0.49884857828E+03  0.00000000000E+00 0. -1.
          1    1    5    5  503    0 -0.14150387569E+03 -0.10523055710E+03  0.32728316507E+03  0.37176751757E+03  0.00000000000E+00 0. -1.
         -4    1    5    5    0  503  0.10515635571E+02 -0.69949954893E+01  0.13456135873E+02  0.18454705253E+02  0.00000000000E+00 0.  1.
         -1    1    6    6    0  502  0.11252904494E+00  0.24980677976E+02 -0.19215495174E+02  0.31516379705E+02  0.00000000000E+00 0.  1.
<mgrwt>
<rscale>  0 0.10928743E+04</rscale>
<asrwt>0</asrwt>
<pdfrwt beam="1">  1        2 0.63376646E-01 0.10928743E+04</pdfrwt>
<pdfrwt beam="2">  1       -2 0.11151274E+00 0.10928743E+04</pdfrwt>
<totfact> 0.48552571E+01</totfact>
</mgrwt>
</event>
<event>
12    1  0.1114484E-007  0.1363896E+04  0.7818608E-02  0.8980375E-01
          3   -1    0    0  501    0  0.00000000000E+00  0.00000000000E+00  0.93297729674E+03  0.93297729674E+03  0.00000000000E+00 0. -1.
         -3   -1    0    0    0  501 -0.00000000000E+00 -0.00000000000E+00 -0.49846133705E+03  0.49846133705E+03  0.00000000000E+00 0.  1.
         23    2    1    2    0    0 -0.10478417108E+03 -0.20781227714E+02 -0.25961879850E+03  0.29514344377E+03  0.91083203357E+02 0.  0.
        254    2    1    2    0    0  0.10478417108E+03  0.20781227714E+02  0.69413475819E+03  0.11362951900E+04  0.89327045983E+03 0.  0.
        -24    2    4    4    0    0  0.32285399491E+03  0.29501721111E+03  0.12283006330E+03  0.46119405141E+03  0.79642147954E+02 0.  0.
         24    2    4    4    0    0 -0.21806982383E+03 -0.27423598339E+03  0.57130469489E+03  0.67510113861E+03  0.81318326905E+02 0.  0.
         11    1    3    3    0    0 -0.99105477776E+02  0.12348653777E+02 -0.22835031254E+03  0.24923533099E+03  0.00000000000E+00 0.  1.
        -11    1    3    3    0    0 -0.56786933009E+01 -0.33129881492E+02 -0.31268485960E+02  0.45908112785E+02  0.00000000000E+00 0. -1.
          4    1    6    6  502    0 -0.93419389595E+02 -0.68808188450E+02  0.14462297737E+03  0.18541185165E+03  0.00000000000E+00 0. -1.
          1    1    5    5  503    0  0.99138628201E+02  0.53954745134E+02  0.92134054815E+01  0.11324517193E+03  0.00000000000E+00 0. -1.
         -2    1    5    5    0  503  0.22371536670E+03  0.24106246597E+03  0.11361665782E+03  0.34794887948E+03  0.00000000000E+00 0.  1.
         -3    1    6    6    0  502 -0.12465043423E+03 -0.20542779494E+03  0.42668171753E+03  0.48968928696E+03  0.00000000000E+00 0.  1.
<mgrwt>
<rscale>  0 0.13638961E+04</rscale>
<asrwt>0</asrwt>
<pdfrwt beam="1">  1        3 0.14353497E+00 0.13638961E+04</pdfrwt>
<pdfrwt beam="2">  1       -3 0.76686360E-01 0.13638961E+04</pdfrwt>
<totfact> 0.14803642E+00</totfact>
</mgrwt>
</event>
<event>
12    1  0.1114484E-007  0.2907406E+04  0.7818608E-02  0.8270677E-01
          1   -1    0    0  501    0  0.00000000000E+00  0.00000000000E+00  0.31905824403E+04  0.31905824403E+04  0.00000000000E+00 0. -1.
         -1   -1    0    0    0  501 -0.00000000000E+00 -0.00000000000E+00 -0.66234072047E+03  0.66234072047E+03  0.00000000000E+00 0.  1.
         23    2    1    2    0    0 -0.88240187707E+03  0.96871034430E+03  0.10419497794E+04  0.16765652046E+04  0.90436379140E+02 0.  0.
        254    2    1    2    0    0  0.88240187707E+03 -0.96871034430E+03  0.14862919404E+04  0.21763579561E+04  0.90024297686E+03 0.  0.
        -24    2    4    4    0    0  0.28702736922E+03  0.47427184458E+02  0.32654841177E+02  0.30374615541E+03  0.81002097307E+02 0.  0.
         24    2    4    4    0    0  0.59537450786E+03 -0.10161375288E+04  0.14536370992E+04  0.18726118007E+04  0.81288732864E+02 0.  0.
         11    1    3    3    0    0 -0.44676419709E+03  0.55512478642E+03  0.55058420589E+03  0.90050249533E+03  0.00000000000E+00 0.  1.
        -11    1    3    3    0    0 -0.43563767998E+03  0.41358555787E+03  0.49136557352E+03  0.77606270928E+03  0.00000000000E+00 0. -1.
          4    1    6    6  502    0  0.55281486306E+03 -0.91102211454E+03  0.13400583777E+04  0.17121104000E+04  0.00000000000E+00 0. -1.
          3    1    5    5  503    0  0.27552223160E+03  0.40149681450E+02  0.11600272190E+02  0.27867375790E+03  0.00000000000E+00 0. -1.
         -4    1    5    5    0  503  0.11505137614E+02  0.72775030077E+01  0.21054568987E+02  0.25072397507E+02  0.00000000000E+00 0.  1.
         -3    1    6    6    0  502  0.42559644798E+02 -0.10511541421E+03  0.11357872152E+03  0.16050140078E+03  0.00000000000E+00 0.  1.
<mgrwt>
<rscale>  0 0.29074062E+04</rscale>
<asrwt>0</asrwt>
<pdfrwt beam="1">  1        1 0.49085883E+00 0.29074062E+04</pdfrwt>
<pdfrwt beam="2">  1       -1 0.10189857E+00 0.29074062E+04</pdfrwt>
<totfact> 0.33803306E-01</totfact>
</mgrwt>
</event>
<event>
12    1  0.1114484E-007  0.2040749E+04  0.7818608E-02  0.8587802E-01
          1   -1    0    0  501    0  0.00000000000E+00  0.00000000000E+00  0.50807438346E+03  0.50807438346E+03  0.00000000000E+00 0. -1.
         -1   -1    0    0    0  501 -0.00000000000E+00 -0.00000000000E+00 -0.20492365056E+04  0.20492365056E+04  0.00000000000E+00 0.  1.
         23    2    1    2    0    0  0.21224336511E+03  0.17785463120E+03  0.34326324249E+03  0.45037502800E+03  0.91260595725E+02 0.  0.
        254    2    1    2    0    0 -0.21224336511E+03 -0.17785463120E+03 -0.18844253647E+04  0.21069358611E+04  0.90079978458E+03 0.  0.
        -24    2    4    4    0    0 -0.48845954833E+03 -0.30837915329E+02 -0.58108112278E+03  0.76420939034E+03  0.82565208528E+02 0.  0.
         24    2    4    4    0    0  0.27621618322E+03 -0.14701671587E+03 -0.13033442419E+04  0.13427264707E+04  0.79365406738E+02 0.  0.
         13    1    3    3    0    0  0.21334048598E+03  0.18091501384E+03  0.34681400413E+03  0.44556072386E+03  0.00000000000E+00 0. -1.
        -13    1    3    3    0    0 -0.10971208727E+01 -0.30603826367E+01 -0.35507616413E+01  0.48143041372E+01  0.00000000000E+00 0.  1.
          4    1    6    6  502    0  0.11758348435E+03 -0.75087462508E+02 -0.74121646410E+03  0.75423195999E+03  0.00000000000E+00 0. -1.
          3    1    5    5  503    0 -0.11330768325E+03 -0.84464011448E+00 -0.85630677593E+02  0.14202801641E+03  0.00000000000E+00 0. -1.
         -4    1    5    5    0  503 -0.37515186508E+03 -0.29993275214E+02 -0.49545044518E+03  0.62218137393E+03  0.00000000000E+00 0.  1.
         -3    1    6    6    0  502  0.15863269887E+03 -0.71929253365E+02 -0.56212777778E+03  0.58849451076E+03  0.00000000000E+00 0.  1.
<mgrwt>
<rscale>  0 0.20407494E+04</rscale>
<asrwt>0</asrwt>
<pdfrwt beam="1">  1        1 0.78165289E-01 0.20407494E+04</pdfrwt>
<pdfrwt beam="2">  1       -1 0.31526716E+00 0.20407494E+04</pdfrwt>
<totfact> 0.10539169E+00</totfact>
</mgrwt>
</event>
<event>
12    1  0.1114484E-007  0.1408366E+04  0.7818608E-02  0.8947785E-01
          1   -1    0    0  501    0  0.00000000000E+00  0.00000000000E+00  0.12730795038E+04  0.12730795038E+04  0.00000000000E+00 0. -1.
         -1   -1    0    0    0  501 -0.00000000000E+00 -0.00000000000E+00 -0.38950707811E+03  0.38950707811E+03  0.00000000000E+00 0.  1.
         23    2    1    2    0    0  0.69571722035E+02  0.16231420809E+03  0.69632922514E+03  0.72500278505E+03  0.97818821713E+02 0.  0.
        254    2    1    2    0    0 -0.69571722035E+02 -0.16231420809E+03  0.18724320050E+03  0.93758379681E+03  0.90156377104E+03 0.  0.
        -24    2    4    4    0    0 -0.46426897253E+03 -0.10543625442E+03  0.21855366633E+03  0.52974155168E+03  0.78726894429E+02 0.  0.
         24    2    4    4    0    0  0.39469725050E+03 -0.56877953672E+02 -0.31310465832E+02  0.40784224513E+03  0.79585994244E+02 0.  0.
         11    1    3    3    0    0  0.45141242567E+02  0.16883360978E+03  0.63634147584E+03  0.65990377590E+03  0.00000000000E+00 0. -1.
        -11    1    3    3    0    0  0.24430479468E+02 -0.65194016910E+01  0.59987749307E+02  0.65099009150E+02  0.00000000000E+00 0.  1.
          2    1    6    6  502    0  0.18275707701E+02 -0.22003506044E+02 -0.19122064319E+01  0.28667268856E+02  0.00000000000E+00 0. -1.
          1    1    5    5  503    0 -0.19257249416E+02 -0.17526417419E+02  0.26488501563E+02  0.37143743453E+02  0.00000000000E+00 0. -1.
         -2    1    5    5    0  503 -0.44501172312E+03 -0.87909836999E+02  0.19206516477E+03  0.49259780823E+03  0.00000000000E+00 0.  1.
         -3    1    6    6    0  502  0.37642154280E+03 -0.34874447628E+02 -0.29398259400E+02  0.37917497628E+03  0.00000000000E+00 0.  1.
<mgrwt>
<rscale>  0 0.14083657E+04</rscale>
<asrwt>0</asrwt>
<pdfrwt beam="1">  1        1 0.19585838E+00 0.14083657E+04</pdfrwt>
<pdfrwt beam="2">  1       -1 0.59924166E-01 0.14083657E+04</pdfrwt>
<totfact> 0.26018785E+01</totfact>
</mgrwt>
</event>
<event>
12    1  0.1114484E-007  0.2057869E+04  0.7818608E-02  0.8580033E-01
          1   -1    0    0  501    0  0.00000000000E+00  0.00000000000E+00  0.87116683510E+03  0.87116683510E+03  0.00000000000E+00 0. -1.
         -1   -1    0    0    0  501 -0.00000000000E+00 -0.00000000000E+00 -0.12152740267E+04  0.12152740267E+04  0.00000000000E+00 0.  1.
         23    2    1    2    0    0  0.54407990662E+02  0.56949356579E+03 -0.74958387532E+03  0.94772788137E+03  0.95021050671E+02 0.  0.
        254    2    1    2    0    0 -0.54407990662E+02 -0.56949356579E+03  0.40547668375E+03  0.11387129804E+04  0.89720274171E+03 0.  0.
        -24    2    4    4    0    0  0.11240625671E+03 -0.15517867416E+01 -0.22919781703E+03  0.26721425526E+03  0.78957230785E+02 0.  0.
         24    2    4    4    0    0 -0.16681424737E+03 -0.56794177904E+03  0.63467450078E+03  0.87149872513E+03  0.79457211541E+02 0.  0.
         11    1    3    3    0    0  0.44987743246E+02  0.53071166452E+03 -0.64935572644E+03  0.83984619268E+03  0.00000000000E+00 0.  1.
        -11    1    3    3    0    0  0.94202474153E+01  0.38781901268E+02 -0.10022814888E+03  0.10788168869E+03  0.00000000000E+00 0. -1.
          4    1    6    6  502    0 -0.74694360999E+02 -0.17513433407E+03  0.24801381403E+03  0.31266936928E+03  0.00000000000E+00 0. -1.
          3    1    5    5  503    0  0.32913697677E+01  0.14205732241E+02 -0.82116171789E+02  0.83400848993E+02  0.00000000000E+00 0. -1.
         -4    1    5    5    0  503  0.10911488694E+03 -0.15757518983E+02 -0.14708164524E+03  0.18381340627E+03  0.00000000000E+00 0.  1.
         -3    1    6    6    0  502 -0.92119886370E+02 -0.39280744497E+03  0.38666068675E+03  0.55882935586E+03  0.00000000000E+00 0.  1.
<mgrwt>
<rscale>  0 0.20578692E+04</rscale>
<asrwt>0</asrwt>
<pdfrwt beam="1">  1        1 0.13402567E+00 0.20578692E+04</pdfrwt>
<pdfrwt beam="2">  1       -1 0.18696523E+00 0.20578692E+04</pdfrwt>
<totfact> 0.32936869E+00</totfact>
</mgrwt>
</event>
<event>
12    1  0.1114484E-007  0.3837807E+04  0.7818608E-02  0.8038090E-01
          2   -1    0    0  501    0  0.00000000000E+00  0.00000000000E+00  0.17710065072E+04  0.17710065072E+04  0.00000000000E+00 0.  1.
         -2   -1    0    0    0  501 -0.00000000000E+00 -0.00000000000E+00 -0.20791510816E+04  0.20791510816E+04  0.00000000000E+00 0. -1.
         23    2    1    2    0    0 -0.86432848350E+03 -0.15315537379E+03  0.14449320405E+04  0.16931612653E+04  0.91903060556E+02 0.  0.
        254    2    1    2    0    0  0.86432848350E+03  0.15315537379E+03 -0.17530766149E+04  0.21569963236E+04  0.89935267071E+03 0.  0.
        -24    2    4    4    0    0  0.40238182058E+02 -0.14340629393E+02  0.90747534833E+02  0.12871043611E+03  0.80662856003E+02 0.  0.
         24    2    4    4    0    0  0.82409030144E+03  0.16749600319E+03 -0.18438241498E+04  0.20282858875E+04  0.84121401209E+02 0.  0.
         13    1    3    3    0    0 -0.69040265597E+03 -0.10888417731E+03  0.10791158575E+04  0.12856914970E+04  0.00000000000E+00 0.  1.
        -13    1    3    3    0    0 -0.17392582753E+03 -0.44271196486E+02  0.36581618303E+03  0.40746976831E+03  0.00000000000E+00 0. -1.
          2    1    6    6  502    0  0.56313600262E+03  0.83479919296E+02 -0.13034844135E+04  0.14223792289E+04  0.00000000000E+00 0. -1.
          1    1    5    5  503    0  0.37712383681E+02  0.13612651738E+02  0.74093683739E+01  0.40772869779E+02  0.00000000000E+00 0. -1.
         -2    1    5    5    0  503  0.25257983762E+01 -0.27953281131E+02  0.83338166459E+02  0.87937566331E+02  0.00000000000E+00 0.  1.
         -1    1    6    6    0  502  0.26095429882E+03  0.84016083891E+02 -0.54033973625E+03  0.60590665865E+03  0.00000000000E+00 0.  1.
<mgrwt>
<rscale>  0 0.38378067E+04</rscale>
<asrwt>0</asrwt>
<pdfrwt beam="1">  1        2 0.27246254E+00 0.38378067E+04</pdfrwt>
<pdfrwt beam="2">  1       -2 0.31986940E+00 0.38378067E+04</pdfrwt>
<totfact> 0.17168694E-01</totfact>
</mgrwt>
</event>
<event>
12    1  0.1114484E-007  0.1444484E+04  0.7818608E-02  0.8922233E-01
         -2   -1    0    0    0  501 -0.00000000000E+00  0.00000000000E+00  0.25274278993E+03  0.25274278993E+03  0.00000000000E+00 0.  1.
          2   -1    0    0  501    0  0.00000000000E+00 -0.00000000000E+00 -0.20638914041E+04  0.20638914041E+04  0.00000000000E+00 0. -1.
         23    2    1    2    0    0 -0.10330337260E+03  0.32041665933E+03 -0.99405745872E+03  0.10534940064E+04  0.91438327998E+02 0.  0.
        254    2    1    2    0    0  0.10330337260E+03 -0.32041665933E+03 -0.81709115544E+03  0.12631401877E+04  0.90252244017E+03 0.  0.
        -24    2    4    4    0    0  0.58472057523E+02  0.40408978750E+02  0.17422409519E+03  0.20427740867E+03  0.79519540186E+02 0.  0.
         24    2    4    4    0    0  0.44831315074E+02 -0.36082563808E+03 -0.99131525063E+03  0.10588627790E+04  0.79243111241E+02 0.  0.
         11    1    3    3    0    0  0.16409455911E+02  0.60547362229E+02 -0.17653146457E+03  0.18734623374E+03  0.00000000000E+00 0.  1.
        -11    1    3    3    0    0 -0.11971282851E+03  0.25986929710E+03 -0.81752599416E+03  0.86614777262E+03  0.00000000000E+00 0. -1.
          2    1    6    6  502    0  0.63186437151E+02 -0.19616082948E+03 -0.52614630217E+03  0.56506771997E+03  0.00000000000E+00 0. -1.
          3    1    5    5  503    0  0.99897889639E+01  0.46528541118E+02  0.42584553453E+02  0.63860357147E+02  0.00000000000E+00 0. -1.
         -4    1    5    5    0  503  0.48482268560E+02 -0.61195623678E+01  0.13163954174E+03  0.14041705152E+03  0.00000000000E+00 0.  1.
         -1    1    6    6    0  502 -0.18355122077E+02 -0.16466480859E+03 -0.46516894846E+03  0.49379505902E+03  0.00000000000E+00 0.  1.
<mgrwt>
<rscale>  0 0.14444842E+04</rscale>
<asrwt>0</asrwt>
<pdfrwt beam="1">  1        2 0.31752174E+00 0.14444842E+04</pdfrwt>
<pdfrwt beam="2">  1       -2 0.38883507E-01 0.14444842E+04</pdfrwt>
<totfact> 0.37355366E+01</totfact>
</mgrwt>
</event>
<event>
12    1  0.1114484E-007  0.1258837E+04  0.7818608E-02  0.9062860E-01
          1   -1    0    0  501    0  0.00000000000E+00  0.00000000000E+00  0.60865403671E+03  0.60865403671E+03  0.00000000000E+00 0. -1.
         -1   -1    0    0    0  501 -0.00000000000E+00 -0.00000000000E+00 -0.65089098306E+03  0.65089098306E+03  0.00000000000E+00 0.  1.
         23    2    1    2    0    0  0.12905365689E+03  0.24574070849E+03 -0.11522709076E+03  0.31433183469E+03  0.92107967554E+02 0.  0.
        254    2    1    2    0    0 -0.12905365689E+03 -0.24574070849E+03  0.72990144405E+02  0.94521318508E+03  0.90058706515E+03 0.  0.
        -24    2    4    4    0    0  0.23609305629E+03 -0.42786424581E+03 -0.80061685386E+02  0.50128963217E+03  0.77933803843E+02 0.  0.
         24    2    4    4    0    0 -0.36514671318E+03  0.18212353732E+03  0.15305182979E+03  0.44392355291E+03  0.84511261024E+02 0.  0.
         13    1    3    3    0    0  0.78200889370E+01 -0.58167889864E+01  0.42078147065E+01  0.10615767975E+02  0.00000000000E+00 0. -1.
        -13    1    3    3    0    0  0.12123356795E+03  0.25155749748E+03 -0.11943490547E+03  0.30371606671E+03  0.00000000000E+00 0.  1.
          2    1    6    6  502    0 -0.36820149739E+03  0.18538137316E+03  0.15123278357E+03  0.43910129927E+03  0.00000000000E+00 0. -1.
          3    1    5    5  503    0  0.18234161675E+03 -0.25919350968E+03 -0.36670809859E+02  0.31902114186E+03  0.00000000000E+00 0. -1.
         -4    1    5    5    0  503  0.53751439540E+02 -0.16867073614E+03 -0.43390875527E+02  0.18226849031E+03  0.00000000000E+00 0.  1.
         -1    1    6    6    0  502  0.30547842172E+01 -0.32578358438E+01  0.18190462242E+01  0.48222536397E+01  0.00000000000E+00 0.  1.
<mgrwt>
<rscale>  0 0.12588366E+04</rscale>
<asrwt>0</asrwt>
<pdfrwt beam="1">  1        1 0.93639083E-01 0.12588366E+04</pdfrwt>
<pdfrwt beam="2">  1       -1 0.10013707E+00 0.12588366E+04</pdfrwt>
<totfact> 0.31426489E+01</totfact>
</mgrwt>
</event>
<event>
12    1  0.1114484E-007  0.1327665E+04  0.7818608E-02  0.9007909E-01
          1   -1    0    0  501    0  0.00000000000E+00  0.00000000000E+00  0.10024565414E+04  0.10024565414E+04  0.00000000000E+00 0. -1.
         -1   -1    0    0    0  501 -0.00000000000E+00 -0.00000000000E+00 -0.43959396451E+03  0.43959396451E+03  0.00000000000E+00 0.  1.
         23    2    1    2    0    0 -0.30334012668E+03 -0.39219387840E+02  0.34652947897E+03  0.47065196805E+03  0.88753605009E+02 0.  0.
        254    2    1    2    0    0  0.30334012668E+03  0.39219387840E+02  0.21633309792E+03  0.97139853785E+03  0.89624869163E+03 0.  0.
        -24    2    4    4    0    0 -0.85359083903E+01  0.40377645541E+03 -0.53880278694E+02  0.41475200774E+03  0.77510359396E+02 0.  0.
         24    2    4    4    0    0  0.31187603507E+03 -0.36455706757E+03  0.27021337661E+03  0.55664653011E+03  0.81679702614E+02 0.  0.
         11    1    3    3    0    0 -0.19286749910E+03 -0.35850203943E+02  0.27922663418E+03  0.34124862281E+03  0.00000000000E+00 0.  1.
        -11    1    3    3    0    0 -0.11047262757E+03 -0.33691838968E+01  0.67302844783E+02  0.12940334524E+03  0.00000000000E+00 0. -1.
          4    1    6    6  502    0  0.38158073657E+02 -0.81584251305E+02  0.75031363793E+02  0.11722514320E+03  0.00000000000E+00 0. -1.
          1    1    5    5  503    0  0.32140173976E+02  0.25188711133E+03 -0.36895373165E+02  0.25659574470E+03  0.00000000000E+00 0. -1.
         -2    1    5    5    0  503 -0.40676082366E+02  0.15188934408E+03 -0.16984905530E+02  0.15815626304E+03  0.00000000000E+00 0.  1.
         -3    1    6    6    0  502  0.27371796141E+03 -0.28297281627E+03  0.19518201282E+03  0.43942138691E+03  0.00000000000E+00 0.  1.
<mgrwt>
<rscale>  0 0.13276654E+04</rscale>
<asrwt>0</asrwt>
<pdfrwt beam="1">  1        1 0.15422408E+00 0.13276654E+04</pdfrwt>
<pdfrwt beam="2">  1       -1 0.67629841E-01 0.13276654E+04</pdfrwt>
<totfact> 0.32707049E+01</totfact>
</mgrwt>
</event>
<event>
12    1  0.1114484E-007  0.1293742E+04  0.7818608E-02  0.9034542E-01
         -1   -1    0    0    0  501 -0.00000000000E+00  0.00000000000E+00  0.33266861163E+03  0.33266861163E+03  0.00000000000E+00 0.  1.
          1   -1    0    0  501    0  0.00000000000E+00 -0.00000000000E+00 -0.12578354389E+04  0.12578354389E+04  0.00000000000E+00 0. -1.
         23    2    1    2    0    0 -0.27583744833E+02  0.53630180980E+02  0.10267205640E+03  0.14999345928E+03  0.91210895024E+02 0.  0.
        254    2    1    2    0    0  0.27583744833E+02 -0.53630180980E+02 -0.10278388837E+04  0.14405105913E+04  0.10074626214E+04 0.  0.
        -24    2    4    4    0    0  0.38536045280E+03  0.19213137788E+03 -0.15696750543E+03  0.46418567671E+03  0.73569013517E+02 0.  0.
         24    2    4    4    0    0 -0.35777670797E+03 -0.24576155886E+03 -0.87087137825E+03  0.97632491455E+03  0.79940382473E+02 0.  0.
         13    1    3    3    0    0  0.13338231926E+02  0.50239930838E+02  0.94898351787E+02  0.10820192352E+03  0.00000000000E+00 0.  1.
        -13    1    3    3    0    0 -0.40921976759E+02  0.33902501418E+01  0.77737046115E+01  0.41791535762E+02  0.00000000000E+00 0. -1.
          2    1    6    6  502    0 -0.10427102402E+03 -0.71928942760E+02 -0.34076620802E+03  0.36354893452E+03  0.00000000000E+00 0. -1.
          3    1    5    5  503    0  0.22658801373E+03  0.10063625538E+03 -0.53121790261E+02  0.25355809682E+03  0.00000000000E+00 0. -1.
         -4    1    5    5    0  503  0.15877243907E+03  0.91495122501E+02 -0.10384571517E+03  0.21062757989E+03  0.00000000000E+00 0.  1.
         -1    1    6    6    0  502 -0.25350568394E+03 -0.17383261610E+03 -0.53010517023E+03  0.61277598004E+03  0.00000000000E+00 0.  1.
<mgrwt>
<rscale>  0 0.12937424E+04</rscale>
<asrwt>0</asrwt>
<pdfrwt beam="1">  1        1 0.19351315E+00 0.12937424E+04</pdfrwt>
<pdfrwt beam="2">  1       -1 0.51179785E-01 0.12937424E+04</pdfrwt>
<totfact> 0.36594497E+01</totfact>
</mgrwt>
</event>
<event>
12    1  0.1274735E-007  0.2158863E+04  0.7818608E-02  0.8535748E-01
         -2   -1    0    0    0  501 -0.00000000000E+00  0.00000000000E+00  0.92662764128E+03  0.92662764128E+03  0.00000000000E+00 0.  1.
          2   -1    0    0  501    0  0.00000000000E+00 -0.00000000000E+00 -0.12574333577E+04  0.12574333577E+04  0.00000000000E+00 0. -1.
         23    2    1    2    0    0  0.41139615371E+03  0.65738006488E+03 -0.57044563454E+03  0.96768189103E+03  0.98003445204E+02 0.  0.
        254    2    1    2    0    0 -0.41139615371E+03 -0.65738006488E+03  0.23963991814E+03  0.12163791079E+04  0.90595557224E+03 0.  0.
        -24    2    4    4    0    0  0.19920844962E+02 -0.89754998498E+01  0.40762520474E+03  0.41553669459E+03  0.77685502839E+02 0.  0.
         24    2    4    4    0    0 -0.43131699867E+03 -0.64840456503E+03 -0.16798528660E+03  0.80084241335E+03  0.81649747172E+02 0.  0.
         11    1    3    3    0    0  0.52185083854E+02  0.13291492133E+03 -0.72228305865E+02  0.16002058448E+03  0.00000000000E+00 0. -1.
        -11    1    3    3    0    0  0.35921106985E+03  0.52446514355E+03 -0.49821732867E+03  0.80766130655E+03  0.00000000000E+00 0.  1.
          2    1    6    6  502    0 -0.77429049102E+02 -0.81085708498E+02 -0.30671409626E+01  0.11215862482E+03  0.00000000000E+00 0. -1.
          1    1    5    5  503    0 -0.12906664134E+00 -0.11704026947E+02  0.55521864240E+01  0.12954832267E+02  0.00000000000E+00 0. -1.
         -2    1    5    5    0  503  0.20049911604E+02  0.27285270970E+01  0.40207301831E+03  0.40258186232E+03  0.00000000000E+00 0.  1.
         -3    1    6    6    0  502 -0.35388794957E+03 -0.56731885653E+03 -0.16491814564E+03  0.68868378853E+03  0.00000000000E+00 0.  1.
<mgrwt>
<rscale>  0 0.21588631E+04</rscale>
<asrwt>0</asrwt>
<pdfrwt beam="1">  1        2 0.19345129E+00 0.21588631E+04</pdfrwt>
<pdfrwt beam="2">  1       -2 0.14255810E+00 0.21588631E+04</pdfrwt>
<totfact> 0.55024097E+00</totfact>
</mgrwt>
</event>
<event>
12    1  0.1114484E-007  0.1588556E+04  0.7818608E-02  0.8827609E-01
         -1   -1    0    0    0  501 -0.00000000000E+00  0.00000000000E+00  0.22346255812E+03  0.22346255812E+03  0.00000000000E+00 0.  1.
          1   -1    0    0  501    0  0.00000000000E+00 -0.00000000000E+00 -0.28231918644E+04  0.28231918644E+04  0.00000000000E+00 0. -1.
         23    2    1    2    0    0 -0.91287421464E+02  0.51656552716E+03 -0.10006329862E+04  0.11330709977E+04  0.86082376907E+02 0.  0.
        254    2    1    2    0    0  0.91287421464E+02 -0.51656552716E+03 -0.15990963200E+04  0.19135834248E+04  0.91077941656E+03 0.  0.
        -24    2    4    4    0    0  0.38734525472E+03 -0.11091189752E+03 -0.11987067816E+04  0.12665694812E+04  0.70445065237E+02 0.  0.
         24    2    4    4    0    0 -0.29605783326E+03 -0.40565362964E+03 -0.40038953845E+03  0.64701394354E+03  0.78167466085E+02 0.  0.
         13    1    3    3    0    0 -0.90370291699E+02  0.50647831741E+03 -0.93985124279E+03  0.10714510881E+04  0.00000000000E+00 0.  1.
        -13    1    3    3    0    0 -0.91712976503E+00  0.10087209757E+02 -0.60781743450E+02  0.61619909644E+02  0.00000000000E+00 0. -1.
          2    1    6    6  502    0 -0.20524082912E+03 -0.26574036044E+03 -0.22054661954E+03  0.40172446838E+03  0.00000000000E+00 0. -1.
          1    1    5    5  503    0  0.34370189386E+03 -0.10324258278E+03 -0.11218569509E+04  0.11778595167E+04  0.00000000000E+00 0. -1.
         -2    1    5    5    0  503  0.43643360859E+02 -0.76693147467E+01 -0.76849830667E+02  0.88709964544E+02  0.00000000000E+00 0.  1.
         -1    1    6    6    0  502 -0.90817004133E+02 -0.13991326920E+03 -0.17984291892E+03  0.24528947516E+03  0.00000000000E+00 0.  1.
<mgrwt>
<rscale>  0 0.15885562E+04</rscale>
<asrwt>0</asrwt>
<pdfrwt beam="1">  1        1 0.43433720E+00 0.15885562E+04</pdfrwt>
<pdfrwt beam="2">  1       -1 0.34378856E-01 0.15885562E+04</pdfrwt>
<totfact> 0.61975817E+00</totfact>
</mgrwt>
</event>
<event>
12    1  0.1114484E-007  0.2581500E+04  0.7818608E-02  0.8374513E-01
         -1   -1    0    0    0  501 -0.00000000000E+00  0.00000000000E+00  0.15811316400E+04  0.15811316400E+04  0.00000000000E+00 0.  1.
          1   -1    0    0  501    0  0.00000000000E+00 -0.00000000000E+00 -0.10536978921E+04  0.10536978921E+04  0.00000000000E+00 0. -1.
         23    2    1    2    0    0 -0.74574724237E+03 -0.73209937123E+03 -0.21233896666E+03  0.10702135047E+04  0.90336426806E+02 0.  0.
        254    2    1    2    0    0  0.74574724237E+03  0.73209937123E+03  0.73977271452E+03  0.15646160274E+04  0.89925035730E+03 0.  0.
        -24    2    4    4    0    0  0.90567851179E+02 -0.10786844135E+03  0.41880753668E+03  0.44897378484E+03  0.79621419124E+02 0.  0.
         24    2    4    4    0    0  0.65517939119E+03  0.83996781258E+03  0.32096517783E+03  0.11156422425E+04  0.82662005336E+02 0.  0.
         13    1    3    3    0    0 -0.61409295584E+03 -0.61834515311E+03 -0.14402342311E+03  0.88329136371E+03  0.00000000000E+00 0. -1.
        -13    1    3    3    0    0 -0.13165428653E+03 -0.11375421812E+03 -0.68315543552E+02  0.18692214099E+03  0.00000000000E+00 0.  1.
          2    1    6    6  502    0  0.10996084956E+03  0.15427548567E+03  0.89587159864E+02  0.20956663171E+03  0.00000000000E+00 0. -1.
          3    1    5    5  503    0  0.85061047892E+02 -0.40647933146E+02  0.23735692839E+03  0.25539371134E+03  0.00000000000E+00 0. -1.
         -4    1    5    5    0  503  0.55068032870E+01 -0.67220508203E+02  0.18145060830E+03  0.19358007350E+03  0.00000000000E+00 0.  1.
         -1    1    6    6    0  502  0.54521854163E+03  0.68569232691E+03  0.23137801797E+03  0.90607561082E+03  0.00000000000E+00 0.  1.
<mgrwt>
<rscale>  0 0.25814996E+04</rscale>
<asrwt>0</asrwt>
<pdfrwt beam="1">  1        1 0.16210737E+00 0.25814996E+04</pdfrwt>
<pdfrwt beam="2">  1       -1 0.24325102E+00 0.25814996E+04</pdfrwt>
<totfact> 0.93612549E-01</totfact>
</mgrwt>
</event>
<event>
12    1  0.1114484E-007  0.2518682E+04  0.7818608E-02  0.8396360E-01
          1   -1    0    0  501    0  0.00000000000E+00  0.00000000000E+00  0.26700480028E+04  0.26700480028E+04  0.00000000000E+00 0. -1.
         -1   -1    0    0    0  501 -0.00000000000E+00 -0.00000000000E+00 -0.59397408519E+03  0.59397408519E+03  0.00000000000E+00 0.  1.
         23    2    1    2    0    0  0.76078866915E+03  0.21228204139E+03  0.18945880446E+04  0.20545388192E+04  0.88333665937E+02 0.  0.
        254    2    1    2    0    0 -0.76078866915E+03 -0.21228204139E+03  0.18148587303E+03  0.12094832688E+04  0.89780264606E+03 0.  0.
        -24    2    4    4    0    0 -0.73834370663E+03 -0.20368566469E+03 -0.21983993666E+03  0.80069926969E+03  0.78424764086E+02 0.  0.
         24    2    4    4    0    0 -0.22444962521E+02 -0.85963766996E+01  0.40132580969E+03  0.40878399914E+03  0.73920757554E+02 0.  0.
         13    1    3    3    0    0  0.25896320897E+03  0.72431185770E+02  0.54046067127E+03  0.60366046538E+03  0.00000000000E+00 0. -1.
        -13    1    3    3    0    0  0.50182546018E+03  0.13985085562E+03  0.13541273733E+04  0.14508783538E+04  0.00000000000E+00 0.  1.
          2    1    6    6  502    0  0.11858088542E+02  0.16152207574E+02  0.37591401501E+02  0.42598374854E+02  0.00000000000E+00 0. -1.
          1    1    5    5  503    0 -0.61278397835E+03 -0.19735956252E+03 -0.17397177856E+03  0.66687418662E+03  0.00000000000E+00 0. -1.
         -2    1    5    5    0  503 -0.12555972828E+03 -0.63261021766E+01 -0.45868158095E+02  0.13382508308E+03  0.00000000000E+00 0.  1.
         -1    1    6    6    0  502 -0.34303051062E+02 -0.24748584274E+02  0.36373440819E+03  0.36618562429E+03  0.00000000000E+00 0.  1.
<mgrwt>
<rscale>  0 0.25186817E+04</rscale>
<asrwt>0</asrwt>
<pdfrwt beam="1">  1        1 0.41077661E+00 0.25186817E+04</pdfrwt>
<pdfrwt beam="2">  1       -1 0.91380630E-01 0.25186817E+04</pdfrwt>
<totfact> 0.10669395E+00</totfact>
</mgrwt>
</event>
<event>
12    1  0.1114484E-007  0.1357897E+04  0.7818608E-02  0.8984872E-01
         -2   -1    0    0    0  501 -0.00000000000E+00  0.00000000000E+00  0.42589819684E+03  0.42589819684E+03  0.00000000000E+00 0.  1.
          2   -1    0    0  501    0  0.00000000000E+00 -0.00000000000E+00 -0.10823504038E+04  0.10823504038E+04  0.00000000000E+00 0. -1.
         23    2    1    2    0    0  0.13641069770E+03 -0.32438279849E+03 -0.31034427683E+02  0.36448139090E+03  0.89729984974E+02 0.  0.
        254    2    1    2    0    0 -0.13641069770E+03  0.32438279849E+03 -0.62541777929E+03  0.11437672097E+04  0.89063121045E+03 0.  0.
        -24    2    4    4    0    0 -0.41894754279E+03  0.22739378738E+03 -0.43851469703E+02  0.48522555194E+03  0.79346749837E+02 0.  0.
         24    2    4    4    0    0  0.28253684509E+03  0.96989011112E+02 -0.58156630958E+03  0.65854165781E+03  0.78891099110E+02 0.  0.
         11    1    3    3    0    0  0.39552288855E+01 -0.10778777558E+02 -0.20965452331E+02  0.23903474070E+02  0.00000000000E+00 0. -1.
        -11    1    3    3    0    0  0.13245546882E+03 -0.31360402093E+03 -0.10068975352E+02  0.34057791683E+03  0.00000000000E+00 0.  1.
          2    1    6    6  502    0  0.69905377699E+02  0.49702008337E+02 -0.11343402334E+03  0.14221226781E+03  0.00000000000E+00 0. -1.
          1    1    5    5  503    0 -0.16313520123E+03  0.78606793244E+02 -0.54467952384E+02  0.18910018419E+03  0.00000000000E+00 0. -1.
         -2    1    5    5    0  503 -0.25581234156E+03  0.14878699414E+03  0.10616482681E+02  0.29612536775E+03  0.00000000000E+00 0.  1.
         -1    1    6    6    0  502  0.21263146739E+03  0.47287002775E+02 -0.46813228625E+03  0.51632939000E+03  0.00000000000E+00 0.  1.
<mgrwt>
<rscale>  0 0.13578970E+04</rscale>
<asrwt>0</asrwt>
<pdfrwt beam="1">  1        2 0.16651544E+00 0.13578970E+04</pdfrwt>
<pdfrwt beam="2">  1       -2 0.65522801E-01 0.13578970E+04</pdfrwt>
<totfact> 0.46808381E+01</totfact>
</mgrwt>
</event>
<event>
12    1  0.1114484E-007  0.1281511E+04  0.7818608E-02  0.9044357E-01
          2   -1    0    0  501    0  0.00000000000E+00  0.00000000000E+00  0.18581532995E+04  0.18581532995E+04  0.00000000000E+00 0.  1.
         -2   -1    0    0    0  501 -0.00000000000E+00 -0.00000000000E+00 -0.22095458820E+03  0.22095458820E+03  0.00000000000E+00 0. -1.
         23    2    1    2    0    0 -0.24903209371E+03  0.17406141995E+03  0.27881421849E+03  0.42203889154E+03  0.89805879114E+02 0.  0.
        254    2    1    2    0    0  0.24903209371E+03 -0.17406141995E+03  0.13583844928E+04  0.16570689962E+04  0.89908557220E+03 0.  0.
        -24    2    4    4    0    0 -0.31636164108E+03 -0.11556154267E+03  0.71299829903E+03  0.79338885978E+03  0.87522284701E+02 0.  0.
         24    2    4    4    0    0  0.56539373479E+03 -0.58499877276E+02  0.64538619379E+03  0.86368013639E+03  0.79547016732E+02 0.  0.
         11    1    3    3    0    0 -0.20391226101E+03  0.17572709824E+03  0.25588737345E+03  0.37140082275E+03  0.00000000000E+00 0. -1.
        -11    1    3    3    0    0 -0.45119832702E+02 -0.16656782898E+01  0.22926845040E+02  0.50638068790E+02  0.00000000000E+00 0.  1.
          2    1    6    6  502    0  0.52458007382E+03 -0.72166421037E+02  0.61148017521E+03  0.80888828082E+03  0.00000000000E+00 0. -1.
          3    1    5    5  503    0 -0.14674866109E+03 -0.48719175732E+02  0.42794221059E+03  0.45502006903E+03  0.00000000000E+00 0. -1.
         -4    1    5    5    0  503 -0.16961297999E+03 -0.66842366943E+02  0.28505608844E+03  0.33836879075E+03  0.00000000000E+00 0.  1.
         -1    1    6    6    0  502  0.40813660978E+02  0.13666543761E+02  0.33906018576E+02  0.54791855567E+02  0.00000000000E+00 0.  1.
<mgrwt>
<rscale>  0 0.12815108E+04</rscale>
<asrwt>0</asrwt>
<pdfrwt beam="1">  1        2 0.28586973E+00 0.12815108E+04</pdfrwt>
<pdfrwt beam="2">  1       -2 0.33993015E-01 0.12815108E+04</pdfrwt>
<totfact> 0.63702687E+01</totfact>
</mgrwt>
</event>
<event>
12    1  0.1114484E-007  0.2476600E+04  0.7818608E-02  0.8411370E-01
          2   -1    0    0  501    0  0.00000000000E+00  0.00000000000E+00  0.74017248370E+03  0.74017248370E+03  0.00000000000E+00 0. -1.
         -2   -1    0    0    0  501 -0.00000000000E+00 -0.00000000000E+00 -0.20716620087E+04  0.20716620087E+04  0.00000000000E+00 0.  1.
         23    2    1    2    0    0 -0.48552189617E+01 -0.10683573262E+04 -0.50218033060E+03  0.11838219234E+04  0.88534242481E+02 0.  0.
        254    2    1    2    0    0  0.48552189617E+01  0.10683573262E+04 -0.82930919436E+03  0.16280125690E+04  0.90623409521E+03 0.  0.
        -24    2    4    4    0    0  0.16698819641E+02  0.74502383367E+03 -0.16923533495E+02  0.74963430566E+03  0.79535042103E+02 0.  0.
         24    2    4    4    0    0 -0.11843600679E+02  0.32333349257E+03 -0.81238566087E+03  0.87837826335E+03  0.83024654470E+02 0.  0.
         13    1    3    3    0    0  0.16672410832E+02 -0.90412918780E+03 -0.45068494404E+03  0.10103684854E+04  0.00000000000E+00 0. -1.
        -13    1    3    3    0    0 -0.21527629793E+02 -0.16422813843E+03 -0.51495386564E+02  0.17345343794E+03  0.00000000000E+00 0.  1.
          4    1    6    6  502    0  0.16912711787E+02  0.49542632392E+02 -0.20391110416E+03  0.21052375316E+03  0.00000000000E+00 0. -1.
          1    1    5    5  503    0 -0.12884437518E+02  0.28585209420E+03 -0.40040546004E+02  0.28893022309E+03  0.00000000000E+00 0. -1.
         -4    1    5    5    0  503  0.29583257158E+02  0.45917173947E+03  0.23117012509E+02  0.46070408257E+03  0.00000000000E+00 0.  1.
         -3    1    6    6    0  502 -0.28756312466E+02  0.27379086017E+03 -0.60847455670E+03  0.66785451019E+03  0.00000000000E+00 0.  1.
<mgrwt>
<rscale>  0 0.24766003E+04</rscale>
<asrwt>0</asrwt>
<pdfrwt beam="1">  1        2 0.11387269E+00 0.24766003E+04</pdfrwt>
<pdfrwt beam="2">  1       -2 0.31871724E+00 0.24766003E+04</pdfrwt>
<totfact> 0.83152838E-01</totfact>
</mgrwt>
</event>
<event>
12    1  0.1114484E-007  0.1186949E+04  0.7818608E-02  0.9124357E-01
         -1   -1    0    0    0  501 -0.00000000000E+00  0.00000000000E+00  0.24635687476E+03  0.24635687476E+03  0.00000000000E+00 0.  1.
          1   -1    0    0  501    0  0.00000000000E+00 -0.00000000000E+00 -0.14296823940E+04  0.14296823940E+04  0.00000000000E+00 0. -1.
         23    2    1    2    0    0 -0.12424083444E+03  0.68904776448E+02  0.19061002865E+02  0.16685317126E+03  0.85399097007E+02 0.  0.
        254    2    1    2    0    0  0.12424083444E+03 -0.68904776448E+02 -0.12023865221E+04  0.15091860975E+04  0.90095819835E+03 0.  0.
        -24    2    4    4    0    0  0.17209958910E+03 -0.33079183792E+03 -0.13241474394E+03  0.40364997046E+03  0.79737855726E+02 0.  0.
         24    2    4    4    0    0 -0.47858754666E+02  0.26188706147E+03 -0.10699717782E+04  0.11055361270E+04  0.80592982062E+02 0.  0.
         11    1    3    3    0    0 -0.57377344219E+02  0.75474277455E+02  0.28521161460E+02  0.99004963704E+02  0.00000000000E+00 0.  1.
        -11    1    3    3    0    0 -0.66863490218E+02 -0.65695010070E+01 -0.94601585956E+01  0.67848207554E+02  0.00000000000E+00 0. -1.
          2    1    6    6  502    0  0.18808399790E+02  0.89739901974E+02 -0.29731400452E+03  0.31113119932E+03  0.00000000000E+00 0. -1.
          1    1    5    5  503    0  0.42371214797E+01 -0.55516247971E+02 -0.15927787135E+01  0.55700484120E+02  0.00000000000E+00 0. -1.
         -2    1    5    5    0  503  0.16786246762E+03 -0.27527558995E+03 -0.13082196522E+03  0.34794948634E+03  0.00000000000E+00 0.  1.
         -1    1    6    6    0  502 -0.66667154455E+02  0.17214715950E+03 -0.77265777364E+03  0.79440492771E+03  0.00000000000E+00 0.  1.
<mgrwt>
<rscale>  0 0.11869492E+04</rscale>
<asrwt>0</asrwt>
<pdfrwt beam="1">  1        1 0.21995114E+00 0.11869492E+04</pdfrwt>
<pdfrwt beam="2">  1       -1 0.37901057E-01 0.11869492E+04</pdfrwt>
<totfact> 0.48736430E+01</totfact>
</mgrwt>
</event>
<event>
12    1  0.1114484E-007  0.4230535E+04  0.7818608E-02  0.7959589E-01
         -2   -1    0    0    0  501 -0.00000000000E+00  0.00000000000E+00  0.27238891676E+04  0.27238891676E+04  0.00000000000E+00 0.  1.
          2   -1    0    0  501    0  0.00000000000E+00 -0.00000000000E+00 -0.16426350138E+04  0.16426350138E+04  0.00000000000E+00 0. -1.
         23    2    1    2    0    0 -0.17940499196E+04  0.67003581846E+03  0.11741500806E+04  0.22482805393E+04  0.92595138912E+02 0.  0.
        254    2    1    2    0    0  0.17940499196E+04 -0.67003581846E+03 -0.92895926804E+02  0.21182436421E+04  0.90042399015E+03 0.  0.
        -24    2    4    4    0    0  0.13687397539E+04 -0.44835936703E+03 -0.45452285767E+03  0.15122183534E+04  0.75754102849E+02 0.  0.
         24    2    4    4    0    0  0.42531016566E+03 -0.22167645144E+03  0.36162693086E+03  0.60602528873E+03  0.80395443428E+02 0.  0.
         11    1    3    3    0    0 -0.10906841978E+04  0.40755832383E+03  0.76657946076E+03  0.13940372579E+04  0.00000000000E+00 0. -1.
        -11    1    3    3    0    0 -0.70336572175E+03  0.26247749463E+03  0.40757061988E+03  0.85424328145E+03  0.00000000000E+00 0.  1.
          2    1    6    6  502    0  0.35036720123E+02  0.31822716267E+01  0.35155967272E+02  0.49735707942E+02  0.00000000000E+00 0. -1.
          3    1    5    5  503    0  0.50395523953E+03 -0.14108965678E+03 -0.13537201605E+03  0.54055782062E+03  0.00000000000E+00 0. -1.
         -4    1    5    5    0  503  0.86478451440E+03 -0.30726971024E+03 -0.31915084161E+03  0.97166053274E+03  0.00000000000E+00 0.  1.
         -1    1    6    6    0  502  0.39027344554E+03 -0.22485872306E+03  0.32647096359E+03  0.55628958079E+03  0.00000000000E+00 0.  1.
<mgrwt>
<rscale>  0 0.42305346E+04</rscale>
<asrwt>0</asrwt>
<pdfrwt beam="1">  1        2 0.25271308E+00 0.42305346E+04</pdfrwt>
<pdfrwt beam="2">  1       -2 0.41905987E+00 0.42305346E+04</pdfrwt>
<totfact> 0.45462686E-02</totfact>
</mgrwt>
</event>
<event>
12    1  0.1114484E-007  0.1753949E+04  0.7818608E-02  0.8731180E-01
          2   -1    0    0  501    0  0.00000000000E+00  0.00000000000E+00  0.30439573600E+04  0.30439573600E+04  0.00000000000E+00 0. -1.
         -2   -1    0    0    0  501 -0.00000000000E+00 -0.00000000000E+00 -0.25265923949E+03  0.25265923949E+03  0.00000000000E+00 0.  1.
         23    2    1    2    0    0  0.13571519745E+03  0.99137429121E+02  0.21508802855E+04  0.21592991910E+04  0.89666877072E+02 0.  0.
        254    2    1    2    0    0 -0.13571519745E+03 -0.99137429121E+02  0.64041783504E+03  0.11373174086E+04  0.92472106050E+03 0.  0.
        -24    2    4    4    0    0  0.69876828486E+02 -0.46800801490E+03  0.19361355242E+03  0.51738254698E+03  0.79273066499E+02 0.  0.
         24    2    4    4    0    0 -0.20559202594E+03  0.36887058578E+03  0.44680428262E+03  0.61993486159E+03  0.79696772005E+02 0.  0.
         11    1    3    3    0    0  0.92673809667E+02  0.11165453431E+03  0.17104228105E+04  0.17165667364E+04  0.00000000000E+00 0. -1.
        -11    1    3    3    0    0  0.43041387783E+02 -0.12517105191E+02  0.44045747504E+03  0.44273245454E+03  0.00000000000E+00 0.  1.
          4    1    6    6  502    0 -0.17139608199E+03  0.26266347554E+03  0.36697474512E+03  0.48274131982E+03  0.00000000000E+00 0. -1.
          1    1    5    5  503    0  0.38017714366E+02 -0.36775154957E+03  0.11892484168E+03  0.38836795283E+03  0.00000000000E+00 0. -1.
         -2    1    5    5    0  503  0.31859114120E+02 -0.10025646533E+03  0.74688710732E+02  0.12901459415E+03  0.00000000000E+00 0.  1.
         -3    1    6    6    0  502 -0.34195943950E+02  0.10620711023E+03  0.79829537507E+02  0.13719354178E+03  0.00000000000E+00 0.  1.
<mgrwt>
<rscale>  0 0.17539486E+04</rscale>
<asrwt>0</asrwt>
<pdfrwt beam="1">  1        2 0.46830111E+00 0.17539486E+04</pdfrwt>
<pdfrwt beam="2">  1       -2 0.38870654E-01 0.17539486E+04</pdfrwt>
<totfact> 0.97268778E+00</totfact>
</mgrwt>
</event>
<event>
12    1  0.1114484E-007  0.1417658E+04  0.7818608E-02  0.8941135E-01
          2   -1    0    0  501    0  0.00000000000E+00  0.00000000000E+00  0.55366841388E+03  0.55366841388E+03  0.00000000000E+00 0.  1.
         -2   -1    0    0    0  501 -0.00000000000E+00 -0.00000000000E+00 -0.90747255709E+03  0.90747255709E+03  0.00000000000E+00 0. -1.
         23    2    1    2    0    0  0.23482550081E+03 -0.54656038504E+02  0.24187267391E+03  0.35372112063E+03  0.92119175074E+02 0.  0.
        254    2    1    2    0    0 -0.23482550081E+03  0.54656038504E+02 -0.59567681713E+03  0.11074198503E+04  0.90189664379E+03 0.  0.
        -24    2    4    4    0    0  0.14559256998E+03 -0.33987227536E+03 -0.22856709187E+03  0.44189301556E+03  0.79474283421E+02 0.  0.
         24    2    4    4    0    0 -0.38041807080E+03  0.39452831386E+03 -0.36710972525E+03  0.66552683478E+03  0.88237851320E+02 0.  0.
         11    1    3    3    0    0  0.83178570207E+01 -0.33715559020E+01  0.54734123813E+02  0.55465110152E+02  0.00000000000E+00 0. -1.
        -11    1    3    3    0    0  0.22650764379E+03 -0.51284482602E+02  0.18713855010E+03  0.29825601048E+03  0.00000000000E+00 0.  1.
          4    1    6    6  502    0 -0.24440776501E+03  0.20688280321E+03 -0.17767412380E+03  0.36620178062E+03  0.00000000000E+00 0. -1.
          1    1    5    5  503    0  0.10044798207E+03 -0.14071383687E+03 -0.12154864760E+03  0.21133919353E+03  0.00000000000E+00 0. -1.
         -2    1    5    5    0  503  0.45144587910E+02 -0.19915843849E+03 -0.10701844427E+03  0.23055382203E+03  0.00000000000E+00 0.  1.
         -3    1    6    6    0  502 -0.13601030579E+03  0.18764551065E+03 -0.18943560145E+03  0.29932505416E+03  0.00000000000E+00 0.  1.
<mgrwt>
<rscale>  0 0.14176585E+04</rscale>
<asrwt>0</asrwt>
<pdfrwt beam="1">  1        2 0.85179756E-01 0.14176585E+04</pdfrwt>
<pdfrwt beam="2">  1       -2 0.13961116E+00 0.14176585E+04</pdfrwt>
<totfact> 0.19194763E+01</totfact>
</mgrwt>
</event>
<event>
12    1  0.1114484E-007  0.1179210E+04  0.7818608E-02  0.9131251E-01
          1   -1    0    0  501    0  0.00000000000E+00  0.00000000000E+00  0.70560900433E+03  0.70560900433E+03  0.00000000000E+00 0. -1.
         -1   -1    0    0    0  501 -0.00000000000E+00 -0.00000000000E+00 -0.49267246191E+03  0.49267246191E+03  0.00000000000E+00 0.  1.
         23    2    1    2    0    0  0.68689741205E+02  0.17552365419E+03  0.12363371505E+03  0.24276171881E+03  0.90117273009E+02 0.  0.
        254    2    1    2    0    0 -0.68689741205E+02 -0.17552365419E+03  0.89302827373E+02  0.95551974743E+03  0.93247850325E+03 0.  0.
        -24    2    4    4    0    0 -0.33790829568E+03  0.23275601487E+03  0.17332158017E+03  0.45293144107E+03  0.82153158245E+02 0.  0.
         24    2    4    4    0    0  0.26921855448E+03 -0.40827966906E+03 -0.84018752793E+02  0.50258830636E+03  0.79780552952E+02 0.  0.
         13    1    3    3    0    0  0.18470184694E+02  0.75672833062E+02  0.24893500715E+01  0.77934089140E+02  0.00000000000E+00 0. -1.
        -13    1    3    3    0    0  0.50219556511E+02  0.99850821128E+02  0.12114436498E+03  0.16482762967E+03  0.00000000000E+00 0.  1.
          4    1    6    6  502    0  0.11745726501E+03 -0.17762226196E+03 -0.76853214542E+02  0.22638969418E+03  0.00000000000E+00 0. -1.
          3    1    5    5  503    0 -0.73984195346E+02  0.69960147586E+02  0.78792457337E+02  0.12874911551E+03  0.00000000000E+00 0. -1.
         -4    1    5    5    0  503 -0.26392410034E+03  0.16279586728E+03  0.94529122830E+02  0.32418232556E+03  0.00000000000E+00 0.  1.
         -3    1    6    6    0  502  0.15176128947E+03 -0.23065740710E+03 -0.71655382507E+01  0.27619861218E+03  0.00000000000E+00 0.  1.
<mgrwt>
<rscale>  0 0.11792101E+04</rscale>
<asrwt>0</asrwt>
<pdfrwt beam="1">  1        1 0.10855523E+00 0.11792101E+04</pdfrwt>
<pdfrwt beam="2">  1       -1 0.75795763E-01 0.11792101E+04</pdfrwt>
<totfact> 0.46671727E+01</totfact>
</mgrwt>
</event>
<event>
12    1  0.1114484E-007  0.3664886E+04  0.7818608E-02  0.8075788E-01
         -1   -1    0    0    0  501 -0.00000000000E+00  0.00000000000E+00  0.10976963754E+04  0.10976963754E+04  0.00000000000E+00 0.  1.
          1   -1    0    0  501    0  0.00000000000E+00 -0.00000000000E+00 -0.30589943930E+04  0.30589943930E+04  0.00000000000E+00 0. -1.
         23    2    1    2    0    0  0.13263422437E+04  0.35797047186E+03  0.22694329759E+03  0.13952781656E+04  0.89282097734E+02 0.  0.
        254    2    1    2    0    0 -0.13263422437E+04 -0.35797047186E+03 -0.21882413152E+04  0.27614126028E+04  0.97451162298E+03 0.  0.
        -24    2    4    4    0    0 -0.61129938130E+03  0.21053534627E+02 -0.26162842105E+03  0.67019611990E+03  0.81137066249E+02 0.  0.
         24    2    4    4    0    0 -0.71504286235E+03 -0.37902400649E+03 -0.19266128941E+04  0.20912164829E+04  0.80022759208E+02 0.  0.
         11    1    3    3    0    0  0.37799694261E+03  0.64460027003E+02  0.80420412735E+02  0.39179615425E+03  0.00000000000E+00 0. -1.
        -11    1    3    3    0    0  0.94834530105E+03  0.29351044486E+03  0.14652288485E+03  0.10034820113E+04  0.00000000000E+00 0.  1.
          2    1    6    6  502    0 -0.65234827478E+03 -0.36342048189E+03 -0.17307912148E+04  0.18850121876E+04  0.00000000000E+00 0. -1.
          3    1    5    5  503    0 -0.59786870365E+02  0.26633724697E+02 -0.25793277835E+02  0.70349970439E+02  0.00000000000E+00 0. -1.
         -4    1    5    5    0  503 -0.55151251094E+03 -0.55801900695E+01 -0.23583514322E+03  0.59984614946E+03  0.00000000000E+00 0.  1.
         -1    1    6    6    0  502 -0.62694587578E+02 -0.15603524605E+02 -0.19582167934E+03  0.20620429528E+03  0.00000000000E+00 0.  1.
<mgrwt>
<rscale>  0 0.36648858E+04</rscale>
<asrwt>0</asrwt>
<pdfrwt beam="1">  1        1 0.47061453E+00 0.36648858E+04</pdfrwt>
<pdfrwt beam="2">  1       -1 0.16887636E+00 0.36648858E+04</pdfrwt>
<totfact> 0.10911348E-01</totfact>
</mgrwt>
</event>
<event>
12    1  0.1114484E-007  0.1331839E+04  0.7818608E-02  0.9004691E-01
          1   -1    0    0  501    0  0.00000000000E+00  0.00000000000E+00  0.21575261248E+04  0.21575261248E+04  0.00000000000E+00 0. -1.
         -1   -1    0    0    0  501 -0.00000000000E+00 -0.00000000000E+00 -0.20553572106E+03  0.20553572106E+03  0.00000000000E+00 0.  1.
         23    2    1    2    0    0 -0.31288203426E+02  0.24297300334E+03  0.83458848777E+02  0.27602246508E+03  0.95959313057E+02 0.  0.
        254    2    1    2    0    0  0.31288203426E+02 -0.24297300334E+03  0.18685315550E+04  0.20870393808E+04  0.89683241077E+03 0.  0.
        -24    2    4    4    0    0  0.42371338222E+03 -0.30050611212E+03  0.10742147536E+04  0.11956485554E+04  0.76165460955E+02 0.  0.
         24    2    4    4    0    0 -0.39242517879E+03  0.57533108776E+02  0.79431680139E+03  0.89139082543E+03  0.79566595556E+02 0.  0.
         13    1    3    3    0    0 -0.51808214258E+02  0.63718814848E+02  0.34480747044E+02  0.89067953535E+02  0.00000000000E+00 0. -1.
        -13    1    3    3    0    0  0.20520010832E+02  0.17925418849E+03  0.48978101733E+02  0.18695451154E+03  0.00000000000E+00 0.  1.
          2    1    6    6  502    0 -0.37060034984E+03  0.52171644163E+02  0.69289290416E+03  0.78750687387E+03  0.00000000000E+00 0. -1.
          3    1    5    5  503    0  0.24920558820E+03 -0.13270029715E+03  0.60621826368E+03  0.66874014182E+03  0.00000000000E+00 0. -1.
         -4    1    5    5    0  503  0.17450779402E+03 -0.16780581497E+03  0.46799648990E+03  0.52690841355E+03  0.00000000000E+00 0.  1.
         -1    1    6    6    0  502 -0.21824828948E+02  0.53614646129E+01  0.10142389723E+03  0.10388395156E+03  0.00000000000E+00 0.  1.
<mgrwt>
<rscale>  0 0.13318389E+04</rscale>
<asrwt>0</asrwt>
<pdfrwt beam="1">  1        1 0.33192708E+00 0.13318389E+04</pdfrwt>
<pdfrwt beam="2">  1       -1 0.31620882E-01 0.13318389E+04</pdfrwt>
<totfact> 0.21267679E+01</totfact>
</mgrwt>
</event>
<event>
12    1  0.1114484E-007  0.1100500E+04  0.7818608E-02  0.9204705E-01
          4   -1    0    0  501    0  0.00000000000E+00  0.00000000000E+00  0.35733724594E+03  0.35733724594E+03  0.00000000000E+00 0. -1.
         -4   -1    0    0    0  501 -0.00000000000E+00 -0.00000000000E+00 -0.84730874264E+03  0.84730874264E+03  0.00000000000E+00 0.  1.
         23    2    1    2    0    0  0.47398797316E+02  0.10832743875E+02 -0.28267279547E+03  0.30116707281E+03  0.91835189969E+02 0.  0.
        254    2    1    2    0    0 -0.47398797316E+02 -0.10832743875E+02 -0.20729870122E+03  0.90347891577E+03  0.87803041256E+03 0.  0.
        -24    2    4    4    0    0  0.12057325895E+03  0.45424360235E+01 -0.51939302546E+03  0.53942560076E+03  0.81561751844E+02 0.  0.
         24    2    4    4    0    0 -0.16797205627E+03 -0.15375179898E+02  0.31209432424E+03  0.36405331501E+03  0.81737024087E+02 0.  0.
         13    1    3    3    0    0  0.67189804989E+02  0.98710137373E+01 -0.12502061729E+03  0.14227459912E+03  0.00000000000E+00 0. -1.
        -13    1    3    3    0    0 -0.19791007674E+02  0.96173013764E+00 -0.15765217818E+03  0.15889247369E+03  0.00000000000E+00 0.  1.
          2    1    6    6  502    0 -0.54717061659E+02 -0.29793463202E+02  0.56445759035E+02  0.84069798377E+02  0.00000000000E+00 0. -1.
          3    1    5    5  503    0  0.10870993212E+03  0.10604859165E+02 -0.29391558780E+03  0.31355491565E+03  0.00000000000E+00 0. -1.
         -4    1    5    5    0  503  0.11863326830E+02 -0.60624231411E+01 -0.22547743766E+03  0.22587068511E+03  0.00000000000E+00 0.  1.
         -1    1    6    6    0  502 -0.11325499461E+03  0.14418283304E+02  0.25564856520E+03  0.27998351663E+03  0.00000000000E+00 0.  1.
<mgrwt>
<rscale>  0 0.11004998E+04</rscale>
<asrwt>0</asrwt>
<pdfrwt beam="1">  1        4 0.54974961E-01 0.11004998E+04</pdfrwt>
<pdfrwt beam="2">  1       -4 0.13035519E+00 0.11004998E+04</pdfrwt>
<totfact> 0.26841866E+00</totfact>
</mgrwt>
</event>
<event>
12    1  0.1114484E-007  0.1505765E+04  0.7818608E-02  0.8880629E-01
          2   -1    0    0  501    0  0.00000000000E+00  0.00000000000E+00  0.13415779317E+04  0.13415779317E+04  0.00000000000E+00 0. -1.
         -2   -1    0    0    0  501 -0.00000000000E+00 -0.00000000000E+00 -0.42251119096E+03  0.42251119096E+03  0.00000000000E+00 0.  1.
         23    2    1    2    0    0 -0.22539560927E+03  0.14569083579E+03 -0.15712638846E+03  0.32349221765E+03  0.89047810841E+02 0.  0.
        254    2    1    2    0    0  0.22539560927E+03 -0.14569083579E+03  0.10761931292E+04  0.14405969050E+04  0.91929254923E+03 0.  0.
        -24    2    4    4    0    0  0.45036806050E+03  0.22913768345E+03  0.60900952498E+03  0.79546014184E+03  0.80800791057E+02 0.  0.
         24    2    4    4    0    0 -0.22497245123E+03 -0.37482851924E+03  0.46718360419E+03  0.64513676315E+03  0.82655311315E+02 0.  0.
         11    1    3    3    0    0  0.39115771540E+01  0.20419086650E+02 -0.17819995081E+02  0.27382325689E+02  0.00000000000E+00 0. -1.
        -11    1    3    3    0    0 -0.22930718643E+03  0.12527174914E+03 -0.13930639338E+03  0.29610989196E+03  0.00000000000E+00 0.  1.
          2    1    6    6  502    0 -0.12894383105E+03 -0.13594334112E+03  0.20255740825E+03  0.27592862700E+03  0.00000000000E+00 0. -1.
          1    1    5    5  503    0  0.16841693484E+03  0.10878316496E+03  0.18952853007E+03  0.27589690943E+03  0.00000000000E+00 0. -1.
         -2    1    5    5    0  503  0.28195112566E+03  0.12035451849E+03  0.41948099491E+03  0.51956323241E+03  0.00000000000E+00 0.  1.
         -1    1    6    6    0  502 -0.96028620183E+02 -0.23888517812E+03  0.26462619594E+03  0.36920813615E+03  0.00000000000E+00 0.  1.
<mgrwt>
<rscale>  0 0.15057645E+04</rscale>
<asrwt>0</asrwt>
<pdfrwt beam="1">  1        2 0.20639660E+00 0.15057645E+04</pdfrwt>
<pdfrwt beam="2">  1       -2 0.65001722E-01 0.15057645E+04</pdfrwt>
<totfact> 0.32965146E+01</totfact>
</mgrwt>
</event>
<event>
12    1  0.1114484E-007  0.2945812E+04  0.7818608E-02  0.8259376E-01
         -2   -1    0    0    0  501 -0.00000000000E+00  0.00000000000E+00  0.96175321473E+03  0.96175321473E+03  0.00000000000E+00 0.  1.
          2   -1    0    0  501    0  0.00000000000E+00 -0.00000000000E+00 -0.22557264482E+04  0.22557264482E+04  0.00000000000E+00 0. -1.
         23    2    1    2    0    0 -0.25211392109E+03 -0.10814398847E+04  0.22400045479E+03  0.11365314364E+04  0.91944814278E+02 0.  0.
        254    2    1    2    0    0  0.25211392109E+03  0.10814398847E+04 -0.15179736883E+04  0.20809482265E+04  0.89052105515E+03 0.  0.
        -24    2    4    4    0    0 -0.10147244885E+03 -0.16385068014E+02  0.44680119871E+02  0.13706804598E+03  0.78906322871E+02 0.  0.
         24    2    4    4    0    0  0.35358636993E+03  0.10978249527E+04 -0.15626538081E+04  0.19438801805E+04  0.80872024148E+02 0.  0.
         11    1    3    3    0    0 -0.19518613528E+03 -0.96547802407E+03  0.20134298982E+03  0.10053777608E+04  0.00000000000E+00 0.  1.
        -11    1    3    3    0    0 -0.56927785802E+02 -0.11596186062E+03  0.22657464968E+02  0.13115367564E+03  0.00000000000E+00 0. -1.
          2    1    6    6  502    0  0.10089475252E+03  0.41348819302E+03 -0.61657139679E+03  0.74920793121E+03  0.00000000000E+00 0. -1.
          3    1    5    5  503    0  0.74983899803E+01 -0.16533883297E+02 -0.24923070375E+01  0.18325030520E+02  0.00000000000E+00 0. -1.
         -4    1    5    5    0  503 -0.10897083883E+03  0.14881528269E+00  0.47172426909E+02  0.11874301546E+03  0.00000000000E+00 0.  1.
         -3    1    6    6    0  502  0.25269161742E+03  0.68433675969E+03 -0.94608241135E+03  0.11946722493E+04  0.00000000000E+00 0.  1.
<mgrwt>
<rscale>  0 0.29458121E+04</rscale>
<asrwt>0</asrwt>
<pdfrwt beam="1">  1        2 0.34703483E+00 0.29458121E+04</pdfrwt>
<pdfrwt beam="2">  1       -2 0.14796204E+00 0.29458121E+04</pdfrwt>
<totfact> 0.12829758E+00</totfact>
</mgrwt>
</event>
<event>
12    1  0.1114484E-007  0.1508084E+04  0.7818608E-02  0.8879095E-01
          1   -1    0    0  501    0  0.00000000000E+00  0.00000000000E+00  0.95004171324E+03  0.95004171324E+03  0.00000000000E+00 0. -1.
         -1   -1    0    0    0  501 -0.00000000000E+00 -0.00000000000E+00 -0.59847812999E+03  0.59847812999E+03  0.00000000000E+00 0.  1.
         23    2    1    2    0    0  0.44403139116E+02  0.28224110990E+03 -0.26359960371E+03  0.39903619629E+03  0.90074702274E+02 0.  0.
        254    2    1    2    0    0 -0.44403139116E+02 -0.28224110990E+03  0.61516318696E+03  0.11494836469E+04  0.92803837481E+03 0.  0.
        -24    2    4    4    0    0  0.40465390910E+03 -0.89981878629E+02  0.47318294134E+03  0.63457590457E+03  0.83324414505E+02 0.  0.
         24    2    4    4    0    0 -0.44905704822E+03 -0.19225923127E+03  0.14198024562E+03  0.51490774237E+03  0.79722948039E+02 0.  0.
         13    1    3    3    0    0  0.54931779371E+02  0.24230559023E+03 -0.18334987618E+03  0.30878257162E+03  0.00000000000E+00 0. -1.
        -13    1    3    3    0    0 -0.10528640254E+02  0.39935519671E+02 -0.80249727526E+02  0.90253624664E+02  0.00000000000E+00 0.  1.
          2    1    6    6  502    0 -0.36457626677E+03 -0.18630343055E+03  0.12877206314E+03  0.42919350738E+03  0.00000000000E+00 0. -1.
          1    1    5    5  503    0  0.61045331843E+02  0.15105735685E+02  0.83251040145E+02  0.10433336703E+03  0.00000000000E+00 0. -1.
         -2    1    5    5    0  503  0.34360857726E+03 -0.10508761431E+03  0.38993190119E+03  0.53024253754E+03  0.00000000000E+00 0.  1.
         -1    1    6    6    0  502 -0.84480781446E+02 -0.59558007151E+01  0.13208182476E+02  0.85714234992E+02  0.00000000000E+00 0.  1.
<mgrwt>
<rscale>  0 0.15080838E+04</rscale>
<asrwt>0</asrwt>
<pdfrwt beam="1">  1        1 0.14616026E+00 0.15080838E+04</pdfrwt>
<pdfrwt beam="2">  1       -1 0.92073559E-01 0.15080838E+04</pdfrwt>
<totfact> 0.18405150E+01</totfact>
</mgrwt>
</event>
<event>
12    1  0.1114484E-007  0.1249909E+04  0.7818608E-02  0.9070259E-01
          1   -1    0    0  501    0  0.00000000000E+00  0.00000000000E+00  0.17265852990E+04  0.17265852990E+04  0.00000000000E+00 0. -1.
         -1   -1    0    0    0  501 -0.00000000000E+00 -0.00000000000E+00 -0.22620831026E+03  0.22620831026E+03  0.00000000000E+00 0.  1.
         23    2    1    2    0    0 -0.39819989277E+02  0.19400948078E+03  0.68866829053E+03  0.72219683442E+03  0.89882941065E+02 0.  0.
        254    2    1    2    0    0  0.39819989277E+02 -0.19400948078E+03  0.81170869824E+03  0.12305967749E+04  0.90347778130E+03 0.  0.
        -24    2    4    4    0    0  0.20759258387E+03  0.27146077115E+03  0.10916583002E+03  0.36750531454E+03  0.79732970720E+02 0.  0.
         24    2    4    4    0    0 -0.16777259460E+03 -0.46547025192E+03  0.70254286822E+03  0.86309146031E+03  0.80933233367E+02 0.  0.
         13    1    3    3    0    0  0.17120181558E+01  0.39932971563E+02  0.50628174225E+02  0.64504149086E+02  0.00000000000E+00 0.  1.
        -13    1    3    3    0    0 -0.41532007433E+02  0.15407650921E+03  0.63804011630E+03  0.65769268534E+03  0.00000000000E+00 0. -1.
          4    1    6    6  502    0 -0.17674344946E+03 -0.44237875577E+03  0.66217646235E+03  0.81572965974E+03  0.00000000000E+00 0. -1.
          3    1    5    5  503    0  0.15736009927E+03  0.21449305627E+03  0.11803912006E+03  0.29103729296E+03  0.00000000000E+00 0. -1.
         -4    1    5    5    0  503  0.50232484604E+02  0.56967714880E+02 -0.88732900400E+01  0.76468021579E+02  0.00000000000E+00 0.  1.
         -3    1    6    6    0  502  0.89708548604E+01 -0.23091496156E+02  0.40366405862E+02  0.47361800576E+02  0.00000000000E+00 0.  1.
<mgrwt>
<rscale>  0 0.12499087E+04</rscale>
<asrwt>0</asrwt>
<pdfrwt beam="1">  1        1 0.26562850E+00 0.12499087E+04</pdfrwt>
<pdfrwt beam="2">  1       -1 0.34801280E-01 0.12499087E+04</pdfrwt>
<totfact> 0.35350324E+01</totfact>
</mgrwt>
</event>
<event>
12    1  0.1114484E-007  0.2300469E+04  0.7818608E-02  0.8477736E-01
         -2   -1    0    0    0  501 -0.00000000000E+00  0.00000000000E+00  0.97645607395E+03  0.97645607395E+03  0.00000000000E+00 0.  1.
          2   -1    0    0  501    0  0.00000000000E+00 -0.00000000000E+00 -0.13549405955E+04  0.13549405955E+04  0.00000000000E+00 0. -1.
         23    2    1    2    0    0  0.57031968294E+03 -0.72439823447E+03  0.15114603518E+03  0.93886064633E+03  0.92719180502E+02 0.  0.
        254    2    1    2    0    0 -0.57031968294E+03  0.72439823447E+03 -0.52963055670E+03  0.13925360231E+04  0.89923895945E+03 0.  0.
        -24    2    4    4    0    0 -0.39183696278E+03  0.26140773082E+03  0.19063086388E+03  0.51432228968E+03  0.79480087221E+02 0.  0.
         24    2    4    4    0    0 -0.17848272015E+03  0.46299050365E+03 -0.72026142058E+03  0.87821373342E+03  0.79161605120E+02 0.  0.
         11    1    3    3    0    0  0.57006367447E+03 -0.71180058865E+03  0.15631949257E+03  0.92523967420E+03  0.00000000000E+00 0.  1.
        -11    1    3    3    0    0  0.25600847212E+00 -0.12597645819E+02 -0.51734573948E+01  0.13620972137E+02  0.00000000000E+00 0. -1.
          4    1    6    6  502    0 -0.45740645728E+02  0.20613672098E+03 -0.26394697839E+03  0.33801266516E+03  0.00000000000E+00 0. -1.
          1    1    5    5  503    0 -0.24127032763E+03  0.13072794827E+03  0.77733731867E+02  0.28520817051E+03  0.00000000000E+00 0. -1.
         -2    1    5    5    0  503 -0.15056663515E+03  0.13067978255E+03  0.11289713201E+03  0.22911411918E+03  0.00000000000E+00 0.  1.
         -3    1    6    6    0  502 -0.13274207443E+03  0.25685378267E+03 -0.45631444220E+03  0.54020106826E+03  0.00000000000E+00 0.  1.
<mgrwt>
<rscale>  0 0.23004695E+04</rscale>
<asrwt>0</asrwt>
<pdfrwt beam="1">  1        2 0.20845240E+00 0.23004695E+04</pdfrwt>
<pdfrwt beam="2">  1       -2 0.15022401E+00 0.23004695E+04</pdfrwt>
<totfact> 0.41564854E+00</totfact>
</mgrwt>
</event>
<event>
12    1  0.1114484E-007  0.2185411E+04  0.7818608E-02  0.8524525E-01
         -2   -1    0    0    0  501 -0.00000000000E+00  0.00000000000E+00  0.73390278720E+03  0.73390278720E+03  0.00000000000E+00 0.  1.
          2   -1    0    0  501    0  0.00000000000E+00 -0.00000000000E+00 -0.16269261358E+04  0.16269261358E+04  0.00000000000E+00 0. -1.
         23    2    1    2    0    0 -0.27810082385E+03 -0.75710621815E+03  0.72529987982E+02  0.81548701996E+03  0.95961381678E+02 0.  0.
        254    2    1    2    0    0  0.27810082385E+03  0.75710621815E+03 -0.96555333656E+03  0.15453419030E+04  0.89735079967E+03 0.  0.
        -24    2    4    4    0    0  0.55431430027E+03  0.36993532406E+03 -0.77848888574E+03  0.10279568936E+04  0.80832805005E+02 0.  0.
         24    2    4    4    0    0 -0.27621347642E+03  0.38717089409E+03 -0.18706445081E+03  0.51738500943E+03  0.80616086716E+02 0.  0.
         13    1    3    3    0    0 -0.64842423076E+02 -0.12841197840E+03  0.46179232135E+02  0.15108506712E+03  0.00000000000E+00 0. -1.
        -13    1    3    3    0    0 -0.21325840078E+03 -0.62869423975E+03  0.26350755847E+02  0.66440195284E+03  0.00000000000E+00 0.  1.
          4    1    6    6  502    0 -0.18787737531E+03  0.26724583035E+03 -0.16762821753E+03  0.36717497369E+03  0.00000000000E+00 0. -1.
          1    1    5    5  503    0  0.22607014001E+03  0.11533712894E+03 -0.25635967152E+03  0.36073625087E+03  0.00000000000E+00 0. -1.
         -2    1    5    5    0  503  0.32824416026E+03  0.25459819513E+03 -0.52212921423E+03  0.66722064271E+03  0.00000000000E+00 0.  1.
         -3    1    6    6    0  502 -0.88336101107E+02  0.11992506374E+03 -0.19436233284E+02  0.15021003573E+03  0.00000000000E+00 0.  1.
<mgrwt>
<rscale>  0 0.21854113E+04</rscale>
<asrwt>0</asrwt>
<pdfrwt beam="1">  1        2 0.25029633E+00 0.21854113E+04</pdfrwt>
<pdfrwt beam="2">  1       -2 0.11290812E+00 0.21854113E+04</pdfrwt>
<totfact> 0.60794742E+00</totfact>
</mgrwt>
</event>
<event>
12    1  0.1114484E-007  0.2095026E+04  0.7818608E-02  0.8563438E-01
         -2   -1    0    0    0  501 -0.00000000000E+00  0.00000000000E+00  0.43954196716E+03  0.43954196716E+03  0.00000000000E+00 0.  1.
          2   -1    0    0  501    0  0.00000000000E+00 -0.00000000000E+00 -0.24964238187E+04  0.24964238187E+04  0.00000000000E+00 0. -1.
         23    2    1    2    0    0 -0.23964650164E+03  0.76904953172E+03 -0.47027899350E+03  0.93707473707E+03  0.89883831419E+02 0.  0.
        254    2    1    2    0    0  0.23964650164E+03 -0.76904953172E+03 -0.15866028580E+04  0.19988910488E+04  0.91070805846E+03 0.  0.
        -24    2    4    4    0    0 -0.28096792192E+03 -0.18656389135E+03 -0.86681832742E+03  0.93341128661E+03  0.78317038478E+02 0.  0.
         24    2    4    4    0    0  0.52061442356E+03 -0.58248564037E+03 -0.71978453059E+03  0.10654797621E+04  0.82634458925E+02 0.  0.
         11    1    3    3    0    0 -0.24119682996E+03  0.76993808851E+03 -0.46441987019E+03  0.93094918591E+03  0.00000000000E+00 0.  1.
        -11    1    3    3    0    0  0.15503283232E+01 -0.88855679197E+00 -0.58591233086E+01  0.61255511611E+01  0.00000000000E+00 0. -1.
          2    1    6    6  502    0  0.25413040710E+03 -0.22304360442E+03 -0.30660766550E+03  0.45644164340E+03  0.00000000000E+00 0. -1.
          1    1    5    5  503    0 -0.11593499878E+03 -0.92170103182E+02 -0.28296391325E+03  0.31938194699E+03  0.00000000000E+00 0. -1.
         -2    1    5    5    0  503 -0.16503292314E+03 -0.94393788163E+02 -0.58385441417E+03  0.61402933962E+03  0.00000000000E+00 0.  1.
         -1    1    6    6    0  502  0.26648401647E+03 -0.35944203596E+03 -0.41317686509E+03  0.60903811875E+03  0.00000000000E+00 0.  1.
<mgrwt>
<rscale>  0 0.20950256E+04</rscale>
<asrwt>0</asrwt>
<pdfrwt beam="1">  1        2 0.38406520E+00 0.20950256E+04</pdfrwt>
<pdfrwt beam="2">  1       -2 0.67621842E-01 0.20950256E+04</pdfrwt>
<totfact> 0.64652527E+00</totfact>
</mgrwt>
</event>
<event>
12    1  0.1114484E-007  0.1388728E+04  0.7818608E-02  0.8962019E-01
         -2   -1    0    0    0  501 -0.00000000000E+00  0.00000000000E+00  0.82127026482E+03  0.82127026482E+03  0.00000000000E+00 0.  1.
          2   -1    0    0  501    0  0.00000000000E+00 -0.00000000000E+00 -0.58706763501E+03  0.58706763501E+03  0.00000000000E+00 0. -1.
         23    2    1    2    0    0  0.28933607162E+03 -0.10728436865E+03  0.31565983148E+03  0.45042018011E+03  0.89509280808E+02 0.  0.
        254    2    1    2    0    0 -0.28933607162E+03  0.10728436865E+03 -0.81457201662E+02  0.95791771972E+03  0.90318646134E+03 0.  0.
        -24    2    4    4    0    0  0.22490386657E+03  0.30425070680E+03 -0.10482538586E+03  0.40103700396E+03  0.81805105172E+02 0.  0.
         24    2    4    4    0    0 -0.51423993819E+03 -0.19696633816E+03  0.23368184199E+02  0.55688071576E+03  0.79571396577E+02 0.  0.
         11    1    3    3    0    0  0.19896874130E+03 -0.10949054828E+03  0.25546580018E+03  0.34181795628E+03  0.00000000000E+00 0.  1.
        -11    1    3    3    0    0  0.90367330316E+02  0.22061796293E+01  0.60194031300E+02  0.10860222383E+03  0.00000000000E+00 0. -1.
          4    1    6    6  502    0 -0.35637056504E+02 -0.21852893521E+02  0.22015024769E+02  0.47246270404E+02  0.00000000000E+00 0. -1.
          1    1    5    5  503    0  0.13134013270E+01  0.39448557676E+02 -0.19934027400E+02  0.44218538806E+02  0.00000000000E+00 0. -1.
         -2    1    5    5    0  503  0.22359046525E+03  0.26480214913E+03 -0.84891358461E+02  0.35681846515E+03  0.00000000000E+00 0.  1.
         -3    1    6    6    0  502 -0.47860288169E+03 -0.17511344463E+03  0.13531594306E+01  0.50963444536E+03  0.00000000000E+00 0.  1.
<mgrwt>
<rscale>  0 0.13887278E+04</rscale>
<asrwt>0</asrwt>
<pdfrwt beam="1">  1        2 0.90318097E-01 0.13887278E+04</pdfrwt>
<pdfrwt beam="2">  1       -2 0.12634927E+00 0.13887278E+04</pdfrwt>
<totfact> 0.23140970E+01</totfact>
</mgrwt>
</event>
<event>
12    1  0.1114484E-007  0.1721073E+04  0.7818608E-02  0.8749436E-01
         -2   -1    0    0    0  501 -0.00000000000E+00  0.00000000000E+00  0.11787071657E+04  0.11787071657E+04  0.00000000000E+00 0. -1.
          2   -1    0    0  501    0  0.00000000000E+00 -0.00000000000E+00 -0.62825013731E+03  0.62825013731E+03  0.00000000000E+00 0.  1.
         23    2    1    2    0    0  0.11867478206E+03  0.61388275558E+03  0.21808342901E+03  0.66847924034E+03  0.91478802213E+02 0.  0.
        254    2    1    2    0    0 -0.11867478206E+03 -0.61388275558E+03  0.33237359939E+03  0.11384780627E+04  0.89147313371E+03 0.  0.
        -24    2    4    4    0    0 -0.45386113421E+03 -0.11717544173E+03  0.21666213025E+03  0.52263795497E+03  0.80547749868E+02 0.  0.
         24    2    4    4    0    0  0.33518635215E+03 -0.49670731386E+03  0.11571146914E+03  0.61584010770E+03  0.82473316027E+02 0.  0.
         13    1    3    3    0    0  0.43328926132E+02  0.18146378504E+03  0.22412634883E+02  0.18790643236E+03  0.00000000000E+00 0. -1.
        -13    1    3    3    0    0  0.75345855923E+02  0.43241897054E+03  0.19567079412E+03  0.48057280797E+03  0.00000000000E+00 0.  1.
          2    1    6    6  502    0  0.81157822054E+02 -0.17113418125E+03  0.62642353332E+02  0.19949326932E+03  0.00000000000E+00 0. -1.
          3    1    5    5  503    0 -0.13317856844E+03 -0.24754879253E+02  0.24887186904E+02  0.13772692987E+03  0.00000000000E+00 0. -1.
         -4    1    5    5    0  503 -0.32068256577E+03 -0.92420562473E+02  0.19177494334E+03  0.38491102511E+03  0.00000000000E+00 0.  1.
         -1    1    6    6    0  502  0.25402853010E+03 -0.32557313261E+03  0.53069115807E+02  0.41634683838E+03  0.00000000000E+00 0.  1.
<mgrwt>
<rscale>  0 0.17210728E+04</rscale>
<asrwt>0</asrwt>
<pdfrwt beam="1">  1        2 0.96653868E-01 0.17210728E+04</pdfrwt>
<pdfrwt beam="2">  1       -2 0.18133956E+00 0.17210728E+04</pdfrwt>
<totfact> 0.79002157E+00</totfact>
</mgrwt>
</event>
<event>
12    1  0.1114484E-007  0.2139999E+04  0.7818608E-02  0.8543825E-01
          1   -1    0    0  501    0  0.00000000000E+00  0.00000000000E+00  0.74685768638E+03  0.74685768638E+03  0.00000000000E+00 0. -1.
         -1   -1    0    0    0  501 -0.00000000000E+00 -0.00000000000E+00 -0.15329550176E+04  0.15329550176E+04  0.00000000000E+00 0.  1.
         23    2    1    2    0    0  0.26975902724E+02 -0.58673360709E+03 -0.10215333459E+04  0.11818951929E+04  0.91443125362E+02 0.  0.
        254    2    1    2    0    0 -0.26975902724E+02  0.58673360709E+03  0.23543601464E+03  0.10979175111E+04  0.89722278127E+03 0.  0.
        -24    2    4    4    0    0  0.29012755023E+01 -0.16543531059E+03  0.28555687864E+03  0.33907883001E+03  0.77810427548E+02 0.  0.
         24    2    4    4    0    0 -0.29877178227E+02  0.75216891768E+03 -0.50120864003E+02  0.75883868111E+03  0.81690369282E+02 0.  0.
         13    1    3    3    0    0 -0.20690691580E+02 -0.42644248388E+02 -0.10006561649E+03  0.11072381967E+03  0.00000000000E+00 0. -1.
        -13    1    3    3    0    0  0.47666594305E+02 -0.54408935870E+03 -0.92146772941E+03  0.10711713732E+04  0.00000000000E+00 0.  1.
          2    1    6    6  502    0 -0.57177865068E+02  0.57915917970E+03 -0.42428065980E+02  0.58351932656E+03  0.00000000000E+00 0. -1.
          3    1    5    5  503    0 -0.13534874206E+02 -0.10190547714E+03  0.23413749186E+03  0.25571132979E+03  0.00000000000E+00 0. -1.
         -4    1    5    5    0  503  0.16436149709E+02 -0.63529833459E+02  0.51419386780E+02  0.83367500223E+02  0.00000000000E+00 0.  1.
         -1    1    6    6    0  502  0.27300686841E+02  0.17300973798E+03 -0.76927980221E+01  0.17531935455E+03  0.00000000000E+00 0.  1.
<mgrwt>
<rscale>  0 0.21399993E+04</rscale>
<asrwt>0</asrwt>
<pdfrwt beam="1">  1        1 0.11490118E+00 0.21399993E+04</pdfrwt>
<pdfrwt beam="2">  1       -1 0.23583923E+00 0.21399993E+04</pdfrwt>
<totfact> 0.19510278E+00</totfact>
</mgrwt>
</event>
<event>
12    1  0.1114484E-007  0.3089900E+04  0.7818608E-02  0.8218515E-01
         -1   -1    0    0    0  501 -0.00000000000E+00  0.00000000000E+00  0.10050543434E+04  0.10050543434E+04  0.00000000000E+00 0.  1.
          1   -1    0    0  501    0  0.00000000000E+00 -0.00000000000E+00 -0.23748672911E+04  0.23748672911E+04  0.00000000000E+00 0. -1.
         23    2    1    2    0    0 -0.11341480660E+04  0.82241740700E+03 -0.85513814270E+03  0.16438339864E+04  0.90921421861E+02 0.  0.
        254    2    1    2    0    0  0.11341480660E+04 -0.82241740700E+03 -0.51467480506E+03  0.17360876480E+04  0.88681900058E+03 0.  0.
        -24    2    4    4    0    0  0.11944792347E+02 -0.38048911261E+03 -0.33641987776E+03  0.51442329886E+03  0.80860085229E+02 0.  0.
         24    2    4    4    0    0  0.11222032736E+04 -0.44192829438E+03 -0.17825492730E+03  0.12216643492E+04  0.77769905391E+02 0.  0.
         11    1    3    3    0    0 -0.24273160843E+03  0.13268047481E+03 -0.15847346781E+03  0.31880492802E+03  0.00000000000E+00 0.  1.
        -11    1    3    3    0    0 -0.89141645756E+03  0.68973693218E+03 -0.69666467489E+03  0.13250290584E+04  0.00000000000E+00 0. -1.
          2    1    6    6  502    0  0.65735016807E+01 -0.95432674045E+00  0.47497308184E+01  0.81658806458E+01  0.00000000000E+00 0. -1.
          3    1    5    5  503    0  0.18408525523E+02 -0.37995439612E+02 -0.15349387185E+02  0.44923612167E+02  0.00000000000E+00 0. -1.
         -4    1    5    5    0  503 -0.64637331759E+01 -0.34249367300E+03 -0.32107049057E+03  0.46949968670E+03  0.00000000000E+00 0.  1.
         -1    1    6    6    0  502  0.11156297720E+04 -0.44097396764E+03 -0.18300465812E+03  0.12134984685E+04  0.00000000000E+00 0.  1.
<mgrwt>
<rscale>  0 0.30899001E+04</rscale>
<asrwt>0</asrwt>
<pdfrwt beam="1">  1        1 0.36536420E+00 0.30899001E+04</pdfrwt>
<pdfrwt beam="2">  1       -1 0.15462375E+00 0.30899001E+04</pdfrwt>
<totfact> 0.44846309E-01</totfact>
</mgrwt>
</event>
<event>
12    1  0.1334717E-007  0.1598290E+04  0.7818608E-02  0.8821599E-01
          2   -1    0    0  501    0  0.00000000000E+00  0.00000000000E+00  0.98677690780E+03  0.98677690780E+03  0.00000000000E+00 0. -1.
         -2   -1    0    0    0  501 -0.00000000000E+00 -0.00000000000E+00 -0.64719053670E+03  0.64719053670E+03  0.00000000000E+00 0.  1.
         23    2    1    2    0    0  0.18949735906E+03  0.35961069081E+03 -0.23477990367E+03  0.47834792379E+03  0.92011059054E+02 0.  0.
        254    2    1    2    0    0 -0.18949735906E+03 -0.35961069081E+03  0.57436627477E+03  0.11556195207E+04  0.91669556616E+03 0.  0.
        -24    2    4    4    0    0 -0.42796003066E+03 -0.52994403154E+03  0.30921582288E+03  0.75234241810E+03  0.80088854066E+02 0.  0.
         24    2    4    4    0    0  0.23846267160E+03  0.17033334072E+03  0.26515045189E+03  0.40327710261E+03  0.80310439198E+02 0.  0.
         13    1    3    3    0    0  0.98616710361E+00  0.10012155290E+01  0.66035886680E+01  0.67514695725E+01  0.00000000000E+00 0. -1.
        -13    1    3    3    0    0  0.18851119196E+03  0.35860947528E+03 -0.24138349234E+03  0.47159645422E+03  0.00000000000E+00 0.  1.
          4    1    6    6  502    0  0.31036423289E+02  0.63151528057E+02  0.60236177641E+02  0.92627059563E+02  0.00000000000E+00 0. -1.
          1    1    5    5  503    0 -0.14726996177E+02 -0.51425468579E+02  0.20441607056E+02  0.57265369413E+02  0.00000000000E+00 0. -1.
         -2    1    5    5    0  503 -0.41323303448E+03 -0.47851856296E+03  0.28877421582E+03  0.69507704868E+03  0.00000000000E+00 0.  1.
         -3    1    6    6    0  502  0.20742624831E+03  0.10718181267E+03  0.20491427425E+03  0.31065004305E+03  0.00000000000E+00 0.  1.
<mgrwt>
<rscale>  0 0.15982899E+04</rscale>
<asrwt>0</asrwt>
<pdfrwt beam="1">  1        2 0.15181183E+00 0.15982899E+04</pdfrwt>
<pdfrwt beam="2">  1       -2 0.99567774E-01 0.15982899E+04</pdfrwt>
<totfact> 0.20564098E+01</totfact>
</mgrwt>
</event>
<event>
12    1  0.1114484E-007  0.3227377E+04  0.7818608E-02  0.8181624E-01
          2   -1    0    0  501    0  0.00000000000E+00  0.00000000000E+00  0.25507419057E+04  0.25507419057E+04  0.00000000000E+00 0. -1.
         -2   -1    0    0    0  501 -0.00000000000E+00 -0.00000000000E+00 -0.10208756043E+04  0.10208756043E+04  0.00000000000E+00 0.  1.
         23    2    1    2    0    0 -0.40241447217E+03  0.13070024630E+04  0.61635838129E+02  0.13722579091E+04  0.95393641456E+02 0.  0.
        254    2    1    2    0    0  0.40241447217E+03 -0.13070024630E+04  0.14682304632E+04  0.21993596009E+04  0.90071589029E+03 0.  0.
        -24    2    4    4    0    0  0.35031539690E+03 -0.11445603824E+04  0.65924466326E+03  0.13687867709E+04  0.78957911162E+02 0.  0.
         24    2    4    4    0    0  0.52099075271E+02 -0.16244208058E+03  0.80898579997E+03  0.83057283000E+03  0.79318712726E+02 0.  0.
         13    1    3    3    0    0 -0.45121614268E+02  0.70936066144E+02  0.83701924465E+01  0.84486363845E+02  0.00000000000E+00 0. -1.
        -13    1    3    3    0    0 -0.35729285791E+03  0.12360663969E+04  0.53265645683E+02  0.12877715453E+04  0.00000000000E+00 0.  1.
          2    1    6    6  502    0  0.57998615488E+02 -0.13832907625E+03  0.76912007382E+03  0.78360989063E+03  0.00000000000E+00 0. -1.
          3    1    5    5  503    0  0.30375237687E+03 -0.92652709914E+03  0.50870391518E+03  0.10997716332E+04  0.00000000000E+00 0. -1.
         -4    1    5    5    0  503  0.46563020030E+02 -0.21803328328E+03  0.15054074808E+03  0.26901513765E+03  0.00000000000E+00 0.  1.
         -1    1    6    6    0  502 -0.58995402176E+01 -0.24113004337E+02  0.39865726149E+02  0.46962939371E+02  0.00000000000E+00 0.  1.
<mgrwt>
<rscale>  0 0.32273768E+04</rscale>
<asrwt>0</asrwt>
<pdfrwt beam="1">  1        2 0.39242183E+00 0.32273768E+04</pdfrwt>
<pdfrwt beam="2">  1       -2 0.15705779E+00 0.32273768E+04</pdfrwt>
<totfact> 0.72371035E-01</totfact>
</mgrwt>
</event>
<event>
12    1  0.1114484E-007  0.1982657E+04  0.7818608E-02  0.8614772E-01
         -2   -1    0    0    0  501 -0.00000000000E+00  0.00000000000E+00  0.61999609331E+03  0.61999609331E+03  0.00000000000E+00 0.  1.
          2   -1    0    0  501    0  0.00000000000E+00 -0.00000000000E+00 -0.15850624880E+04  0.15850624880E+04  0.00000000000E+00 0. -1.
         23    2    1    2    0    0 -0.52907808243E+02  0.17371452419E+03  0.46133506995E+03  0.50441233363E+03  0.92875096033E+02 0.  0.
        254    2    1    2    0    0  0.52907808243E+02 -0.17371452419E+03 -0.14264014647E+04  0.17006462477E+04  0.90807518925E+03 0.  0.
        -24    2    4    4    0    0 -0.28004465590E+03  0.23046434557E+03 -0.40366517179E+03  0.54885536743E+03  0.82205958188E+02 0.  0.
         24    2    4    4    0    0  0.33295246414E+03 -0.40417886976E+03 -0.10227362929E+04  0.11517908803E+04  0.80092477680E+02 0.  0.
         11    1    3    3    0    0 -0.49380795436E+02  0.18271882850E+03  0.45514182394E+03  0.49292871001E+03  0.00000000000E+00 0.  1.
        -11    1    3    3    0    0 -0.35270128067E+01 -0.90043043097E+01  0.61932460122E+01  0.11483623627E+02  0.00000000000E+00 0. -1.
          4    1    6    6  502    0  0.13978986691E+03 -0.11029522262E+03 -0.34601872220E+03  0.38914675784E+03  0.00000000000E+00 0. -1.
          3    1    5    5  503    0 -0.43157103098E+02  0.10919567205E+02 -0.80338596503E+02  0.91848040718E+02  0.00000000000E+00 0. -1.
         -4    1    5    5    0  503 -0.23688755280E+03  0.21954477837E+03 -0.32332657529E+03  0.45700732671E+03  0.00000000000E+00 0.  1.
         -3    1    6    6    0  502  0.19316259723E+03 -0.29388364714E+03 -0.67671757066E+03  0.76264412242E+03  0.00000000000E+00 0.  1.
<mgrwt>
<rscale>  0 0.19826574E+04</rscale>
<asrwt>0</asrwt>
<pdfrwt beam="1">  1        2 0.24385576E+00 0.19826574E+04</pdfrwt>
<pdfrwt beam="2">  1       -2 0.95384017E-01 0.19826574E+04</pdfrwt>
<totfact> 0.97659748E+00</totfact>
</mgrwt>
</event>
<event>
12    1  0.1114484E-007  0.2136332E+04  0.7818608E-02  0.8545406E-01
          2   -1    0    0  501    0  0.00000000000E+00  0.00000000000E+00  0.24874302587E+04  0.24874302587E+04  0.00000000000E+00 0.  1.
         -2   -1    0    0    0  501 -0.00000000000E+00 -0.00000000000E+00 -0.45869766836E+03  0.45869766836E+03  0.00000000000E+00 0. -1.
         23    2    1    2    0    0 -0.70965957269E+03  0.38393390999E+03  0.13270907826E+04  0.15558819211E+04  0.92610209598E+02 0.  0.
        254    2    1    2    0    0  0.70965957269E+03 -0.38393390999E+03  0.70164180777E+03  0.13902460059E+04  0.88851605178E+03 0.  0.
        -24    2    4    4    0    0  0.22342610606E+03  0.28366474673E+03  0.20163187933E+03  0.42140985843E+03  0.80906987453E+02 0.  0.
         24    2    4    4    0    0  0.48623346663E+03 -0.66759865672E+03  0.50000992844E+03  0.96883614750E+03  0.80762625275E+02 0.  0.
         11    1    3    3    0    0 -0.30184585678E+03  0.14069771749E+03  0.62689116609E+03  0.70985865007E+03  0.00000000000E+00 0. -1.
        -11    1    3    3    0    0 -0.40781371591E+03  0.24323619250E+03  0.70019961647E+03  0.84602327104E+03  0.00000000000E+00 0.  1.
          2    1    6    6  502    0  0.91043922611E+02 -0.18045075389E+03  0.13546416565E+03  0.24331463294E+03  0.00000000000E+00 0. -1.
          1    1    5    5  503    0  0.21236216439E+03  0.23657245973E+03  0.15297054989E+03  0.35279485073E+03  0.00000000000E+00 0. -1.
         -2    1    5    5    0  503  0.11063941670E+02  0.47092287001E+02  0.48661329432E+02  0.68615007704E+02  0.00000000000E+00 0.  1.
         -1    1    6    6    0  502  0.39518954402E+03 -0.48714790283E+03  0.36454576279E+03  0.72552151457E+03  0.00000000000E+00 0.  1.
<mgrwt>
<rscale>  0 0.21363319E+04</rscale>
<asrwt>0</asrwt>
<pdfrwt beam="1">  1        2 0.38268157E+00 0.21363319E+04</pdfrwt>
<pdfrwt beam="2">  1       -2 0.70568874E-01 0.21363319E+04</pdfrwt>
<totfact> 0.59414621E+00</totfact>
</mgrwt>
</event>
<event>
12    1  0.1114484E-007  0.1769588E+04  0.7818608E-02  0.8722641E-01
         -1   -1    0    0    0  501 -0.00000000000E+00  0.00000000000E+00  0.73296538327E+03  0.73296538327E+03  0.00000000000E+00 0.  1.
          1   -1    0    0  501    0  0.00000000000E+00 -0.00000000000E+00 -0.10680730958E+04  0.10680730958E+04  0.00000000000E+00 0. -1.
         23    2    1    2    0    0 -0.28168800726E+03  0.57789031697E+03  0.38932533577E-01  0.64906544750E+03  0.89334213718E+02 0.  0.
        254    2    1    2    0    0  0.28168800726E+03 -0.57789031697E+03 -0.33514664502E+03  0.11519730315E+04  0.89521686748E+03 0.  0.
        -24    2    4    4    0    0 -0.15358222642E+03 -0.20543514154E+03  0.22226352659E+03  0.34871982686E+03  0.80083361178E+02 0.  0.
         24    2    4    4    0    0  0.43527023368E+03 -0.37245517543E+03 -0.55741017161E+03  0.80325320467E+03  0.79539784798E+02 0.  0.
         11    1    3    3    0    0 -0.27758845499E+03  0.57187766943E+03 -0.11070715286E+02  0.63578453888E+03  0.00000000000E+00 0.  1.
        -11    1    3    3    0    0 -0.40995522698E+01  0.60126475444E+01  0.11109647820E+02  0.13280908628E+02  0.00000000000E+00 0. -1.
          4    1    6    6  502    0  0.81325097049E+02 -0.67533565517E+02 -0.63108998668E+02  0.12311498526E+03  0.00000000000E+00 0. -1.
          1    1    5    5  503    0 -0.63257289530E+01 -0.46812827891E+02  0.68556781096E+02  0.83255557989E+02  0.00000000000E+00 0. -1.
         -2    1    5    5    0  503 -0.14725649747E+03 -0.15862231365E+03  0.15370674550E+03  0.26546426887E+03  0.00000000000E+00 0.  1.
         -3    1    6    6    0  502  0.35394513663E+03 -0.30492160991E+03 -0.49430117294E+03  0.68013821942E+03  0.00000000000E+00 0.  1.
<mgrwt>
<rscale>  0 0.17695882E+04</rscale>
<asrwt>0</asrwt>
<pdfrwt beam="1">  1        1 0.16431894E+00 0.17695882E+04</pdfrwt>
<pdfrwt beam="2">  1       -1 0.11276391E+00 0.17695882E+04</pdfrwt>
<totfact> 0.91258770E+00</totfact>
</mgrwt>
</event>
<event>
12    1  0.1114484E-007  0.1445744E+04  0.7818608E-02  0.8921357E-01
          2   -1    0    0  501    0  0.00000000000E+00  0.00000000000E+00  0.16220035046E+04  0.16220035046E+04  0.00000000000E+00 0. -1.
         -2   -1    0    0    0  501 -0.00000000000E+00 -0.00000000000E+00 -0.32215947999E+03  0.32215947999E+03  0.00000000000E+00 0.  1.
         23    2    1    2    0    0 -0.15778745785E+03 -0.39294343211E+02 -0.14432109968E+03  0.23473326967E+03  0.88488421931E+02 0.  0.
        254    2    1    2    0    0  0.15778745785E+03  0.39294343211E+02  0.14441651242E+04  0.17094297149E+04  0.90005339663E+03 0.  0.
        -24    2    4    4    0    0  0.81913721348E+02 -0.42369281963E+02 -0.10150512893E+03  0.15774329106E+03  0.77939982539E+02 0.  0.
         24    2    4    4    0    0  0.75873736502E+02  0.81663625174E+02  0.15456702532E+04  0.15516864238E+04  0.78793748190E+02 0.  0.
         13    1    3    3    0    0 -0.93616201787E+02 -0.89590308125E+01 -0.27401271317E+02  0.97954515669E+02  0.00000000000E+00 0. -1.
        -13    1    3    3    0    0 -0.64171256063E+02 -0.30335312398E+02 -0.11691982836E+03  0.13677875400E+03  0.00000000000E+00 0.  1.
          2    1    6    6  502    0  0.61093312018E+02  0.29375270856E+02  0.11859058178E+04  0.11878417015E+04  0.00000000000E+00 0. -1.
          1    1    5    5  503    0  0.11949512197E+01  0.19163675239E+02 -0.17792438156E+02  0.26177188784E+02  0.00000000000E+00 0. -1.
         -2    1    5    5    0  503  0.80718770128E+02 -0.61532957203E+02 -0.83712690771E+02  0.13156610228E+03  0.00000000000E+00 0.  1.
         -3    1    6    6    0  502  0.14780424485E+02  0.52288354318E+02  0.35976443540E+03  0.36384472227E+03  0.00000000000E+00 0.  1.
<mgrwt>
<rscale>  0 0.14457438E+04</rscale>
<asrwt>0</asrwt>
<pdfrwt beam="1">  1        2 0.24953899E+00 0.14457438E+04</pdfrwt>
<pdfrwt beam="2">  1       -2 0.49562998E-01 0.14457438E+04</pdfrwt>
<totfact> 0.40507211E+01</totfact>
</mgrwt>
</event>
<event>
12    1  0.1114484E-007  0.2466888E+04  0.7818608E-02  0.8414878E-01
          1   -1    0    0  501    0  0.00000000000E+00  0.00000000000E+00  0.13382349688E+04  0.13382349688E+04  0.00000000000E+00 0. -1.
         -1   -1    0    0    0  501 -0.00000000000E+00 -0.00000000000E+00 -0.11368591419E+04  0.11368591419E+04  0.00000000000E+00 0.  1.
         23    2    1    2    0    0 -0.49590674485E+02 -0.10158915897E+04  0.17197800999E+03  0.10356873774E+04  0.92611828701E+02 0.  0.
        254    2    1    2    0    0  0.49590674485E+02  0.10158915897E+04  0.29397816897E+02  0.14394067332E+04  0.10181024285E+04 0.  0.
        -24    2    4    4    0    0  0.13667919955E+03 -0.12322239938E+03 -0.18693059294E+03  0.27396198102E+03  0.79038959833E+02 0.  0.
         24    2    4    4    0    0 -0.87088525063E+02  0.11391139891E+04  0.21632840984E+03  0.11654447522E+04  0.79362448010E+02 0.  0.
         11    1    3    3    0    0 -0.30475364817E+02 -0.34740422426E+03  0.10158260830E+03  0.36323197712E+03  0.00000000000E+00 0.  1.
        -11    1    3    3    0    0 -0.19115309668E+02 -0.66848736545E+03  0.70395401693E+02  0.67245540032E+03  0.00000000000E+00 0. -1.
          4    1    6    6  502    0 -0.51708116510E+02  0.10078387215E+04  0.19473387563E+03  0.10277810566E+04  0.00000000000E+00 0. -1.
          3    1    5    5  503    0  0.11005516716E+03 -0.10336045819E+03 -0.18751112121E+03  0.24074040939E+03  0.00000000000E+00 0. -1.
         -4    1    5    5    0  503  0.26624032385E+02 -0.19861941198E+02  0.58052827580E+00  0.33221571631E+02  0.00000000000E+00 0.  1.
         -3    1    6    6    0  502 -0.35380408552E+02  0.13127526755E+03  0.21594534201E+02  0.13766369560E+03  0.00000000000E+00 0.  1.
<mgrwt>
<rscale>  0 0.24668885E+04</rscale>
<asrwt>0</asrwt>
<pdfrwt beam="1">  1        1 0.20588230E+00 0.24668885E+04</pdfrwt>
<pdfrwt beam="2">  1       -1 0.17490141E+00 0.24668885E+04</pdfrwt>
<totfact> 0.17149230E+00</totfact>
</mgrwt>
</event>
<event>
12    1  0.1114484E-007  0.1166241E+04  0.7818608E-02  0.9142930E-01
         -1   -1    0    0    0  501 -0.00000000000E+00  0.00000000000E+00  0.19030028959E+03  0.19030028959E+03  0.00000000000E+00 0. -1.
          1   -1    0    0  501    0  0.00000000000E+00 -0.00000000000E+00 -0.17868041110E+04  0.17868041110E+04  0.00000000000E+00 0.  1.
         23    2    1    2    0    0  0.10437868491E+03 -0.12070234240E+02  0.16390706930E+02  0.13865536977E+03  0.88972219684E+02 0.  0.
        254    2    1    2    0    0 -0.10437868491E+03  0.12070234240E+02 -0.16128945283E+04  0.18384490308E+04  0.87602824096E+03 0.  0.
        -24    2    4    4    0    0 -0.55061930996E+02  0.42058422562E+03 -0.57291457267E+03  0.71716662225E+03  0.78574483195E+02 0.  0.
         24    2    4    4    0    0 -0.49316753913E+02 -0.40851399138E+03 -0.10399799557E+04  0.11212824086E+04  0.80000676250E+02 0.  0.
         13    1    3    3    0    0  0.70336556421E+02  0.17564826375E+02  0.44896636419E+02  0.85272869405E+02  0.00000000000E+00 0. -1.
        -13    1    3    3    0    0  0.34042128488E+02 -0.29635060616E+02 -0.28505929489E+02  0.53382500370E+02  0.00000000000E+00 0.  1.
          2    1    6    6  502    0 -0.49585577874E+02 -0.37603043437E+03 -0.10015505113E+04  0.10709626715E+04  0.00000000000E+00 0. -1.
          1    1    5    5  503    0 -0.62782375496E+02  0.41728891441E+03 -0.55348241644E+03  0.69599888655E+03  0.00000000000E+00 0. -1.
         -2    1    5    5    0  503  0.77204445003E+01  0.32953112087E+01 -0.19432156225E+02  0.21167735703E+02  0.00000000000E+00 0.  1.
         -1    1    6    6    0  502  0.26882396087E+00 -0.32483557010E+02 -0.38429444390E+02  0.50319737066E+02  0.00000000000E+00 0.  1.
<mgrwt>
<rscale>  0 0.11662407E+04</rscale>
<asrwt>0</asrwt>
<pdfrwt beam="1">  1        1 0.27489294E+00 0.11662407E+04</pdfrwt>
<pdfrwt beam="2">  1       -1 0.29276968E-01 0.11662407E+04</pdfrwt>
<totfact> 0.43980985E+01</totfact>
</mgrwt>
</event>
<event>
12    1  0.1114484E-007  0.2454390E+04  0.7818608E-02  0.8419417E-01
          3   -1    0    0  501    0  0.00000000000E+00  0.00000000000E+00  0.31498305902E+04  0.31498305902E+04  0.00000000000E+00 0. -1.
         -3   -1    0    0    0  501 -0.00000000000E+00 -0.00000000000E+00 -0.47812331940E+03  0.47812331940E+03  0.00000000000E+00 0.  1.
         23    2    1    2    0    0 -0.18572549379E+03  0.92880945267E+03  0.45042016452E+03  0.10527877025E+04  0.91118952096E+02 0.  0.
        254    2    1    2    0    0  0.18572549379E+03 -0.92880945267E+03  0.22212871063E+04  0.25751662072E+04  0.89452983600E+03 0.  0.
        -24    2    4    4    0    0  0.25534427971E+03 -0.84603340106E+03  0.96291581798E+03  0.13095519900E+04  0.82136016085E+02 0.  0.
         24    2    4    4    0    0 -0.69618785913E+02 -0.82776051607E+02  0.12583712883E+04  0.12656142172E+04  0.81131974673E+02 0.  0.
         11    1    3    3    0    0 -0.10972140974E+02  0.12764029420E+03  0.92802994340E+02  0.15819237763E+03  0.00000000000E+00 0. -1.
        -11    1    3    3    0    0 -0.17475335282E+03  0.80116915847E+03  0.35761717018E+03  0.89459532483E+03  0.00000000000E+00 0.  1.
          4    1    6    6  502    0 -0.16434727398E+02  0.12107760066E+02  0.37767059692E+03  0.37822186332E+03  0.00000000000E+00 0. -1.
          1    1    5    5  503    0  0.19301400563E+03 -0.62182753574E+03  0.76036778150E+03  0.10010409850E+04  0.00000000000E+00 0. -1.
         -4    1    5    5    0  503  0.62330274076E+02 -0.22420586532E+03  0.20254803648E+03  0.30851100498E+03  0.00000000000E+00 0.  1.
         -3    1    6    6    0  502 -0.53184058515E+02 -0.94883811673E+02  0.88070069141E+03  0.88739235384E+03  0.00000000000E+00 0.  1.
<mgrwt>
<rscale>  0 0.24543899E+04</rscale>
<asrwt>0</asrwt>
<pdfrwt beam="1">  1        3 0.48458931E+00 0.24543899E+04</pdfrwt>
<pdfrwt beam="2">  1       -3 0.73557436E-01 0.24543899E+04</pdfrwt>
<totfact> 0.16694284E-02</totfact>
</mgrwt>
</event>
<event>
12    1  0.1114484E-007  0.1971120E+04  0.7818608E-02  0.8620243E-01
         -1   -1    0    0    0  501 -0.00000000000E+00  0.00000000000E+00  0.77976849510E+03  0.77976849510E+03  0.00000000000E+00 0.  1.
          1   -1    0    0  501    0  0.00000000000E+00 -0.00000000000E+00 -0.12456630948E+04  0.12456630948E+04  0.00000000000E+00 0. -1.
         23    2    1    2    0    0 -0.18075680800E+03 -0.59313859819E+03  0.29549799138E+03  0.69304118893E+03  0.92198732839E+02 0.  0.
        254    2    1    2    0    0  0.18075680800E+03  0.59313859819E+03 -0.76139259107E+03  0.13323904010E+04  0.90058818699E+03 0.  0.
        -24    2    4    4    0    0 -0.20965180945E+03  0.62292979997E+03 -0.31514528431E+03  0.73312551112E+03  0.78492343148E+02 0.  0.
         24    2    4    4    0    0  0.39040861746E+03 -0.29791201776E+02 -0.44624730676E+03  0.59926488985E+03  0.81702785318E+02 0.  0.
         11    1    3    3    0    0 -0.13263419459E+03 -0.27896409043E+03  0.15343159453E+03  0.34489715500E+03  0.00000000000E+00 0.  1.
        -11    1    3    3    0    0 -0.48122613414E+02 -0.31417450776E+03  0.14206639685E+03  0.34814403393E+03  0.00000000000E+00 0. -1.
          2    1    6    6  502    0  0.21878069526E+03  0.18315243303E+02 -0.21490254278E+03  0.30721904832E+03  0.00000000000E+00 0. -1.
          1    1    5    5  503    0 -0.18740304668E+03  0.51561665678E+03 -0.29054444892E+03  0.62080312133E+03  0.00000000000E+00 0. -1.
         -2    1    5    5    0  503 -0.22248762776E+02  0.10731314319E+03 -0.24600835391E+02  0.11232238979E+03  0.00000000000E+00 0.  1.
         -3    1    6    6    0  502  0.17162792220E+03 -0.48106445078E+02 -0.23134476398E+03  0.29204584153E+03  0.00000000000E+00 0.  1.
<mgrwt>
<rscale>  0 0.19711203E+04</rscale>
<asrwt>0</asrwt>
<pdfrwt beam="1">  1        1 0.19164048E+00 0.19711203E+04</pdfrwt>
<pdfrwt beam="2">  1       -1 0.11996438E+00 0.19711203E+04</pdfrwt>
<totfact> 0.57031241E+00</totfact>
</mgrwt>
</event>
<event>
12    1  0.1114484E-007  0.1146920E+04  0.7818608E-02  0.9160630E-01
         -1   -1    0    0    0  501 -0.00000000000E+00  0.00000000000E+00  0.35113788380E+03  0.35113788380E+03  0.00000000000E+00 0.  1.
          1   -1    0    0  501    0  0.00000000000E+00 -0.00000000000E+00 -0.93654484063E+03  0.93654484063E+03  0.00000000000E+00 0. -1.
         23    2    1    2    0    0 -0.13137264806E+03 -0.11342155674E+03 -0.23148316833E+03  0.30323760541E+03  0.90803997293E+02 0.  0.
        254    2    1    2    0    0  0.13137264806E+03  0.11342155674E+03 -0.35392378850E+03  0.98444511902E+03  0.90207922163E+03 0.  0.
        -24    2    4    4    0    0  0.50956544249E+03  0.10529879468E+03 -0.25933814164E+03  0.58673999143E+03  0.79137661662E+02 0.  0.
         24    2    4    4    0    0 -0.37819279442E+03  0.81227620606E+01 -0.94585646862E+02  0.39770512759E+03  0.78276145163E+02 0.  0.
         11    1    3    3    0    0 -0.10599674329E+03 -0.10310039616E+03 -0.23282251536E+03  0.27581030607E+03  0.00000000000E+00 0. -1.
        -11    1    3    3    0    0 -0.25375904771E+02 -0.10321160579E+02  0.13393470308E+01  0.27427299341E+02  0.00000000000E+00 0.  1.
          2    1    6    6  502    0 -0.22639716991E+02  0.16312661498E+02  0.50655724017E+01  0.28360531277E+02  0.00000000000E+00 0. -1.
          3    1    5    5  503    0  0.16419562917E+03  0.12570322918E+02 -0.11624595105E+03  0.20157216770E+03  0.00000000000E+00 0. -1.
         -2    1    5    5    0  503  0.34536981332E+03  0.92728471759E+02 -0.14309219059E+03  0.38516782373E+03  0.00000000000E+00 0.  1.
         -1    1    6    6    0  502 -0.35555307743E+03 -0.81898994372E+01 -0.99651219264E+02  0.36934459631E+03  0.00000000000E+00 0.  1.
<mgrwt>
<rscale>  0 0.11469200E+04</rscale>
<asrwt>0</asrwt>
<pdfrwt beam="1">  1        1 0.14408382E+00 0.11469200E+04</pdfrwt>
<pdfrwt beam="2">  1       -1 0.54021213E-01 0.11469200E+04</pdfrwt>
<totfact> 0.58386751E+01</totfact>
</mgrwt>
</event>
<event>
12    1  0.1114484E-007  0.1910532E+04  0.7818608E-02  0.8649631E-01
         -2   -1    0    0    0  501 -0.00000000000E+00  0.00000000000E+00  0.61817792647E+03  0.61817792647E+03  0.00000000000E+00 0.  1.
          2   -1    0    0  501    0  0.00000000000E+00 -0.00000000000E+00 -0.14761664662E+04  0.14761664662E+04  0.00000000000E+00 0. -1.
         23    2    1    2    0    0 -0.20212286762E+03  0.80947449215E+02  0.46195682806E+03  0.51930094655E+03  0.94144670313E+02 0.  0.
        254    2    1    2    0    0  0.20212286762E+03 -0.80947449215E+02 -0.13199453678E+04  0.15750434461E+04  0.83132420875E+03 0.  0.
        -24    2    4    4    0    0 -0.35741350393E+02  0.31043919457E+03 -0.24873498852E+03  0.40736951981E+03  0.80192851958E+02 0.  0.
         24    2    4    4    0    0  0.23786421802E+03 -0.39138664379E+03 -0.10712103793E+04  0.11676739263E+04  0.78789785876E+02 0.  0.
         13    1    3    3    0    0 -0.21139967372E+03  0.69747327054E+02  0.43633210444E+03  0.48983692903E+03  0.00000000000E+00 0.  1.
        -13    1    3    3    0    0  0.92768060962E+01  0.11200122161E+02  0.25624723627E+02  0.29464017525E+02  0.00000000000E+00 0. -1.
          2    1    6    6  502    0  0.23477646240E+03 -0.39292030794E+03 -0.10399353129E+04  0.11362094044E+04  0.00000000000E+00 0. -1.
          3    1    5    5  503    0 -0.58896714212E+02  0.17309221923E+03 -0.12998496349E+03  0.22433419275E+03  0.00000000000E+00 0. -1.
         -4    1    5    5    0  503  0.23155363819E+02  0.13734697534E+03 -0.11875002503E+03  0.18303532706E+03  0.00000000000E+00 0.  1.
         -1    1    6    6    0  502  0.30877556153E+01  0.15336641518E+01 -0.31275066349E+02  0.31464521856E+02  0.00000000000E+00 0.  1.
<mgrwt>
<rscale>  0 0.19105324E+04</rscale>
<asrwt>0</asrwt>
<pdfrwt beam="1">  1        2 0.22710253E+00 0.19105324E+04</pdfrwt>
<pdfrwt beam="2">  1       -2 0.95104298E-01 0.19105324E+04</pdfrwt>
<totfact> 0.11391962E+01</totfact>
</mgrwt>
</event>
<event>
12    1  0.1114484E-007  0.1388412E+04  0.7818608E-02  0.8962249E-01
          1   -1    0    0  501    0  0.00000000000E+00  0.00000000000E+00  0.16012130784E+04  0.16012130784E+04  0.00000000000E+00 0. -1.
         -1   -1    0    0    0  501 -0.00000000000E+00 -0.00000000000E+00 -0.30097307617E+03  0.30097307617E+03  0.00000000000E+00 0.  1.
         23    2    1    2    0    0  0.33365282314E+03  0.16443234671E+03  0.18917799600E+03  0.42761274843E+03  0.93285290470E+02 0.  0.
        254    2    1    2    0    0 -0.33365282314E+03 -0.16443234671E+03  0.11110620063E+04  0.14745734062E+04  0.89529087196E+03 0.  0.
        -24    2    4    4    0    0 -0.17967389601E+03 -0.48153705329E+03  0.33566450998E+03  0.61923973113E+03  0.81403554952E+02 0.  0.
         24    2    4    4    0    0 -0.15397892712E+03  0.31710470658E+03  0.77539749628E+03  0.85533367504E+03  0.78035334814E+02 0.  0.
         11    1    3    3    0    0  0.62156580039E+02 -0.91979888658E+00  0.53373965551E+02  0.81933306236E+02  0.00000000000E+00 0. -1.
        -11    1    3    3    0    0  0.27149624310E+03  0.16535214560E+03  0.13580403045E+03  0.34567944220E+03  0.00000000000E+00 0.  1.
          2    1    6    6  502    0 -0.41588904121E+01  0.55367179606E+02  0.17246514968E+03  0.18118236338E+03  0.00000000000E+00 0. -1.
          3    1    5    5  503    0 -0.58243792412E+02 -0.70038829534E+02  0.51748616688E+02  0.10476495753E+03  0.00000000000E+00 0. -1.
         -4    1    5    5    0  503 -0.12143010360E+03 -0.41149822376E+03  0.28391589329E+03  0.51447477361E+03  0.00000000000E+00 0.  1.
         -1    1    6    6    0  502 -0.14982003671E+03  0.26173752697E+03  0.60293234661E+03  0.67415131166E+03  0.00000000000E+00 0.  1.
<mgrwt>
<rscale>  0 0.13884121E+04</rscale>
<asrwt>0</asrwt>
<pdfrwt beam="1">  1        1 0.24634047E+00 0.13884121E+04</pdfrwt>
<pdfrwt beam="2">  1       -1 0.46303551E-01 0.13884121E+04</pdfrwt>
<totfact> 0.25231685E+01</totfact>
</mgrwt>
</event>
<event>
12    1  0.1114484E-007  0.1142566E+04  0.7818608E-02  0.9164670E-01
          2   -1    0    0  501    0  0.00000000000E+00  0.00000000000E+00  0.19219194349E+03  0.19219194349E+03  0.00000000000E+00 0. -1.
         -2   -1    0    0    0  501 -0.00000000000E+00 -0.00000000000E+00 -0.16981147987E+04  0.16981147987E+04  0.00000000000E+00 0.  1.
         23    2    1    2    0    0  0.87431353001E+02  0.12174131525E+03 -0.83671217565E+02  0.19365918699E+03  0.89653882971E+02 0.  0.
        254    2    1    2    0    0 -0.87431353001E+02 -0.12174131525E+03 -0.14222516377E+04  0.16966475552E+04  0.91287897141E+03 0.  0.
        -24    2    4    4    0    0 -0.46840752288E+03  0.77389482138E+02 -0.64993194776E+03  0.80878567080E+03  0.79548633737E+02 0.  0.
         24    2    4    4    0    0  0.38097616988E+03 -0.19913079738E+03 -0.77231968993E+03  0.88786188444E+03  0.83815904812E+02 0.  0.
         11    1    3    3    0    0  0.56543068342E+02  0.24402734938E+02 -0.65551414760E+02  0.89942203814E+02  0.00000000000E+00 0.  1.
        -11    1    3    3    0    0  0.30888284658E+02  0.97338580308E+02 -0.18119802806E+02  0.10371698318E+03  0.00000000000E+00 0. -1.
          2    1    6    6  502    0  0.33273669249E+03 -0.17688156934E+03 -0.60937860977E+03  0.71647964810E+03  0.00000000000E+00 0. -1.
          1    1    5    5  503    0 -0.20320712711E+03  0.39098769946E+02 -0.21867899740E+03  0.30106868689E+03  0.00000000000E+00 0. -1.
         -2    1    5    5    0  503 -0.26520039577E+03  0.38290712192E+02 -0.43125295036E+03  0.50771698391E+03  0.00000000000E+00 0.  1.
         -1    1    6    6    0  502  0.48239477395E+02 -0.22249228048E+02 -0.16294108016E+03  0.17138223634E+03  0.00000000000E+00 0.  1.
<mgrwt>
<rscale>  0 0.11425655E+04</rscale>
<asrwt>0</asrwt>
<pdfrwt beam="1">  1        2 0.29567993E-01 0.11425655E+04</pdfrwt>
<pdfrwt beam="2">  1       -2 0.26124842E+00 0.11425655E+04</pdfrwt>
<totfact> 0.98772969E+00</totfact>
</mgrwt>
</event>
<event>
12    1  0.1323893E-007  0.1485601E+04  0.7818608E-02  0.8894085E-01
          1   -1    0    0  501    0  0.00000000000E+00  0.00000000000E+00  0.21083543081E+04  0.21083543081E+04  0.00000000000E+00 0. -1.
         -1   -1    0    0    0  501 -0.00000000000E+00 -0.00000000000E+00 -0.26169823494E+03  0.26169823494E+03  0.00000000000E+00 0.  1.
         23    2    1    2    0    0 -0.15899163883E+03 -0.89249648276E+02  0.12660508897E+04  0.12823995352E+04  0.91759858877E+02 0.  0.
        254    2    1    2    0    0  0.15899163883E+03  0.89249648276E+02  0.58060518350E+03  0.10876530078E+04  0.90146705178E+03 0.  0.
        -24    2    4    4    0    0 -0.21056873871E+03 -0.27294251393E+03  0.80329395885E+02  0.36326292727E+03  0.81672105703E+02 0.  0.
         24    2    4    4    0    0  0.36956037755E+03  0.36219216221E+03  0.50027578761E+03  0.72439008058E+03  0.81896826290E+02 0.  0.
         13    1    3    3    0    0 -0.40426941010E+02 -0.47253395454E+01  0.56073896287E+03  0.56221423930E+03  0.00000000000E+00 0.  1.
        -13    1    3    3    0    0 -0.11856469782E+03 -0.84524308730E+02  0.70531192682E+03  0.72018529591E+03  0.00000000000E+00 0. -1.
          2    1    6    6  502    0  0.33426260343E+03  0.33342449101E+03  0.41906159538E+03  0.63128123683E+03  0.00000000000E+00 0. -1.
          3    1    5    5  503    0 -0.17547292575E+03 -0.22760513418E+03  0.97386836678E+02  0.30344528458E+03  0.00000000000E+00 0. -1.
         -4    1    5    5    0  503 -0.35095812962E+02 -0.45337379746E+02 -0.17057440793E+02  0.59817642683E+02  0.00000000000E+00 0.  1.
         -1    1    6    6    0  502  0.35297774120E+02  0.28767671195E+02  0.81214192236E+02  0.93108843749E+02  0.00000000000E+00 0.  1.
<mgrwt>
<rscale>  0 0.14856010E+04</rscale>
<asrwt>0</asrwt>
<pdfrwt beam="1">  1        1 0.32436219E+00 0.14856010E+04</pdfrwt>
<pdfrwt beam="2">  1       -1 0.40261268E-01 0.14856010E+04</pdfrwt>
<totfact> 0.14676164E+01</totfact>
</mgrwt>
</event>
<event>
12    1  0.1114484E-007  0.1308119E+04  0.7818608E-02  0.9023151E-01
         -1   -1    0    0    0  501 -0.00000000000E+00  0.00000000000E+00  0.25192239140E+03  0.25192239140E+03  0.00000000000E+00 0.  1.
          1   -1    0    0  501    0  0.00000000000E+00 -0.00000000000E+00 -0.16981182698E+04  0.16981182698E+04  0.00000000000E+00 0. -1.
         23    2    1    2    0    0 -0.28570677644E+03 -0.86783178475E+02 -0.61148951470E+03  0.68685117689E+03  0.93195656704E+02 0.  0.
        254    2    1    2    0    0  0.28570677644E+03  0.86783178475E+02 -0.83470636373E+03  0.12631894843E+04  0.89986292151E+03 0.  0.
        -24    2    4    4    0    0  0.15678439845E+03  0.28256004026E+03  0.55985771015E+02  0.33827068303E+03  0.82892246279E+02 0.  0.
         24    2    4    4    0    0  0.12892237799E+03 -0.19577686178E+03 -0.89069213475E+03  0.92491880131E+03  0.84810087600E+02 0.  0.
         13    1    3    3    0    0  0.60494414468E+01 -0.59163351968E+01 -0.31246284810E+02  0.32371732706E+02  0.00000000000E+00 0.  1.
        -13    1    3    3    0    0 -0.29175621789E+03 -0.80866843278E+02 -0.58024322989E+03  0.65447944418E+03  0.00000000000E+00 0. -1.
          4    1    6    6  502    0  0.14098861777E+03 -0.18651762274E+03 -0.84571000866E+03  0.87743491649E+03  0.00000000000E+00 0. -1.
          3    1    5    5  503    0  0.13944860980E+03  0.17095485433E+03  0.39680190281E+02  0.22415618326E+03  0.00000000000E+00 0. -1.
         -4    1    5    5    0  503  0.17335788652E+02  0.11160518593E+03  0.16305580734E+02  0.11411449977E+03  0.00000000000E+00 0.  1.
         -3    1    6    6    0  502 -0.12066239776E+02 -0.92592390437E+01 -0.44982126091E+02  0.47483884821E+02  0.00000000000E+00 0.  1.
<mgrwt>
<rscale>  0 0.13081193E+04</rscale>
<asrwt>0</asrwt>
<pdfrwt beam="1">  1        1 0.26124896E+00 0.13081193E+04</pdfrwt>
<pdfrwt beam="2">  1       -1 0.38757292E-01 0.13081193E+04</pdfrwt>
<totfact> 0.30292978E+01</totfact>
</mgrwt>
</event>
<event>
12    1  0.1114484E-007  0.2121698E+04  0.7818608E-02  0.8551745E-01
          1   -1    0    0  501    0  0.00000000000E+00  0.00000000000E+00  0.99923079795E+03  0.99923079795E+03  0.00000000000E+00 0. -1.
         -1   -1    0    0    0  501 -0.00000000000E+00 -0.00000000000E+00 -0.11262664812E+04  0.11262664812E+04  0.00000000000E+00 0.  1.
         23    2    1    2    0    0 -0.46729591878E+03  0.13930992010E+03  0.61585216568E+03  0.79090416686E+03  0.92102017576E+02 0.  0.
        254    2    1    2    0    0  0.46729591878E+03 -0.13930992010E+03 -0.74288784891E+03  0.13345931123E+04  0.99573274010E+03 0.  0.
        -24    2    4    4    0    0 -0.24777675961E+03 -0.11367959767E+03 -0.49978641483E+03  0.57471163249E+03  0.78680534718E+02 0.  0.
         24    2    4    4    0    0  0.71507267840E+03 -0.25630322433E+02 -0.24310143408E+03  0.75988147977E+03  0.79597155941E+02 0.  0.
         11    1    3    3    0    0 -0.33106556567E+03  0.14116246234E+03  0.45355379798E+03  0.57900112021E+03  0.00000000000E+00 0. -1.
        -11    1    3    3    0    0 -0.13623035312E+03 -0.18525422380E+01  0.16229836770E+03  0.21190304665E+03  0.00000000000E+00 0.  1.
          2    1    6    6  502    0  0.18488528072E+03  0.27405099490E+02 -0.55177795150E+02  0.19487995172E+03  0.00000000000E+00 0. -1.
          3    1    5    5  503    0 -0.21551979350E+02 -0.40330448882E+02 -0.73069999475E+02  0.86198942826E+02  0.00000000000E+00 0. -1.
         -4    1    5    5    0  503 -0.22622478026E+03 -0.73349148786E+02 -0.42671641536E+03  0.48851268967E+03  0.00000000000E+00 0.  1.
         -1    1    6    6    0  502  0.53018739768E+03 -0.53035421923E+02 -0.18792363893E+03  0.56500152806E+03  0.00000000000E+00 0.  1.
<mgrwt>
<rscale>  0 0.21216976E+04</rscale>
<asrwt>0</asrwt>
<pdfrwt beam="1">  1        1 0.15372782E+00 0.21216976E+04</pdfrwt>
<pdfrwt beam="2">  1       -1 0.17327177E+00 0.21216976E+04</pdfrwt>
<totfact> 0.32387402E+00</totfact>
</mgrwt>
</event>
<event>
12    1  0.1114484E-007  0.2768189E+04  0.7818608E-02  0.8313213E-01
         -1   -1    0    0    0  501 -0.00000000000E+00  0.00000000000E+00  0.44559804503E+03  0.44559804503E+03  0.00000000000E+00 0.  1.
          1   -1    0    0  501    0  0.00000000000E+00 -0.00000000000E+00 -0.42992043219E+04  0.42992043219E+04  0.00000000000E+00 0. -1.
         23    2    1    2    0    0 -0.22290109193E+02  0.56684196386E+03 -0.35958507003E+04  0.36414305303E+04  0.89818634609E+02 0.  0.
        254    2    1    2    0    0  0.22290109193E+02 -0.56684196386E+03 -0.25775557652E+03  0.11033718366E+04  0.91059585524E+03 0.  0.
        -24    2    4    4    0    0 -0.31727078547E+03  0.74497798995E+02 -0.21616506093E+02  0.33610612057E+03  0.79305596185E+02 0.  0.
         24    2    4    4    0    0  0.33956089466E+03 -0.64133976286E+03 -0.23613907043E+03  0.76726571601E+03  0.79477831983E+02 0.  0.
         11    1    3    3    0    0  0.34826203004E+02  0.20785557773E+03 -0.12884328192E+04  0.13055557955E+04  0.00000000000E+00 0.  1.
        -11    1    3    3    0    0 -0.57116312197E+02  0.35898638613E+03 -0.23074178812E+04  0.23358747349E+04  0.00000000000E+00 0. -1.
          2    1    6    6  502    0 -0.11323838106E+01 -0.17170047873E+02  0.20671935178E+01  0.17331074002E+02  0.00000000000E+00 0. -1.
          3    1    5    5  503    0 -0.11779203761E+03 -0.94759645572E+01 -0.18771124876E+02  0.11965413974E+03  0.00000000000E+00 0. -1.
         -4    1    5    5    0  503 -0.19947874786E+03  0.83973763552E+02 -0.28453812176E+01  0.21645198083E+03  0.00000000000E+00 0.  1.
         -1    1    6    6    0  502  0.34069327847E+03 -0.62416971498E+03 -0.23820626394E+03  0.74993464201E+03  0.00000000000E+00 0.  1.
<mgrwt>
<rscale>  0 0.27681886E+04</rscale>
<asrwt>0</asrwt>
<pdfrwt beam="1">  1        1 0.66141607E+00 0.27681886E+04</pdfrwt>
<pdfrwt beam="2">  1       -1 0.68553544E-01 0.27681886E+04</pdfrwt>
<totfact> 0.95400176E-02</totfact>
</mgrwt>
</event>
<event>
12    1  0.1114484E-007  0.1299201E+04  0.7818608E-02  0.9030199E-01
          2   -1    0    0  501    0  0.00000000000E+00  0.00000000000E+00  0.11344454449E+04  0.11344454449E+04  0.00000000000E+00 0. -1.
         -2   -1    0    0    0  501 -0.00000000000E+00 -0.00000000000E+00 -0.37197122026E+03  0.37197122026E+03  0.00000000000E+00 0.  1.
         23    2    1    2    0    0  0.23827671752E+03  0.12486119705E+03 -0.19367656788E+02  0.28485454150E+03  0.91656374790E+02 0.  0.
        254    2    1    2    0    0 -0.23827671752E+03 -0.12486119705E+03  0.78184188141E+03  0.12215621236E+04  0.89920586173E+03 0.  0.
        -24    2    4    4    0    0 -0.57388229825E+02 -0.14394452283E+01  0.93667154558E+03  0.94177449454E+03  0.79310360846E+02 0.  0.
         24    2    4    4    0    0 -0.18088848770E+03 -0.12342175183E+03 -0.15482966417E+03  0.27978762911E+03  0.79720252680E+02 0.  0.
         11    1    3    3    0    0  0.15009703499E+02  0.18415346893E+02  0.23963447731E+02  0.33744081369E+02  0.00000000000E+00 0. -1.
        -11    1    3    3    0    0  0.22326701402E+03  0.10644585016E+03 -0.43331104518E+02  0.25111046013E+03  0.00000000000E+00 0.  1.
          2    1    6    6  502    0 -0.15842679386E+03 -0.93765556156E+02 -0.15779521399E+03  0.24246723097E+03  0.00000000000E+00 0. -1.
          1    1    5    5  503    0 -0.27809745627E+02 -0.37299703515E+02  0.61555845518E+03  0.61731423244E+03  0.00000000000E+00 0. -1.
         -2    1    5    5    0  503 -0.29578484198E+02  0.35860258287E+02  0.32111309041E+03  0.32446026210E+03  0.00000000000E+00 0.  1.
         -1    1    6    6    0  502 -0.22461693834E+02 -0.29656195671E+02  0.29655498153E+01  0.37320398139E+02  0.00000000000E+00 0.  1.
<mgrwt>
<rscale>  0 0.12992014E+04</rscale>
<asrwt>0</asrwt>
<pdfrwt beam="1">  1        2 0.17453007E+00 0.12992014E+04</pdfrwt>
<pdfrwt beam="2">  1       -2 0.57226342E-01 0.12992014E+04</pdfrwt>
<totfact> 0.58201926E+01</totfact>
</mgrwt>
</event>
<event>
12    1  0.1114484E-007  0.1467858E+04  0.7818608E-02  0.8906113E-01
         -2   -1    0    0    0  501 -0.00000000000E+00  0.00000000000E+00  0.67958632170E+03  0.67958632170E+03  0.00000000000E+00 0.  1.
          2   -1    0    0  501    0  0.00000000000E+00 -0.00000000000E+00 -0.79261692667E+03  0.79261692667E+03  0.00000000000E+00 0. -1.
         23    2    1    2    0    0  0.22442753375E+03  0.34316510767E+03  0.13354490317E+03  0.44184013187E+03  0.96220849817E+02 0.  0.
        254    2    1    2    0    0 -0.22442753375E+03 -0.34316510767E+03 -0.24657550814E+03  0.10303631165E+04  0.91253419750E+03 0.  0.
        -24    2    4    4    0    0 -0.77768128304E+02 -0.53319179041E+03  0.14547873574E+03  0.56383201043E+03  0.80006914055E+02 0.  0.
         24    2    4    4    0    0 -0.14665940545E+03  0.19002668274E+03 -0.39205424388E+03  0.46653110607E+03  0.79533775387E+02 0.  0.
         13    1    3    3    0    0  0.16707949225E+03  0.31190431045E+03  0.96533924934E+02  0.36676784792E+03  0.00000000000E+00 0.  1.
        -13    1    3    3    0    0  0.57348041499E+02  0.31260797223E+02  0.37010978240E+02  0.75072283947E+02  0.00000000000E+00 0. -1.
          4    1    6    6  502    0 -0.10679077164E+03  0.90202865541E+02 -0.17211866951E+03  0.22173331336E+03  0.00000000000E+00 0. -1.
          1    1    5    5  503    0 -0.15590729833E+02 -0.35709052076E+03  0.10758134621E+03  0.37326995181E+03  0.00000000000E+00 0. -1.
         -2    1    5    5    0  503 -0.62177398471E+02 -0.17610126965E+03  0.37897389534E+02  0.19056205862E+03  0.00000000000E+00 0.  1.
         -3    1    6    6    0  502 -0.39868633803E+02  0.99823817197E+02 -0.21993557438E+03  0.24479779271E+03  0.00000000000E+00 0.  1.
<mgrwt>
<rscale>  0 0.14678578E+04</rscale>
<asrwt>0</asrwt>
<pdfrwt beam="1">  1        2 0.12194107E+00 0.14678578E+04</pdfrwt>
<pdfrwt beam="2">  1       -2 0.10455174E+00 0.14678578E+04</pdfrwt>
<totfact> 0.25088284E+01</totfact>
</mgrwt>
</event>
<event>
12    1  0.1114484E-007  0.2716656E+04  0.7818608E-02  0.8329621E-01
         -1   -1    0    0    0  501 -0.00000000000E+00  0.00000000000E+00  0.73914055218E+03  0.73914055218E+03  0.00000000000E+00 0.  1.
          1   -1    0    0  501    0  0.00000000000E+00 -0.00000000000E+00 -0.24962169716E+04  0.24962169716E+04  0.00000000000E+00 0. -1.
         23    2    1    2    0    0  0.41525610281E+03 -0.45166635921E+03  0.45425456916E+03  0.76876140574E+03  0.90591138585E+02 0.  0.
        254    2    1    2    0    0 -0.41525610281E+03  0.45166635921E+03 -0.22113309885E+04  0.24665961180E+04  0.90425192144E+03 0.  0.
        -24    2    4    4    0    0 -0.69877971104E+02  0.32864812570E+03 -0.20143220639E+04  0.20436370740E+04  0.77888329960E+02 0.  0.
         24    2    4    4    0    0 -0.34537813171E+03  0.12301823351E+03 -0.19700892465E+03  0.42295904395E+03  0.75248234738E+02 0.  0.
         11    1    3    3    0    0  0.93928580990E+02 -0.12992371390E+03  0.16375612175E+03  0.22916984351E+03  0.00000000000E+00 0. -1.
        -11    1    3    3    0    0  0.32132752182E+03 -0.32174264531E+03  0.29049844741E+03  0.53959156224E+03  0.00000000000E+00 0.  1.
          4    1    6    6  502    0 -0.23377167380E+03  0.11389117351E+03 -0.11593970449E+03  0.28471461141E+03  0.00000000000E+00 0. -1.
          3    1    5    5  503    0 -0.72177039030E+02  0.22528413842E+03 -0.12313276212E+04  0.12538461543E+04  0.00000000000E+00 0. -1.
         -4    1    5    5    0  503  0.22990679258E+01  0.10336398728E+03 -0.78299444269E+03  0.78979091971E+03  0.00000000000E+00 0.  1.
         -3    1    6    6    0  502 -0.11160645791E+03  0.91270600042E+01 -0.81069220163E+02  0.13824443254E+03  0.00000000000E+00 0.  1.
<mgrwt>
<rscale>  0 0.27166562E+04</rscale>
<asrwt>0</asrwt>
<pdfrwt beam="1">  1        1 0.38403338E+00 0.27166562E+04</pdfrwt>
<pdfrwt beam="2">  1       -1 0.11371393E+00 0.27166562E+04</pdfrwt>
<totfact> 0.83764281E-01</totfact>
</mgrwt>
</event>
<event>
12    1  0.1114484E-007  0.2554128E+04  0.7818608E-02  0.8383952E-01
          1   -1    0    0  501    0  0.00000000000E+00  0.00000000000E+00  0.20262116377E+04  0.20262116377E+04  0.00000000000E+00 0. -1.
         -1   -1    0    0    0  501 -0.00000000000E+00 -0.00000000000E+00 -0.80489763065E+03  0.80489763065E+03  0.00000000000E+00 0.  1.
         23    2    1    2    0    0 -0.17822676825E+03  0.95025278831E+03  0.11531423311E+04  0.15075548719E+04  0.90770663647E+02 0.  0.
        254    2    1    2    0    0  0.17822676825E+03 -0.95025278831E+03  0.68171675986E+02  0.13235543965E+04  0.90133441101E+03 0.  0.
        -24    2    4    4    0    0  0.94510935529E+02 -0.49242454067E+03  0.47936600862E+03  0.69817772776E+03  0.79032424559E+02 0.  0.
         24    2    4    4    0    0  0.83715832718E+02 -0.45782824764E+03 -0.41119433263E+03  0.62537666874E+03  0.73485737589E+02 0.  0.
         11    1    3    3    0    0 -0.13722102260E+03  0.55544620496E+03  0.72792979731E+03  0.92586817931E+03  0.00000000000E+00 0. -1.
        -11    1    3    3    0    0 -0.41005745643E+02  0.39480658335E+03  0.42521253377E+03  0.58168669257E+03  0.00000000000E+00 0.  1.
          4    1    6    6  502    0  0.15893642166E+02 -0.16106008729E+02 -0.32524595589E+02  0.39621467624E+02  0.00000000000E+00 0. -1.
          3    1    5    5  503    0  0.12229019711E+02 -0.24814698858E+03  0.26112088188E+03  0.36043111938E+03  0.00000000000E+00 0. -1.
         -4    1    5    5    0  503  0.82281915817E+02 -0.24427755209E+03  0.21824512674E+03  0.33774660838E+03  0.00000000000E+00 0.  1.
         -3    1    6    6    0  502  0.67822190552E+02 -0.44172223891E+03 -0.37866973704E+03  0.58575520112E+03  0.00000000000E+00 0.  1.
<mgrwt>
<rscale>  0 0.25541284E+04</rscale>
<asrwt>0</asrwt>
<pdfrwt beam="1">  1        1 0.31172487E+00 0.25541284E+04</pdfrwt>
<pdfrwt beam="2">  1       -1 0.12383040E+00 0.25541284E+04</pdfrwt>
<totfact> 0.14486809E+00</totfact>
</mgrwt>
</event>
<event>
12    1  0.1114484E-007  0.1694134E+04  0.7818608E-02  0.8764717E-01
          2   -1    0    0  501    0  0.00000000000E+00  0.00000000000E+00  0.18575857215E+04  0.18575857215E+04  0.00000000000E+00 0. -1.
         -2   -1    0    0    0  501 -0.00000000000E+00 -0.00000000000E+00 -0.38626614826E+03  0.38626614826E+03  0.00000000000E+00 0.  1.
         23    2    1    2    0    0 -0.55539702576E+03  0.13260154490E+03  0.79216297454E+03  0.98079599014E+03  0.91594596515E+02 0.  0.
        254    2    1    2    0    0  0.55539702576E+03 -0.13260154490E+03  0.67915659869E+03  0.12630558796E+04  0.89889234259E+03 0.  0.
        -24    2    4    4    0    0  0.41507418485E+03  0.34138167137E+03  0.47174384862E+03  0.71965378552E+03  0.80816383361E+02 0.  0.
         24    2    4    4    0    0  0.14032284091E+03 -0.47398321627E+03  0.20741275007E+03  0.54340209410E+03  0.88967398498E+02 0.  0.
         11    1    3    3    0    0 -0.38468260882E+03  0.56598027529E+02  0.49013357397E+03  0.62563165407E+03  0.00000000000E+00 0. -1.
        -11    1    3    3    0    0 -0.17071441694E+03  0.76003517368E+02  0.30202940057E+03  0.35516433607E+03  0.00000000000E+00 0.  1.
          2    1    6    6  502    0  0.67928321248E+02 -0.28804957032E+03  0.79682181148E+02  0.30648990486E+03  0.00000000000E+00 0. -1.
          1    1    5    5  503    0  0.27134306347E+03  0.26594026742E+03  0.35206837355E+03  0.51798013822E+03  0.00000000000E+00 0. -1.
         -2    1    5    5    0  503  0.14373112138E+03  0.75441403950E+02  0.11967547507E+03  0.20167364730E+03  0.00000000000E+00 0.  1.
         -1    1    6    6    0  502  0.72394519660E+02 -0.18593364595E+03  0.12773056893E+03  0.23691218924E+03  0.00000000000E+00 0.  1.
<mgrwt>
<rscale>  0 0.16941340E+04</rscale>
<asrwt>0</asrwt>
<pdfrwt beam="1">  1        2 0.28578241E+00 0.16941340E+04</pdfrwt>
<pdfrwt beam="2">  1       -2 0.59425562E-01 0.16941340E+04</pdfrwt>
<totfact> 0.20170663E+01</totfact>
</mgrwt>
</event>
<event>
12    1  0.1114484E-007  0.1701718E+04  0.7818608E-02  0.8760385E-01
         -2   -1    0    0    0  501 -0.00000000000E+00  0.00000000000E+00  0.36565872764E+03  0.36565872764E+03  0.00000000000E+00 0.  1.
          2   -1    0    0  501    0  0.00000000000E+00 -0.00000000000E+00 -0.19798818382E+04  0.19798818382E+04  0.00000000000E+00 0. -1.
         23    2    1    2    0    0  0.26201905330E+03 -0.49361281540E+03 -0.90168956989E+03  0.10649281080E+04  0.93382005662E+02 0.  0.
        254    2    1    2    0    0 -0.26201905330E+03  0.49361281540E+03 -0.71253354070E+03  0.12806124578E+04  0.90551456352E+03 0.  0.
        -24    2    4    4    0    0  0.18978687326E+03  0.28796846650E+03  0.59240115077E+02  0.35943453174E+03  0.82090781515E+02 0.  0.
         24    2    4    4    0    0 -0.45180592656E+03  0.20564434890E+03 -0.77177365577E+03  0.92117792610E+03  0.80721758450E+02 0.  0.
         13    1    3    3    0    0  0.20327593263E+03 -0.29112909054E+03 -0.54013243994E+03  0.64639021096E+03  0.00000000000E+00 0. -1.
        -13    1    3    3    0    0  0.58743120667E+02 -0.20248372486E+03 -0.36155712995E+03  0.41853789706E+03  0.00000000000E+00 0.  1.
          4    1    6    6  502    0 -0.13720471290E+03  0.61434590830E+02 -0.16956273934E+03  0.22660729195E+03  0.00000000000E+00 0. -1.
          3    1    5    5  503    0  0.13891509636E+03  0.14742843870E+03  0.55049871366E+02  0.20991197410E+03  0.00000000000E+00 0. -1.
         -2    1    5    5    0  503  0.50871776901E+02  0.14054002780E+03  0.41902437115E+01  0.14952255764E+03  0.00000000000E+00 0.  1.
         -3    1    6    6    0  502 -0.31460121366E+03  0.14420975807E+03 -0.60221091643E+03  0.69457063416E+03  0.00000000000E+00 0.  1.
<mgrwt>
<rscale>  0 0.17017180E+04</rscale>
<asrwt>0</asrwt>
<pdfrwt beam="1">  1        2 0.30459721E+00 0.17017180E+04</pdfrwt>
<pdfrwt beam="2">  1       -2 0.56255188E-01 0.17017180E+04</pdfrwt>
<totfact> 0.19347579E+01</totfact>
</mgrwt>
</event>
<event>
12    1  0.1114484E-007  0.1445474E+04  0.7818608E-02  0.8921544E-01
          2   -1    0    0  501    0  0.00000000000E+00  0.00000000000E+00  0.10682955184E+04  0.10682955184E+04  0.00000000000E+00 0.  1.
         -2   -1    0    0    0  501 -0.00000000000E+00 -0.00000000000E+00 -0.48895552165E+03  0.48895552165E+03  0.00000000000E+00 0. -1.
         23    2    1    2    0    0 -0.13056845544E+03 -0.21155315777E+03 -0.20872475458E+03  0.33683493310E+03  0.89938250283E+02 0.  0.
        254    2    1    2    0    0  0.13056845544E+03  0.21155315777E+03  0.78806475134E+03  0.12204161069E+04  0.89809050862E+03 0.  0.
        -24    2    4    4    0    0  0.25376813833E+03 -0.27983906013E+03  0.49953409806E+03  0.63132036686E+03  0.79516808769E+02 0.  0.
         24    2    4    4    0    0 -0.12319968289E+03  0.49139221790E+03  0.28853065327E+03  0.58909574009E+03  0.84494848557E+02 0.  0.
         11    1    3    3    0    0 -0.88913277321E+02 -0.14004513863E+03 -0.80904760999E+02  0.18456378867E+03  0.00000000000E+00 0.  1.
        -11    1    3    3    0    0 -0.41655178119E+02 -0.71508019143E+02 -0.12781999359E+03  0.15227114443E+03  0.00000000000E+00 0. -1.
          4    1    6    6  502    0 -0.83140245648E+01  0.83198996765E+01 -0.44300694204E+01  0.12568581868E+02  0.00000000000E+00 0. -1.
          3    1    5    5  503    0  0.76504804333E+01 -0.44304567865E+02  0.49158868942E+02  0.66618458254E+02  0.00000000000E+00 0. -1.
         -4    1    5    5    0  503  0.24611765790E+03 -0.23553449226E+03  0.45037522912E+03  0.56470190860E+03  0.00000000000E+00 0.  1.
         -1    1    6    6    0  502 -0.11488565833E+03  0.48307231822E+03  0.29296072270E+03  0.57652715822E+03  0.00000000000E+00 0.  1.
<mgrwt>
<rscale>  0 0.14454743E+04</rscale>
<asrwt>0</asrwt>
<pdfrwt beam="1">  1        2 0.16435316E+00 0.14454743E+04</pdfrwt>
<pdfrwt beam="2">  1       -2 0.75223927E-01 0.14454743E+04</pdfrwt>
<totfact> 0.35089022E+01</totfact>
</mgrwt>
</event>
<event>
12    1  0.1114484E-007  0.1848614E+04  0.7818608E-02  0.8680866E-01
          2   -1    0    0  501    0  0.00000000000E+00  0.00000000000E+00  0.22292271112E+04  0.22292271112E+04  0.00000000000E+00 0. -1.
         -2   -1    0    0    0  501 -0.00000000000E+00 -0.00000000000E+00 -0.38324639831E+03  0.38324639831E+03  0.00000000000E+00 0.  1.
         23    2    1    2    0    0  0.38699456933E+03  0.47189065181E+03  0.21677398410E+03  0.65372614701E+03  0.89001860343E+02 0.  0.
        254    2    1    2    0    0 -0.38699456933E+03 -0.47189065181E+03  0.16292067288E+04  0.19587473625E+04  0.89996171089E+03 0.  0.
        -24    2    4    4    0    0  0.19791034625E+03 -0.28866407508E+02  0.59895421339E+02  0.22451892821E+03  0.82580342650E+02 0.  0.
         24    2    4    4    0    0 -0.58490491558E+03 -0.44302424430E+03  0.15693113075E+04  0.17342284343E+04  0.80162593036E+02 0.  0.
         13    1    3    3    0    0  0.13744285837E+02 -0.11076228460E+01  0.85810808374E+01  0.16240910377E+02  0.00000000000E+00 0. -1.
        -13    1    3    3    0    0  0.37325028349E+03  0.47299827465E+03  0.20819290326E+03  0.63748523663E+03  0.00000000000E+00 0.  1.
          2    1    6    6  502    0 -0.42380430918E+03 -0.35286431260E+03  0.11178791504E+04  0.12465059609E+04  0.00000000000E+00 0. -1.
          3    1    5    5  503    0  0.14844497862E+03 -0.48186986405E+02  0.18452850186E+02  0.15715726205E+03  0.00000000000E+00 0. -1.
         -4    1    5    5    0  503  0.49465367634E+02  0.19320578897E+02  0.41442571153E+02  0.67361666160E+02  0.00000000000E+00 0.  1.
         -1    1    6    6    0  502 -0.16110060641E+03 -0.90159931702E+02  0.45143215702E+03  0.48772247341E+03  0.00000000000E+00 0.  1.
<mgrwt>
<rscale>  0 0.18486138E+04</rscale>
<asrwt>0</asrwt>
<pdfrwt beam="1">  1        2 0.34295801E+00 0.18486138E+04</pdfrwt>
<pdfrwt beam="2">  1       -2 0.58960986E-01 0.18486138E+04</pdfrwt>
<totfact> 0.12567526E+01</totfact>
</mgrwt>
</event>
<event>
12    1  0.1114484E-007  0.1421244E+04  0.7818608E-02  0.8938583E-01
          2   -1    0    0  501    0  0.00000000000E+00  0.00000000000E+00  0.10814849929E+04  0.10814849929E+04  0.00000000000E+00 0. -1.
         -2   -1    0    0    0  501 -0.00000000000E+00 -0.00000000000E+00 -0.46693528695E+03  0.46693528695E+03  0.00000000000E+00 0.  1.
         23    2    1    2    0    0  0.20510155181E+03 -0.31516296580E+03  0.36362082621E+03  0.53122347671E+03  0.92649529857E+02 0.  0.
        254    2    1    2    0    0 -0.20510155181E+03  0.31516296580E+03  0.25092887979E+03  0.10171968032E+04  0.91122428202E+03 0.  0.
        -24    2    4    4    0    0 -0.26808370333E+02  0.61721806426E+03  0.12033641396E+03  0.63419683921E+03  0.77768571859E+02 0.  0.
         24    2    4    4    0    0 -0.17829318148E+03 -0.30205509846E+03  0.13059246583E+03  0.38299996398E+03  0.81294767413E+02 0.  0.
         11    1    3    3    0    0  0.16017584967E+03 -0.16279663692E+03  0.21092853314E+03  0.31088566049E+03  0.00000000000E+00 0. -1.
        -11    1    3    3    0    0  0.44925702143E+02 -0.15236632888E+03  0.15269229308E+03  0.22033781622E+03  0.00000000000E+00 0.  1.
          2    1    6    6  502    0 -0.13472261260E+03 -0.19223989908E+03  0.12196906037E+03  0.26454264842E+03  0.00000000000E+00 0. -1.
          1    1    5    5  503    0 -0.91745754327E+01  0.51070867799E+03  0.71740562877E+02  0.51580445420E+03  0.00000000000E+00 0. -1.
         -2    1    5    5    0  503 -0.17633794900E+02  0.10650938627E+03  0.48595851081E+02  0.11839238501E+03  0.00000000000E+00 0.  1.
         -1    1    6    6    0  502 -0.43570568875E+02 -0.10981519939E+03  0.86234054534E+01  0.11845731556E+03  0.00000000000E+00 0.  1.
<mgrwt>
<rscale>  0 0.14212438E+04</rscale>
<asrwt>0</asrwt>
<pdfrwt beam="1">  1        2 0.16638231E+00 0.14212438E+04</pdfrwt>
<pdfrwt beam="2">  1       -2 0.71836198E-01 0.14212438E+04</pdfrwt>
<totfact> 0.38187982E+01</totfact>
</mgrwt>
</event>
<event>
12    1  0.1658990E-007  0.2710780E+04  0.7818608E-02  0.8331516E-01
          1   -1    0    0  501    0  0.00000000000E+00  0.00000000000E+00  0.19150877114E+04  0.19150877114E+04  0.00000000000E+00 0. -1.
         -1   -1    0    0    0  501 -0.00000000000E+00 -0.00000000000E+00 -0.95926777601E+03  0.95926777601E+03  0.00000000000E+00 0.  1.
         23    2    1    2    0    0  0.59317833993E+03  0.60362832702E+02 -0.68294059704E+03  0.91135491236E+03  0.93036028857E+02 0.  0.
        254    2    1    2    0    0 -0.59317833993E+03 -0.60362832702E+02  0.16387605324E+04  0.19630005750E+04  0.90129404769E+03 0.  0.
        -24    2    4    4    0    0 -0.81874754772E+03 -0.10487739358E+03  0.13632742952E+04  0.15955855777E+04  0.77651253585E+02 0.  0.
         24    2    4    4    0    0  0.22556920778E+03  0.44514560879E+02  0.27548623722E+03  0.36741499735E+03  0.78981641818E+02 0.  0.
         13    1    3    3    0    0  0.50146228800E+03  0.63426643140E+02 -0.52558832784E+03  0.72919850227E+03  0.00000000000E+00 0.  1.
        -13    1    3    3    0    0  0.91716051930E+02 -0.30638104375E+01 -0.15735226920E+03  0.18215641010E+03  0.00000000000E+00 0. -1.
          2    1    6    6  502    0  0.49976020731E+02 -0.22117981819E+02  0.51309177380E+02  0.74962920509E+02  0.00000000000E+00 0. -1.
          1    1    5    5  503    0 -0.34161213734E+02  0.94672311534E+01  0.45609870560E+02  0.57765710262E+02  0.00000000000E+00 0. -1.
         -2    1    5    5    0  503 -0.78458633398E+03 -0.11434462473E+03  0.13176644246E+04  0.15378198674E+04  0.00000000000E+00 0.  1.
         -3    1    6    6    0  502  0.17559318705E+03  0.66632542698E+02  0.22417705984E+03  0.29245207684E+03  0.00000000000E+00 0.  1.
<mgrwt>
<rscale>  0 0.27107799E+04</rscale>
<asrwt>0</asrwt>
<pdfrwt beam="1">  1        1 0.29462888E+00 0.27107799E+04</pdfrwt>
<pdfrwt beam="2">  1       -1 0.14757966E+00 0.27107799E+04</pdfrwt>
<totfact> 0.10819663E+00</totfact>
</mgrwt>
</event>
<event>
12    1  0.1114484E-007  0.1732012E+04  0.7818608E-02  0.8743315E-01
         -2   -1    0    0    0  501 -0.00000000000E+00  0.00000000000E+00  0.84804116694E+03  0.84804116694E+03  0.00000000000E+00 0.  1.
          2   -1    0    0  501    0  0.00000000000E+00 -0.00000000000E+00 -0.88435125938E+03  0.88435125938E+03  0.00000000000E+00 0. -1.
         23    2    1    2    0    0  0.43632098801E+03 -0.17529575519E+03 -0.42643215629E+03  0.64090203105E+03  0.88353964952E+02 0.  0.
        254    2    1    2    0    0 -0.43632098801E+03  0.17529575519E+03  0.39012206384E+03  0.10914903953E+04  0.90446196819E+03 0.  0.
        -24    2    4    4    0    0 -0.35173999855E+03  0.55487595899E+02  0.67173119534E+03  0.76452364002E+03  0.80459290787E+02 0.  0.
         24    2    4    4    0    0 -0.84580989465E+02  0.11980815929E+03 -0.28160913150E+03  0.32696675525E+03  0.78074434256E+02 0.  0.
         13    1    3    3    0    0  0.34641279325E+03 -0.16495884418E+03 -0.37643382356E+03  0.53750876004E+03  0.00000000000E+00 0. -1.
        -13    1    3    3    0    0  0.89908194764E+02 -0.10336911010E+02 -0.49998332725E+02  0.10339327101E+03  0.00000000000E+00 0.  1.
          4    1    6    6  502    0  0.13569660288E+02  0.54986123066E+01 -0.16700918823E+02  0.22210157748E+02  0.00000000000E+00 0. -1.
          3    1    5    5  503    0 -0.11838253249E+01  0.11727459198E+02  0.21183973573E+02  0.24242431354E+02  0.00000000000E+00 0. -1.
         -4    1    5    5    0  503 -0.35055617322E+03  0.43760136701E+02  0.65054722177E+03  0.74028120866E+03  0.00000000000E+00 0.  1.
         -3    1    6    6    0  502 -0.98150649754E+02  0.11430954698E+03 -0.26490821267E+03  0.30475659750E+03  0.00000000000E+00 0.  1.
<mgrwt>
<rscale>  0 0.17320119E+04</rscale>
<asrwt>0</asrwt>
<pdfrwt beam="1">  1        2 0.13605404E+00 0.17320119E+04</pdfrwt>
<pdfrwt beam="2">  1       -2 0.13046787E+00 0.17320119E+04</pdfrwt>
<totfact> 0.12273597E+01</totfact>
</mgrwt>
</event>
<event>
12    1  0.1114484E-007  0.1316866E+04  0.7818608E-02  0.9016296E-01
         -2   -1    0    0    0  501 -0.00000000000E+00  0.00000000000E+00  0.50195124769E+03  0.50195124769E+03  0.00000000000E+00 0.  1.
          2   -1    0    0  501    0  0.00000000000E+00 -0.00000000000E+00 -0.86369692783E+03  0.86369692783E+03  0.00000000000E+00 0. -1.
         23    2    1    2    0    0 -0.78664538931E+01 -0.32592749367E+03 -0.17984840630E+02  0.34140086434E+03  0.99701973142E+02 0.  0.
        254    2    1    2    0    0  0.78664538931E+01  0.32592749367E+03 -0.34376083951E+03  0.10242473112E+04  0.90808613438E+03 0.  0.
        -24    2    4    4    0    0 -0.36825239147E+03 -0.76952326331E+02 -0.31639655030E+02  0.38574584695E+03  0.79166320593E+02 0.  0.
         24    2    4    4    0    0  0.37611884536E+03  0.40287982000E+03 -0.31212118448E+03  0.63850146424E+03  0.80541609271E+02 0.  0.
         11    1    3    3    0    0  0.21276810433E+01 -0.27754184317E+03  0.21175403833E+02  0.27835660485E+03  0.00000000000E+00 0.  1.
        -11    1    3    3    0    0 -0.99941349364E+01 -0.48385650507E+02 -0.39160244463E+02  0.63044259489E+02  0.00000000000E+00 0. -1.
          2    1    6    6  502    0  0.31296440326E+03  0.28702818605E+03 -0.22756921019E+03  0.48178796448E+03  0.00000000000E+00 0. -1.
          3    1    5    5  503    0 -0.30816034709E+03 -0.32949293477E+02 -0.27938391994E+02  0.31117359979E+03  0.00000000000E+00 0. -1.
         -4    1    5    5    0  503 -0.60092044379E+02 -0.44003032853E+02 -0.37012630358E+01  0.74572247157E+02  0.00000000000E+00 0.  1.
         -1    1    6    6    0  502  0.63154442101E+02  0.11585163396E+03 -0.84551974297E+02  0.15671349975E+03  0.00000000000E+00 0.  1.
<mgrwt>
<rscale>  0 0.13168656E+04</rscale>
<asrwt>0</asrwt>
<pdfrwt beam="1">  1        2 0.13287645E+00 0.13168656E+04</pdfrwt>
<pdfrwt beam="2">  1       -2 0.77223270E-01 0.13168656E+04</pdfrwt>
<totfact> 0.45501394E+01</totfact>
</mgrwt>
</event>
<event>
12    1  0.1114484E-007  0.1978768E+04  0.7818608E-02  0.8616612E-01
          2   -1    0    0  501    0  0.00000000000E+00  0.00000000000E+00  0.38064048138E+04  0.38064048138E+04  0.00000000000E+00 0. -1.
         -2   -1    0    0    0  501 -0.00000000000E+00 -0.00000000000E+00 -0.25716682660E+03  0.25716682660E+03  0.00000000000E+00 0.  1.
         23    2    1    2    0    0  0.70406395910E+03  0.26622272398E+03  0.17914653636E+04  0.19453974078E+04  0.92964121256E+02 0.  0.
        254    2    1    2    0    0 -0.70406395910E+03 -0.26622272398E+03  0.17577726235E+04  0.21181742326E+04  0.91121725527E+03 0.  0.
        -24    2    4    4    0    0 -0.55679898131E+03  0.22373522207E+03  0.12702964391E+04  0.14070646328E+04  0.78072290763E+02 0.  0.
         24    2    4    4    0    0 -0.14726497779E+03 -0.48995794604E+03  0.48747618445E+03  0.71110959977E+03  0.79360379984E+02 0.  0.
         13    1    3    3    0    0  0.10220547243E+03  0.55571898943E+02  0.20730722799E+03  0.23771933309E+03  0.00000000000E+00 0. -1.
        -13    1    3    3    0    0  0.60185848666E+03  0.21065082503E+03  0.15841581356E+04  0.17076780747E+04  0.00000000000E+00 0.  1.
          2    1    6    6  502    0 -0.95665874255E+02 -0.42008611936E+03  0.40286738618E+03  0.58985289524E+03  0.00000000000E+00 0. -1.
          3    1    5    5  503    0 -0.39527408536E+03  0.18671017017E+03  0.97327930967E+03  0.10669465333E+04  0.00000000000E+00 0. -1.
         -4    1    5    5    0  503 -0.16152489595E+03  0.37025051893E+02  0.29701712942E+03  0.34011809956E+03  0.00000000000E+00 0.  1.
         -1    1    6    6    0  502 -0.51599103537E+02 -0.69871826682E+02  0.84608798268E+02  0.12125670453E+03  0.00000000000E+00 0.  1.
<mgrwt>
<rscale>  0 0.19787684E+04</rscale>
<asrwt>0</asrwt>
<pdfrwt beam="1">  1        2 0.58560070E+00 0.19787684E+04</pdfrwt>
<pdfrwt beam="2">  1       -2 0.39564130E-01 0.19787684E+04</pdfrwt>
<totfact> 0.27550677E+00</totfact>
</mgrwt>
</event>
<event>
12    1  0.1114484E-007  0.1210276E+04  0.7818608E-02  0.9103909E-01
         -2   -1    0    0    0  501 -0.00000000000E+00  0.00000000000E+00  0.15218997834E+04  0.15218997834E+04  0.00000000000E+00 0.  1.
          2   -1    0    0  501    0  0.00000000000E+00 -0.00000000000E+00 -0.24061505918E+03  0.24061505918E+03  0.00000000000E+00 0. -1.
         23    2    1    2    0    0 -0.24307761172E+03 -0.17849286228E+02  0.44433000787E+03  0.51483849041E+03  0.90687336382E+02 0.  0.
        254    2    1    2    0    0  0.24307761172E+03  0.17849286228E+02  0.83695471635E+03  0.12476763522E+04  0.89263528956E+03 0.  0.
        -24    2    4    4    0    0  0.20742781338E+03 -0.34902161765E+03  0.10935395849E+03  0.42811960888E+03  0.80533992311E+02 0.  0.
         24    2    4    4    0    0  0.35649798339E+02  0.36687090388E+03  0.72760075786E+03  0.81955674328E+03  0.80032645774E+02 0.  0.
         11    1    3    3    0    0 -0.64812745055E+02  0.19376157126E+02  0.63846341349E+02  0.93018722256E+02  0.00000000000E+00 0. -1.
        -11    1    3    3    0    0 -0.17826486666E+03 -0.37225443353E+02  0.38048366652E+03  0.42181976815E+03  0.00000000000E+00 0.  1.
          2    1    6    6  502    0  0.14423977087E+02  0.45571707098E+02  0.15993289005E+03  0.16692321865E+03  0.00000000000E+00 0. -1.
          1    1    5    5  503    0  0.61526116649E+02 -0.52457310895E+02  0.40837818878E+02  0.90581233967E+02  0.00000000000E+00 0. -1.
         -2    1    5    5    0  503  0.14590169673E+03 -0.29656430675E+03  0.68516139613E+02  0.33753837491E+03  0.00000000000E+00 0.  1.
         -1    1    6    6    0  502  0.21225821251E+02  0.32129919678E+03  0.56766786781E+03  0.65263352464E+03  0.00000000000E+00 0.  1.
<mgrwt>
<rscale>  0 0.12102760E+04</rscale>
<asrwt>0</asrwt>
<pdfrwt beam="1">  1        2 0.37017702E-01 0.12102760E+04</pdfrwt>
<pdfrwt beam="2">  1       -2 0.23413842E+00 0.12102760E+04</pdfrwt>
<totfact> 0.11175389E+01</totfact>
</mgrwt>
</event>
<event>
12    1  0.1114484E-007  0.2987642E+04  0.7818608E-02  0.8247269E-01
          2   -1    0    0  501    0  0.00000000000E+00  0.00000000000E+00  0.26461997179E+04  0.26461997179E+04  0.00000000000E+00 0. -1.
         -2   -1    0    0    0  501 -0.00000000000E+00 -0.00000000000E+00 -0.84328518391E+03  0.84328518391E+03  0.00000000000E+00 0.  1.
         23    2    1    2    0    0  0.47841826393E+02  0.44354224764E+03 -0.67502956705E+03  0.81430836806E+03  0.91731325662E+02 0.  0.
        254    2    1    2    0    0 -0.47841826393E+02 -0.44354224764E+03  0.24779441011E+04  0.26751765338E+04  0.90407076770E+03 0.  0.
        -24    2    4    4    0    0 -0.16391453126E+03  0.21956860215E+03  0.11405832259E+04  0.11757600119E+04  0.80019783331E+02 0.  0.
         24    2    4    4    0    0  0.11607270487E+03 -0.66311084979E+03  0.13373608752E+04  0.14994165219E+04  0.80789378937E+02 0.  0.
         11    1    3    3    0    0 -0.55504547807E+01  0.23672837763E+03 -0.41496083290E+03  0.47776942678E+03  0.00000000000E+00 0. -1.
        -11    1    3    3    0    0  0.53392281174E+02  0.20681387000E+03 -0.26006873416E+03  0.33653894128E+03  0.00000000000E+00 0.  1.
          2    1    6    6  502    0  0.26015184389E+01 -0.76308858487E+00  0.23693209172E+02  0.23847816739E+02  0.00000000000E+00 0. -1.
          1    1    5    5  503    0 -0.25932215129E+02  0.74465037049E+00  0.80955551518E+02  0.85010797004E+02  0.00000000000E+00 0. -1.
         -2    1    5    5    0  503 -0.13798231613E+03  0.21882395178E+03  0.10596276744E+04  0.10907492149E+04  0.00000000000E+00 0.  1.
         -1    1    6    6    0  502  0.11347118643E+03 -0.66234776121E+03  0.13136676660E+04  0.14755687051E+04  0.00000000000E+00 0.  1.
<mgrwt>
<rscale>  0 0.29876419E+04</rscale>
<asrwt>0</asrwt>
<pdfrwt beam="1">  1        2 0.40710764E+00 0.29876419E+04</pdfrwt>
<pdfrwt beam="2">  1       -2 0.12973618E+00 0.29876419E+04</pdfrwt>
<totfact> 0.10688176E+00</totfact>
</mgrwt>
</event>
<event>
12    1  0.1114484E-007  0.1683667E+04  0.7818608E-02  0.8770735E-01
         -2   -1    0    0    0  501 -0.00000000000E+00  0.00000000000E+00  0.27684699155E+03  0.27684699155E+03  0.00000000000E+00 0.  1.
          2   -1    0    0  501    0  0.00000000000E+00 -0.00000000000E+00 -0.25598393369E+04  0.25598393369E+04  0.00000000000E+00 0. -1.
         23    2    1    2    0    0  0.39943407696E+03 -0.35226850928E+03 -0.35072309115E+03  0.64428585139E+03  0.91961335151E+02 0.  0.
        254    2    1    2    0    0 -0.39943407696E+03  0.35226850928E+03 -0.19322692542E+04  0.21924004771E+04  0.88843384481E+03 0.  0.
        -24    2    4    4    0    0 -0.27251011091E+03  0.58116341615E+03 -0.17456565511E+04  0.18612638096E+04  0.70523031634E+02 0.  0.
         24    2    4    4    0    0 -0.12692396605E+03 -0.22889490687E+03 -0.18661270316E+03  0.33113666743E+03  0.79527479467E+02 0.  0.
         11    1    3    3    0    0  0.16054430058E+03 -0.94704437061E+02 -0.15315516967E+03  0.24124657271E+03  0.00000000000E+00 0.  1.
        -11    1    3    3    0    0  0.23888977638E+03 -0.25756407222E+03 -0.19756792147E+03  0.40303927867E+03  0.00000000000E+00 0. -1.
          2    1    6    6  502    0 -0.61026156833E+02 -0.16993882601E+03 -0.15255849397E+03  0.23638420101E+03  0.00000000000E+00 0. -1.
          3    1    5    5  503    0 -0.26361604745E+03  0.57934039946E+03 -0.17256923881E+04  0.18393321987E+04  0.00000000000E+00 0. -1.
         -4    1    5    5    0  503 -0.88940634570E+01  0.18230166920E+01 -0.19964163014E+02  0.21931610964E+02  0.00000000000E+00 0.  1.
         -1    1    6    6    0  502 -0.65897809222E+02 -0.58956080860E+02 -0.34054209183E+02  0.94752466425E+02  0.00000000000E+00 0.  1.
<mgrwt>
<rscale>  0 0.16836672E+04</rscale>
<asrwt>0</asrwt>
<pdfrwt beam="1">  1        2 0.39382143E+00 0.16836672E+04</pdfrwt>
<pdfrwt beam="2">  1       -2 0.42591846E-01 0.16836672E+04</pdfrwt>
<totfact> 0.16027863E+01</totfact>
</mgrwt>
</event>
<event>
12    1  0.1114484E-007  0.1121372E+04  0.7818608E-02  0.9184608E-01
         -2   -1    0    0    0  501 -0.00000000000E+00  0.00000000000E+00  0.31638075867E+03  0.31638075867E+03  0.00000000000E+00 0.  1.
          2   -1    0    0  501    0  0.00000000000E+00 -0.00000000000E+00 -0.99364071629E+03  0.99364071629E+03  0.00000000000E+00 0. -1.
         23    2    1    2    0    0  0.74281298174E+02 -0.62044118393E+02 -0.31034059451E+03  0.33666106623E+03  0.87534022136E+02 0.  0.
        254    2    1    2    0    0 -0.74281298174E+02  0.62044118393E+02 -0.36691936311E+03  0.97336040873E+03  0.89634451099E+03 0.  0.
        -24    2    4    4    0    0 -0.26916047483E+03  0.38630339908E+03 -0.34022533980E+03  0.58567325480E+03  0.74714136540E+02 0.  0.
         24    2    4    4    0    0  0.19487917666E+03 -0.32425928069E+03 -0.26694023314E+02  0.38768715393E+03  0.80416315717E+02 0.  0.
         13    1    3    3    0    0  0.13397367259E+02  0.20489496113E+02 -0.33953895177E+02  0.41859000205E+02  0.00000000000E+00 0.  1.
        -13    1    3    3    0    0  0.60883930916E+02 -0.82533614506E+02 -0.27638669933E+03  0.29480206603E+03  0.00000000000E+00 0. -1.
          4    1    6    6  502    0  0.18631438187E+03 -0.31948246008E+03 -0.12017664320E+02  0.37003582995E+03  0.00000000000E+00 0. -1.
          1    1    5    5  503    0 -0.16627258106E+02  0.69970536916E+02 -0.53612130729E+02  0.89702855638E+02  0.00000000000E+00 0. -1.
         -2    1    5    5    0  503 -0.25253321673E+03  0.31633286217E+03 -0.28661320907E+03  0.49597039917E+03  0.00000000000E+00 0.  1.
         -3    1    6    6    0  502  0.85647947861E+01 -0.47768206066E+01 -0.14676358994E+02  0.17651323977E+02  0.00000000000E+00 0.  1.
<mgrwt>
<rscale>  0 0.11213720E+04</rscale>
<asrwt>0</asrwt>
<pdfrwt beam="1">  1        2 0.15286780E+00 0.11213720E+04</pdfrwt>
<pdfrwt beam="2">  1       -2 0.48673964E-01 0.11213720E+04</pdfrwt>
<totfact> 0.10076210E+02</totfact>
</mgrwt>
</event>
<event>
12    1  0.1114484E-007  0.2612354E+04  0.7818608E-02  0.8364017E-01
         -2   -1    0    0    0  501 -0.00000000000E+00  0.00000000000E+00  0.53301087636E+03  0.53301087636E+03  0.00000000000E+00 0.  1.
          2   -1    0    0  501    0  0.00000000000E+00 -0.00000000000E+00 -0.32008700113E+04  0.32008700113E+04  0.00000000000E+00 0. -1.
         23    2    1    2    0    0 -0.80426072688E+03 -0.81181704397E+03 -0.10483322500E+04  0.15534142204E+04  0.90625626376E+02 0.  0.
        254    2    1    2    0    0  0.80426072688E+03  0.81181704397E+03 -0.16195268850E+04  0.21804666672E+04  0.90867228753E+03 0.  0.
        -24    2    4    4    0    0  0.94138976779E+03  0.65470964177E+03 -0.15798127728E+04  0.19537239851E+04  0.79809792186E+02 0.  0.
         24    2    4    4    0    0 -0.13712904092E+03  0.15710740220E+03 -0.39714112154E+02  0.22674268212E+03  0.79673857086E+02 0.  0.
         13    1    3    3    0    0 -0.28805412984E+03 -0.23504725024E+03 -0.31840074944E+03  0.48949098950E+03  0.00000000000E+00 0. -1.
        -13    1    3    3    0    0 -0.51620659704E+03 -0.57676979373E+03 -0.72993150052E+03  0.10639232309E+04  0.00000000000E+00 0.  1.
          4    1    6    6  502    0 -0.12518441913E+03  0.12312646660E+03 -0.59811869720E+02  0.18549589033E+03  0.00000000000E+00 0. -1.
          1    1    5    5  503    0  0.58964232592E+03  0.42737477202E+03 -0.94139850095E+03  0.11901925919E+04  0.00000000000E+00 0. -1.
         -2    1    5    5    0  503  0.35174744187E+03  0.22733486975E+03 -0.63841427187E+03  0.76353139319E+03  0.00000000000E+00 0.  1.
         -3    1    6    6    0  502 -0.11944621790E+02  0.33980935606E+02  0.20097757566E+02  0.41246791797E+02  0.00000000000E+00 0.  1.
<mgrwt>
<rscale>  0 0.26123541E+04</rscale>
<asrwt>0</asrwt>
<pdfrwt beam="1">  1        2 0.49244153E+00 0.26123541E+04</pdfrwt>
<pdfrwt beam="2">  1       -2 0.82001674E-01 0.26123541E+04</pdfrwt>
<totfact> 0.14962273E+00</totfact>
</mgrwt>
</event>
<event>
12    1  0.1114484E-007  0.2919758E+04  0.7818608E-02  0.8267023E-01
          2   -1    0    0  501    0  0.00000000000E+00  0.00000000000E+00  0.17402987767E+04  0.17402987767E+04  0.00000000000E+00 0.  1.
         -2   -1    0    0    0  501 -0.00000000000E+00 -0.00000000000E+00 -0.12246444898E+04  0.12246444898E+04  0.00000000000E+00 0. -1.
         23    2    1    2    0    0 -0.80752446254E+03  0.71842593227E+03  0.10050008963E+04  0.14776836642E+04  0.72736731373E+02 0.  0.
        254    2    1    2    0    0  0.80752446254E+03 -0.71842593227E+03 -0.48934660940E+03  0.14872596023E+04  0.89679955552E+03 0.  0.
        -24    2    4    4    0    0  0.38864461459E+03  0.15942405222E+03 -0.10886859873E+03  0.43997454068E+03  0.72557286169E+02 0.  0.
         24    2    4    4    0    0  0.41887984795E+03 -0.87784998450E+03 -0.38047801068E+03  0.10472850616E+04  0.77211148332E+02 0.  0.
         11    1    3    3    0    0 -0.51265458338E+03  0.46177601338E+03  0.59358119501E+03  0.91015957033E+03  0.00000000000E+00 0.  1.
        -11    1    3    3    0    0 -0.29486987916E+03  0.25664991889E+03  0.41141970128E+03  0.56752409385E+03  0.00000000000E+00 0. -1.
          2    1    6    6  502    0  0.90959726129E+02 -0.20973859543E+03 -0.55952426199E+02  0.23536062582E+03  0.00000000000E+00 0. -1.
          1    1    5    5  503    0  0.87899035283E+02  0.45772386148E+02 -0.56964917759E+02  0.11430815191E+03  0.00000000000E+00 0. -1.
         -2    1    5    5    0  503  0.30074557931E+03  0.11365166608E+03 -0.51903680967E+02  0.32566638877E+03  0.00000000000E+00 0.  1.
         -1    1    6    6    0  502  0.32792012182E+03 -0.66811138907E+03 -0.32452558448E+03  0.81192443582E+03  0.00000000000E+00 0.  1.
<mgrwt>
<rscale>  0 0.29197584E+04</rscale>
<asrwt>0</asrwt>
<pdfrwt beam="1">  1        2 0.26773827E+00 0.29197584E+04</pdfrwt>
<pdfrwt beam="2">  1       -2 0.18840684E+00 0.29197584E+04</pdfrwt>
<totfact> 0.12751708E+00</totfact>
</mgrwt>
</event>
<event>
12    1  0.1114484E-007  0.1217359E+04  0.7818608E-02  0.9097797E-01
          2   -1    0    0  501    0  0.00000000000E+00  0.00000000000E+00  0.25246891083E+04  0.25246891083E+04  0.00000000000E+00 0. -1.
         -2   -1    0    0    0  501 -0.00000000000E+00 -0.00000000000E+00 -0.14674702380E+03  0.14674702380E+03  0.00000000000E+00 0.  1.
         23    2    1    2    0    0  0.12778186261E+02 -0.29846370852E+03  0.93929072139E+03  0.98995336362E+03  0.92177738715E+02 0.  0.
        254    2    1    2    0    0 -0.12778186261E+02  0.29846370852E+03  0.14386513631E+04  0.16814827685E+04  0.81757121328E+03 0.  0.
        -24    2    4    4    0    0 -0.22980892398E+03  0.10650852006E+03  0.59554733621E+02  0.26996463232E+03  0.71957835033E+02 0.  0.
         24    2    4    4    0    0  0.21703073772E+03  0.19195518847E+03  0.13790966295E+04  0.14115181362E+04  0.80788611463E+02 0.  0.
         11    1    3    3    0    0  0.16669425337E+02 -0.13006128209E+03  0.27535233200E+03  0.30497985766E+03  0.00000000000E+00 0.  1.
        -11    1    3    3    0    0 -0.38912390765E+01 -0.16840242643E+03  0.66393838939E+03  0.68497350597E+03  0.00000000000E+00 0. -1.
          4    1    6    6  502    0 -0.24946570531E+01  0.55776265616E+01  0.60523135001E+01  0.86002168913E+01  0.00000000000E+00 0. -1.
          1    1    5    5  503    0 -0.81084518579E+02  0.53269256357E+02 -0.96663815338E+01  0.97497444880E+02  0.00000000000E+00 0. -1.
         -2    1    5    5    0  503 -0.14872440540E+03  0.53239263699E+02  0.69221115155E+02  0.17246718744E+03  0.00000000000E+00 0.  1.
         -3    1    6    6    0  502  0.21952539477E+03  0.18637756191E+03  0.13730443160E+04  0.14029179193E+04  0.00000000000E+00 0.  1.
<mgrwt>
<rscale>  0 0.12173588E+04</rscale>
<asrwt>0</asrwt>
<pdfrwt beam="1">  1        2 0.38841368E+00 0.12173588E+04</pdfrwt>
<pdfrwt beam="2">  1       -2 0.22576467E-01 0.12173588E+04</pdfrwt>
<totfact> 0.57598753E+01</totfact>
</mgrwt>
</event>
<event>
12    1  0.1114484E-007  0.1489387E+04  0.7818608E-02  0.8891541E-01
          2   -1    0    0  501    0  0.00000000000E+00  0.00000000000E+00  0.69146889065E+03  0.69146889065E+03  0.00000000000E+00 0. -1.
         -2   -1    0    0    0  501 -0.00000000000E+00 -0.00000000000E+00 -0.80201488189E+03  0.80201488189E+03  0.00000000000E+00 0.  1.
         23    2    1    2    0    0  0.25136296656E+03 -0.13832972016E+03 -0.41187831966E+03  0.51031067011E+03  0.91949863450E+02 0.  0.
        254    2    1    2    0    0 -0.25136296656E+03  0.13832972016E+03  0.30133232842E+03  0.98317310243E+03  0.89079162813E+03 0.  0.
        -24    2    4    4    0    0  0.20137260478E+03 -0.20729683579E+03  0.27563474038E+03  0.40751787716E+03  0.81076544186E+02 0.  0.
         24    2    4    4    0    0 -0.45273557134E+03  0.34562655594E+03  0.25697588043E+02  0.57565522528E+03  0.79318085102E+02 0.  0.
         11    1    3    3    0    0 -0.76301767754E+01 -0.13888262223E+01 -0.63288635008E+01  0.10010142312E+02  0.00000000000E+00 0. -1.
        -11    1    3    3    0    0  0.25899314334E+03 -0.13694089393E+03 -0.40554945616E+03  0.50030052780E+03  0.00000000000E+00 0.  1.
          2    1    6    6  502    0 -0.49761759330E+02  0.22485176064E+02  0.22634709248E+02  0.59111300925E+02  0.00000000000E+00 0. -1.
          3    1    5    5  503    0  0.98548266435E+01 -0.22562826239E+02  0.60559135763E+02  0.65372835799E+02  0.00000000000E+00 0. -1.
         -4    1    5    5    0  503  0.19151777813E+03 -0.18473400955E+03  0.21507560461E+03  0.34214504136E+03  0.00000000000E+00 0.  1.
         -1    1    6    6    0  502 -0.40297381201E+03  0.32314137988E+03  0.30628787959E+01  0.51654392435E+03  0.00000000000E+00 0.  1.
<mgrwt>
<rscale>  0 0.14893869E+04</rscale>
<asrwt>0</asrwt>
<pdfrwt beam="1">  1        2 0.10637983E+00 0.14893869E+04</pdfrwt>
<pdfrwt beam="2">  1       -2 0.12338690E+00 0.14893869E+04</pdfrwt>
<totfact> 0.19928989E+01</totfact>
</mgrwt>
</event>
<event>
12    1  0.1114484E-007  0.1095757E+04  0.7818608E-02  0.9209337E-01
          1   -1    0    0  501    0  0.00000000000E+00  0.00000000000E+00  0.54157406165E+03  0.54157406165E+03  0.00000000000E+00 0. -1.
         -1   -1    0    0    0  501 -0.00000000000E+00 -0.00000000000E+00 -0.55425675391E+03  0.55425675391E+03  0.00000000000E+00 0.  1.
         23    2    1    2    0    0 -0.14014451912E+03  0.19216269150E+02 -0.51989844281E+02  0.18372883208E+03  0.10508847981E+03 0.  0.
        254    2    1    2    0    0  0.14014451912E+03 -0.19216269150E+02  0.39307152013E+02  0.91210198349E+03  0.90020843411E+03 0.  0.
        -24    2    4    4    0    0 -0.26658421372E+03 -0.13120669660E+03  0.28356760379E+03  0.41824322172E+03  0.78958636974E+02 0.  0.
         24    2    4    4    0    0  0.40672873284E+03  0.11199042745E+03 -0.24426045178E+03  0.49385876177E+03  0.79140320410E+02 0.  0.
         11    1    3    3    0    0 -0.10480589756E+03 -0.13042350489E+02 -0.76075206274E+02  0.13016073171E+03  0.00000000000E+00 0.  1.
        -11    1    3    3    0    0 -0.35338621558E+02  0.32258619639E+02  0.24085361993E+02  0.53568100367E+02  0.00000000000E+00 0. -1.
          4    1    6    6  502    0  0.36823558305E+03  0.11967300062E+03 -0.20406803315E+03  0.43767891639E+03  0.00000000000E+00 0. -1.
          1    1    5    5  503    0 -0.10636507666E+03 -0.90595997156E+02  0.10392558328E+03  0.17413124675E+03  0.00000000000E+00 0. -1.
         -2    1    5    5    0  503 -0.16021913706E+03 -0.40610699445E+02  0.17964202051E+03  0.24411197497E+03  0.00000000000E+00 0.  1.
         -3    1    6    6    0  502  0.38493149787E+02 -0.76825731662E+01 -0.40192418630E+02  0.56179845375E+02  0.00000000000E+00 0.  1.
<mgrwt>
<rscale>  0 0.10957574E+04</rscale>
<asrwt>0</asrwt>
<pdfrwt beam="1">  1        1 0.83319086E-01 0.10957574E+04</pdfrwt>
<pdfrwt beam="2">  1       -1 0.85270270E-01 0.10957574E+04</pdfrwt>
<totfact> 0.53762858E+01</totfact>
</mgrwt>
</event>
<event>
12    1  0.1114484E-007  0.1349564E+04  0.7818608E-02  0.8991158E-01
          2   -1    0    0  501    0  0.00000000000E+00  0.00000000000E+00  0.67259701350E+03  0.67259701350E+03  0.00000000000E+00 0. -1.
         -2   -1    0    0    0  501 -0.00000000000E+00 -0.00000000000E+00 -0.67697398040E+03  0.67697398040E+03  0.00000000000E+00 0.  1.
         23    2    1    2    0    0 -0.50311503655E+02 -0.93833735334E+02  0.34661404967E+03  0.37370837454E+03  0.90446848956E+02 0.  0.
        254    2    1    2    0    0  0.50311503655E+02  0.93833735334E+02 -0.35099101658E+03  0.97586261936E+03  0.90431031226E+03 0.  0.
        -24    2    4    4    0    0  0.31202027294E+03 -0.23016544315E+03 -0.38296340979E+03  0.55079345474E+03  0.79872865213E+02 0.  0.
         24    2    4    4    0    0 -0.26170876928E+03  0.32399917849E+03  0.31972393211E+02  0.42506916462E+03  0.78705865129E+02 0.  0.
         13    1    3    3    0    0  0.23018622007E+02 -0.46256687991E+01  0.45289030036E+02  0.51013233700E+02  0.00000000000E+00 0.  1.
        -13    1    3    3    0    0 -0.73330125661E+02 -0.89208066535E+02  0.30132501964E+03  0.32269514084E+03  0.00000000000E+00 0. -1.
          2    1    6    6  502    0 -0.80266825834E+02  0.55433340595E+02 -0.10811116962E+02  0.98145294482E+02  0.00000000000E+00 0. -1.
          1    1    5    5  503    0  0.40648714689E+02 -0.29920610998E+02 -0.17314961868E+02  0.53360742806E+02  0.00000000000E+00 0. -1.
         -2    1    5    5    0  503  0.27137155825E+03 -0.20024483216E+03 -0.36564844792E+03  0.49743271193E+03  0.00000000000E+00 0.  1.
         -1    1    6    6    0  502 -0.18144194345E+03  0.26856583789E+03  0.42783510173E+02  0.32692387014E+03  0.00000000000E+00 0.  1.
<mgrwt>
<rscale>  0 0.13495639E+04</rscale>
<asrwt>0</asrwt>
<pdfrwt beam="1">  1        2 0.10347646E+00 0.13495639E+04</pdfrwt>
<pdfrwt beam="2">  1       -2 0.10414984E+00 0.13495639E+04</pdfrwt>
<totfact> 0.31553781E+01</totfact>
</mgrwt>
</event>
<event>
12    1  0.1114484E-007  0.1770470E+04  0.7818608E-02  0.8722163E-01
         -1   -1    0    0    0  501 -0.00000000000E+00  0.00000000000E+00  0.65597350464E+03  0.65597350464E+03  0.00000000000E+00 0.  1.
          1   -1    0    0  501    0  0.00000000000E+00 -0.00000000000E+00 -0.11946234015E+04  0.11946234015E+04  0.00000000000E+00 0. -1.
         23    2    1    2    0    0  0.20609028327E+03  0.44550509397E+03 -0.64488531019E+03  0.81545521366E+03  0.90233854961E+02 0.  0.
        254    2    1    2    0    0 -0.20609028327E+03 -0.44550509397E+03  0.10623541335E+03  0.10351416925E+04  0.90514328523E+03 0.  0.
        -24    2    4    4    0    0 -0.26989871357E+03 -0.27788688289E+03  0.47460737211E+03  0.61787638663E+03  0.80328302716E+02 0.  0.
         24    2    4    4    0    0  0.63808430305E+02 -0.16761821108E+03 -0.36837195876E+03  0.41726530582E+03  0.79025660273E+02 0.  0.
         11    1    3    3    0    0  0.16094262495E+03  0.38722329372E+03 -0.49745503281E+03  0.65061964111E+03  0.00000000000E+00 0. -1.
        -11    1    3    3    0    0  0.45147658317E+02  0.58281800250E+02 -0.14743027738E+03  0.16483557255E+03  0.00000000000E+00 0.  1.
          2    1    6    6  502    0  0.23722036032E+02 -0.13015868529E+03 -0.19682479050E+03  0.23715820986E+03  0.00000000000E+00 0. -1.
          1    1    5    5  503    0 -0.14616335753E+02 -0.37993374614E+02  0.83021854878E+02  0.92464924013E+02  0.00000000000E+00 0. -1.
         -2    1    5    5    0  503 -0.25528237782E+03 -0.23989350828E+03  0.39158551724E+03  0.52541146261E+03  0.00000000000E+00 0.  1.
         -1    1    6    6    0  502  0.40086394273E+02 -0.37459525788E+02 -0.17154716826E+03  0.18010709596E+03  0.00000000000E+00 0.  1.
<mgrwt>
<rscale>  0 0.17704703E+04</rscale>
<asrwt>0</asrwt>
<pdfrwt beam="1">  1        1 0.18378822E+00 0.17704703E+04</pdfrwt>
<pdfrwt beam="2">  1       -1 0.10091900E+00 0.17704703E+04</pdfrwt>
<totfact> 0.95211482E+00</totfact>
</mgrwt>
</event>
<event>
12    1  0.1114484E-007  0.1479473E+04  0.7818608E-02  0.8898219E-01
         -1   -1    0    0    0  501 -0.00000000000E+00  0.00000000000E+00  0.15724205654E+03  0.15724205654E+03  0.00000000000E+00 0.  1.
          1   -1    0    0  501    0  0.00000000000E+00 -0.00000000000E+00 -0.34800471647E+04  0.34800471647E+04  0.00000000000E+00 0. -1.
         23    2    1    2    0    0  0.32847775515E+02 -0.20170367340E+03 -0.20600779341E+04  0.20721643219E+04  0.90446306693E+02 0.  0.
        254    2    1    2    0    0 -0.32847775515E+02  0.20170367340E+03 -0.12627271740E+04  0.15651248992E+04  0.90187176804E+03 0.  0.
        -24    2    4    4    0    0 -0.67703255733E+02  0.17114695969E+03 -0.13917372281E+04  0.14063423155E+04  0.83613298685E+02 0.  0.
         24    2    4    4    0    0  0.34855480218E+02  0.30556713718E+02  0.12901005406E+03  0.15878258373E+03  0.80123015373E+02 0.  0.
         13    1    3    3    0    0 -0.32326683607E+01 -0.17735055773E+03 -0.17653574335E+04  0.17742464707E+04  0.00000000000E+00 0. -1.
        -13    1    3    3    0    0  0.36080443876E+02 -0.24353115671E+02 -0.29472050054E+03  0.29791785128E+03  0.00000000000E+00 0.  1.
          2    1    6    6  502    0  0.52950696885E+02  0.19099868453E+02  0.44944935661E+02  0.72032135309E+02  0.00000000000E+00 0. -1.
          1    1    5    5  503    0 -0.40876283996E+02  0.33207405529E+02 -0.22034655283E+03  0.22655287621E+03  0.00000000000E+00 0. -1.
         -2    1    5    5    0  503 -0.26826971737E+02  0.13793955416E+03 -0.11713906753E+04  0.11797894393E+04  0.00000000000E+00 0.  1.
         -1    1    6    6    0  502 -0.18095216667E+02  0.11456845265E+02  0.84065118400E+02  0.86750448421E+02  0.00000000000E+00 0.  1.
<mgrwt>
<rscale>  0 0.14794726E+04</rscale>
<asrwt>0</asrwt>
<pdfrwt beam="1">  1        1 0.53539187E+00 0.14794726E+04</pdfrwt>
<pdfrwt beam="2">  1       -1 0.24191086E-01 0.14794726E+04</pdfrwt>
<totfact> 0.37655161E+00</totfact>
</mgrwt>
</event>
<event>
12    1  0.1114484E-007  0.1690578E+04  0.7818608E-02  0.8766756E-01
          1   -1    0    0  501    0  0.00000000000E+00  0.00000000000E+00  0.70463650092E+03  0.70463650092E+03  0.00000000000E+00 0. -1.
         -1   -1    0    0    0  501 -0.00000000000E+00 -0.00000000000E+00 -0.10140172195E+04  0.10140172195E+04  0.00000000000E+00 0.  1.
         23    2    1    2    0    0  0.56595595264E+03 -0.11284511201E+02  0.68075348828E+02  0.57734842813E+03  0.90903651304E+02 0.  0.
        254    2    1    2    0    0 -0.56595595264E+03  0.11284511201E+02 -0.37745606745E+03  0.11413052923E+04  0.91633575010E+03 0.  0.
        -24    2    4    4    0    0 -0.54130725432E+03  0.30183345200E+03  0.40707772638E+02  0.62521766062E+03  0.71575303513E+02 0.  0.
         24    2    4    4    0    0 -0.24648698319E+02 -0.29054894080E+03 -0.41816384009E+03  0.51608763171E+03  0.80369155240E+02 0.  0.
         11    1    3    3    0    0  0.54730109336E+03 -0.27043833577E+02  0.58365614126E+02  0.55106841739E+03  0.00000000000E+00 0. -1.
        -11    1    3    3    0    0  0.18654859278E+02  0.15759322377E+02  0.97097347022E+01  0.26280010739E+02  0.00000000000E+00 0.  1.
          4    1    6    6  502    0  0.18326603324E+02 -0.19346728989E+03 -0.29771378398E+03  0.35552630538E+03  0.00000000000E+00 0. -1.
          3    1    5    5  503    0 -0.40495678009E+03  0.19236360574E+03  0.42669973619E+02  0.45034928356E+03  0.00000000000E+00 0. -1.
         -4    1    5    5    0  503 -0.13635047423E+03  0.10946984626E+03 -0.19622009808E+01  0.17486837706E+03  0.00000000000E+00 0.  1.
         -3    1    6    6    0  502 -0.42975301643E+02 -0.97081650907E+02 -0.12045005611E+03  0.16056132633E+03  0.00000000000E+00 0.  1.
<mgrwt>
<rscale>  0 0.16905781E+04</rscale>
<asrwt>0</asrwt>
<pdfrwt beam="1">  1        1 0.10840562E+00 0.16905781E+04</pdfrwt>
<pdfrwt beam="2">  1       -1 0.15600265E+00 0.16905781E+04</pdfrwt>
<totfact> 0.80531607E+00</totfact>
</mgrwt>
</event>
<event>
12    1  0.1585327E-007  0.2027822E+04  0.7818608E-02  0.8593722E-01
          1   -1    0    0  501    0  0.00000000000E+00  0.00000000000E+00  0.19891748325E+04  0.19891748325E+04  0.00000000000E+00 0. -1.
         -1   -1    0    0    0  501 -0.00000000000E+00 -0.00000000000E+00 -0.51680491744E+03  0.51680491744E+03  0.00000000000E+00 0.  1.
         23    2    1    2    0    0  0.18427993176E+03 -0.24258002220E+03 -0.33841859999E+03  0.46284851727E+03  0.83050832034E+02 0.  0.
        254    2    1    2    0    0 -0.18427993176E+03  0.24258002220E+03  0.18107885150E+04  0.20431312326E+04  0.89589398214E+03 0.  0.
        -24    2    4    4    0    0 -0.89506951361E+02 -0.82022605218E+02 -0.47643589501E+02  0.15250586045E+03  0.79050134368E+02 0.  0.
         24    2    4    4    0    0 -0.94772980403E+02  0.32460262742E+03  0.18584321045E+04  0.18906253722E+04  0.79659445680E+02 0.  0.
         13    1    3    3    0    0  0.70523987787E+01 -0.60368562623E+02 -0.78759013640E+02  0.99484078682E+02  0.00000000000E+00 0. -1.
        -13    1    3    3    0    0  0.17722753299E+03 -0.18221145957E+03 -0.25965958635E+03  0.36336443859E+03  0.00000000000E+00 0.  1.
          4    1    6    6  502    0  0.18892124405E+01  0.49437716082E+02  0.42156477059E+03  0.42445790451E+03  0.00000000000E+00 0. -1.
          3    1    5    5  503    0 -0.89027148772E+01  0.15729017567E+02 -0.40902032189E+01  0.18530787576E+02  0.00000000000E+00 0. -1.
         -4    1    5    5    0  503 -0.80604236484E+02 -0.97751622785E+02 -0.43553386282E+02  0.13397507288E+03  0.00000000000E+00 0.  1.
         -3    1    6    6    0  502 -0.96662192843E+02  0.27516491133E+03  0.14368673339E+04  0.14661674677E+04  0.00000000000E+00 0.  1.
<mgrwt>
<rscale>  0 0.20278218E+04</rscale>
<asrwt>0</asrwt>
<pdfrwt beam="1">  1        1 0.30602689E+00 0.20278218E+04</pdfrwt>
<pdfrwt beam="2">  1       -1 0.79508450E-01 0.20278218E+04</pdfrwt>
<totfact> 0.44327140E+00</totfact>
</mgrwt>
</event>
<event>
12    1  0.1114484E-007  0.1230721E+04  0.7818608E-02  0.9086384E-01
         -1   -1    0    0    0  501 -0.00000000000E+00  0.00000000000E+00  0.25947823099E+03  0.25947823099E+03  0.00000000000E+00 0.  1.
          1   -1    0    0  501    0  0.00000000000E+00 -0.00000000000E+00 -0.14593449364E+04  0.14593449364E+04  0.00000000000E+00 0. -1.
         23    2    1    2    0    0 -0.93385571971E+02  0.27815685267E+03 -0.25903947623E+03  0.40081347726E+03  0.86359096644E+02 0.  0.
        254    2    1    2    0    0  0.93385571971E+02 -0.27815685267E+03 -0.94082722921E+03  0.13180096902E+04  0.87515802482E+03 0.  0.
        -24    2    4    4    0    0  0.45648264851E+03 -0.86952305204E+02 -0.32326633388E+03  0.57189568840E+03  0.81402972994E+02 0.  0.
         24    2    4    4    0    0 -0.36309707654E+03 -0.19120454746E+03 -0.61756089533E+03  0.74611400177E+03  0.83102215566E+02 0.  0.
         11    1    3    3    0    0 -0.40682251296E+02  0.16182797286E+03 -0.19898015488E+03  0.25968527183E+03  0.00000000000E+00 0.  1.
        -11    1    3    3    0    0 -0.52703320675E+02  0.11632887981E+03 -0.60059321350E+02  0.14112820543E+03  0.00000000000E+00 0. -1.
          4    1    6    6  502    0 -0.11629532091E+03 -0.36563980975E+02 -0.13023369106E+03  0.17838817410E+03  0.00000000000E+00 0. -1.
          3    1    5    5  503    0  0.27400398217E+03 -0.92518653300E+02 -0.19865757463E+03  0.35085996553E+03  0.00000000000E+00 0. -1.
         -4    1    5    5    0  503  0.18247866634E+03  0.55663480954E+01 -0.12460875926E+03  0.22103572287E+03  0.00000000000E+00 0.  1.
         -3    1    6    6    0  502 -0.24680175563E+03 -0.15464056649E+03 -0.48732720426E+03  0.56772582767E+03  0.00000000000E+00 0.  1.
<mgrwt>
<rscale>  0 0.12307205E+04</rscale>
<asrwt>0</asrwt>
<pdfrwt beam="1">  1        1 0.22451460E+00 0.12307205E+04</pdfrwt>
<pdfrwt beam="2">  1       -1 0.39919728E-01 0.12307205E+04</pdfrwt>
<totfact> 0.42140044E+01</totfact>
</mgrwt>
</event>
<event>
12    1  0.1114484E-007  0.1122742E+04  0.7818608E-02  0.9183305E-01
          2   -1    0    0  501    0  0.00000000000E+00  0.00000000000E+00  0.30847026601E+03  0.30847026601E+03  0.00000000000E+00 0. -1.
         -2   -1    0    0    0  501 -0.00000000000E+00 -0.00000000000E+00 -0.10216135307E+04  0.10216135307E+04  0.00000000000E+00 0.  1.
         23    2    1    2    0    0  0.14583660933E+03  0.97018854631E+02 -0.23032363296E+03  0.30328586218E+03  0.90842520470E+02 0.  0.
        254    2    1    2    0    0 -0.14583660933E+03 -0.97018854631E+02 -0.48281963172E+03  0.10267979345E+04  0.88911091928E+03 0.  0.
        -24    2    4    4    0    0  0.43512772912E+02  0.20135880905E+03 -0.60478328605E+03  0.64390925808E+03  0.80109788217E+02 0.  0.
         24    2    4    4    0    0 -0.18934938224E+03 -0.29837766368E+03  0.12196365433E+03  0.38288867644E+03  0.82741687359E+02 0.  0.
         13    1    3    3    0    0  0.88519347604E+01 -0.15861158141E+02 -0.34486327139E+02  0.38977427392E+02  0.00000000000E+00 0. -1.
        -13    1    3    3    0    0  0.13698467457E+03  0.11288001277E+03 -0.19583730582E+03  0.26430843479E+03  0.00000000000E+00 0.  1.
          2    1    6    6  502    0 -0.15450365766E+03 -0.23741866400E+03  0.13100787578E+03  0.31209304024E+03  0.00000000000E+00 0. -1.
          3    1    5    5  503    0  0.45643081940E+02  0.20711524489E+03 -0.59914629672E+03  0.63557556629E+03  0.00000000000E+00 0. -1.
         -4    1    5    5    0  503 -0.21303090282E+01 -0.57564358392E+01 -0.56369893319E+01  0.83336917902E+01  0.00000000000E+00 0.  1.
         -1    1    6    6    0  502 -0.34845724578E+02 -0.60958999679E+02 -0.90442214509E+01  0.70795636200E+02  0.00000000000E+00 0.  1.
<mgrwt>
<rscale>  0 0.11227420E+04</rscale>
<asrwt>0</asrwt>
<pdfrwt beam="1">  1        2 0.47456964E-01 0.11227420E+04</pdfrwt>
<pdfrwt beam="2">  1       -2 0.15717131E+00 0.11227420E+04</pdfrwt>
<totfact> 0.27869860E+01</totfact>
</mgrwt>
</event>
<event>
12    1  0.1114484E-007  0.1445987E+04  0.7818608E-02  0.8921188E-01
          1   -1    0    0  501    0  0.00000000000E+00  0.00000000000E+00  0.24426433017E+04  0.24426433017E+04  0.00000000000E+00 0. -1.
         -1   -1    0    0    0  501 -0.00000000000E+00 -0.00000000000E+00 -0.21399741980E+03  0.21399741980E+03  0.00000000000E+00 0.  1.
         23    2    1    2    0    0  0.31700039700E+03  0.26002763305E+03  0.38583605313E+03  0.57038947069E+03  0.91493533841E+02 0.  0.
        254    2    1    2    0    0 -0.31700039700E+03 -0.26002763305E+03  0.18428098288E+04  0.20862512508E+04  0.88791474526E+03 0.  0.
        -24    2    4    4    0    0  0.15247864557E+03 -0.43672322975E+03  0.90969843220E+03  0.10236383791E+04  0.79418995781E+02 0.  0.
         24    2    4    4    0    0 -0.46947904256E+03  0.17669559671E+03  0.93311139662E+03  0.10626128717E+04  0.82567132560E+02 0.  0.
         11    1    3    3    0    0  0.34163578785E+02  0.31293231910E+01  0.13448015959E+02  0.36848228075E+02  0.00000000000E+00 0. -1.
        -11    1    3    3    0    0  0.28283681821E+03  0.25689830986E+03  0.37238803717E+03  0.53354124262E+03  0.00000000000E+00 0.  1.
          2    1    6    6  502    0 -0.60037642933E+02  0.29964848108E+02  0.75449538768E+02  0.10097050852E+03  0.00000000000E+00 0. -1.
          3    1    5    5  503    0 -0.28074465151E+01 -0.79332930390E+02  0.14075850867E+03  0.16159997947E+03  0.00000000000E+00 0. -1.
         -4    1    5    5    0  503  0.15528609208E+03 -0.35739029936E+03  0.76893992353E+03  0.86203839965E+03  0.00000000000E+00 0.  1.
         -1    1    6    6    0  502 -0.40944139963E+03  0.14673074860E+03  0.85766185785E+03  0.96164236321E+03  0.00000000000E+00 0.  1.
<mgrwt>
<rscale>  0 0.14459867E+04</rscale>
<asrwt>0</asrwt>
<pdfrwt beam="1">  1        1 0.37579126E+00 0.14459867E+04</pdfrwt>
<pdfrwt beam="2">  1       -1 0.32922682E-01 0.14459867E+04</pdfrwt>
<totfact> 0.12519939E+01</totfact>
</mgrwt>
</event>
<event>
12    1  0.1114484E-007  0.1248066E+04  0.7818608E-02  0.9071795E-01
         -2   -1    0    0    0  501 -0.00000000000E+00  0.00000000000E+00  0.23122034630E+03  0.23122034630E+03  0.00000000000E+00 0.  1.
          2   -1    0    0  501    0  0.00000000000E+00 -0.00000000000E+00 -0.16841818255E+04  0.16841818255E+04  0.00000000000E+00 0. -1.
         23    2    1    2    0    0 -0.19246299696E+03  0.69581444469E+02 -0.70878034017E+03  0.74337715822E+03  0.91413599313E+02 0.  0.
        254    2    1    2    0    0  0.19246299696E+03 -0.69581444469E+02 -0.74418113906E+03  0.11720250136E+04  0.88201671309E+03 0.  0.
        -24    2    4    4    0    0  0.15927048394E+02 -0.17632981878E+02 -0.90877229301E+03  0.91265454187E+03  0.80663742374E+02 0.  0.
         24    2    4    4    0    0  0.17653594856E+03 -0.51948462591E+02  0.16459115395E+03  0.25937047173E+03  0.79493457267E+02 0.  0.
         13    1    3    3    0    0 -0.15027780772E+03  0.56030357534E+02 -0.65155010972E+03  0.67099952752E+03  0.00000000000E+00 0. -1.
        -13    1    3    3    0    0 -0.42185189238E+02  0.13551086935E+02 -0.57230230453E+02  0.72377630701E+02  0.00000000000E+00 0.  1.
          4    1    6    6  502    0  0.31282993431E+02  0.18703379458E+02  0.15677071885E+02  0.39676348925E+02  0.00000000000E+00 0. -1.
          3    1    5    5  503    0 -0.23027987411E+02 -0.22485680205E+02 -0.18208178643E+03  0.18490449148E+03  0.00000000000E+00 0. -1.
         -4    1    5    5    0  503  0.38955035806E+02  0.48526983262E+01 -0.72669050658E+03  0.72775005039E+03  0.00000000000E+00 0.  1.
         -3    1    6    6    0  502  0.14525295513E+03 -0.70651842048E+02  0.14891408206E+03  0.21969412281E+03  0.00000000000E+00 0.  1.
<mgrwt>
<rscale>  0 0.12480659E+04</rscale>
<asrwt>0</asrwt>
<pdfrwt beam="1">  1        2 0.25910488E+00 0.12480659E+04</pdfrwt>
<pdfrwt beam="2">  1       -2 0.35572363E-01 0.12480659E+04</pdfrwt>
<totfact> 0.73087395E+01</totfact>
</mgrwt>
</event>
<event>
12    1  0.1114484E-007  0.2019297E+04  0.7818608E-02  0.8597652E-01
         -2   -1    0    0    0  501 -0.00000000000E+00  0.00000000000E+00  0.45632346402E+03  0.45632346402E+03  0.00000000000E+00 0.  1.
          2   -1    0    0  501    0  0.00000000000E+00 -0.00000000000E+00 -0.22339188939E+04  0.22339188939E+04  0.00000000000E+00 0. -1.
         23    2    1    2    0    0 -0.65067406034E+03 -0.41758244554E+03 -0.42947450350E+03  0.88887603818E+03  0.88884365731E+02 0.  0.
        254    2    1    2    0    0  0.65067406034E+03  0.41758244554E+03 -0.13481209264E+04  0.18013663197E+04  0.91089996932E+03 0.  0.
        -24    2    4    4    0    0 -0.26082011163E+02 -0.11288824689E+03 -0.71930594236E+03  0.73303762854E+03  0.80740934834E+02 0.  0.
         24    2    4    4    0    0  0.67675607151E+03  0.53047069243E+03 -0.62881498403E+03  0.10683286912E+04  0.80746346308E+02 0.  0.
         13    1    3    3    0    0 -0.34700114027E+03 -0.26843119625E+03 -0.26689800789E+03  0.51351693749E+03  0.00000000000E+00 0.  1.
        -13    1    3    3    0    0 -0.30367292007E+03 -0.14915124929E+03 -0.16257649560E+03  0.37535910069E+03  0.00000000000E+00 0. -1.
          2    1    6    6  502    0  0.11915611905E+03  0.72334068177E+02 -0.13368103081E+03  0.19313470979E+03  0.00000000000E+00 0. -1.
          1    1    5    5  503    0  0.17744274020E+02 -0.50614541668E+02 -0.16432043711E+03  0.17285224077E+03  0.00000000000E+00 0. -1.
         -2    1    5    5    0  503 -0.43826285183E+02 -0.62273705221E+02 -0.55498550525E+03  0.56018538777E+03  0.00000000000E+00 0.  1.
         -1    1    6    6    0  502  0.55759995246E+03  0.45813662425E+03 -0.49513395322E+03  0.87519398141E+03  0.00000000000E+00 0.  1.
<mgrwt>
<rscale>  0 0.20192965E+04</rscale>
<asrwt>0</asrwt>
<pdfrwt beam="1">  1        2 0.34367983E+00 0.20192965E+04</pdfrwt>
<pdfrwt beam="2">  1       -2 0.70203611E-01 0.20192965E+04</pdfrwt>
<totfact> 0.84671456E+00</totfact>
</mgrwt>
</event>
<event>
12    1  0.1114484E-007  0.2000839E+04  0.7818608E-02  0.8606228E-01
          1   -1    0    0  501    0  0.00000000000E+00  0.00000000000E+00  0.11669439614E+04  0.11669439614E+04  0.00000000000E+00 0. -1.
         -1   -1    0    0    0  501 -0.00000000000E+00 -0.00000000000E+00 -0.85765835467E+03  0.85765835467E+03  0.00000000000E+00 0.  1.
         23    2    1    2    0    0  0.58635804355E+03 -0.37346910725E+03 -0.27300025589E+03  0.75198884323E+03  0.87539427205E+02 0.  0.
        254    2    1    2    0    0 -0.58635804355E+03  0.37346910725E+03  0.58228586267E+03  0.12726134729E+04  0.89285681728E+03 0.  0.
        -24    2    4    4    0    0 -0.28156558803E+03 -0.10172537228E+03 -0.15047329028E+03  0.34429076229E+03  0.79162403848E+02 0.  0.
         24    2    4    4    0    0 -0.30479245552E+03  0.47519447953E+03  0.73275915295E+03  0.92832271058E+03  0.78350778122E+02 0.  0.
         11    1    3    3    0    0  0.13774177064E+03 -0.11451787995E+03 -0.37660266305E+02  0.18304490123E+03  0.00000000000E+00 0.  1.
        -11    1    3    3    0    0  0.44861627291E+03 -0.25895122730E+03 -0.23533998959E+03  0.56894394200E+03  0.00000000000E+00 0. -1.
          4    1    6    6  502    0 -0.22967786010E+03  0.40994090645E+03  0.61983137874E+03  0.77781386222E+03  0.00000000000E+00 0. -1.
          1    1    5    5  503    0 -0.20356539121E+03 -0.69930634988E+02 -0.66327058726E+02  0.22522975143E+03  0.00000000000E+00 0. -1.
         -2    1    5    5    0  503 -0.78000196823E+02 -0.31794737291E+02 -0.84146231555E+02  0.11906101087E+03  0.00000000000E+00 0.  1.
         -3    1    6    6    0  502 -0.75114595424E+02  0.65253573075E+02  0.11292777421E+03  0.15050884836E+03  0.00000000000E+00 0.  1.
<mgrwt>
<rscale>  0 0.20008391E+04</rscale>
<asrwt>0</asrwt>
<pdfrwt beam="1">  1        1 0.17952984E+00 0.20008391E+04</pdfrwt>
<pdfrwt beam="2">  1       -1 0.13194744E+00 0.20008391E+04</pdfrwt>
<totfact> 0.51198872E+00</totfact>
</mgrwt>
</event>
<event>
12    1  0.1114484E-007  0.2335306E+04  0.7818608E-02  0.8464129E-01
          2   -1    0    0  501    0  0.00000000000E+00  0.00000000000E+00  0.13243276563E+04  0.13243276563E+04  0.00000000000E+00 0. -1.
         -2   -1    0    0    0  501 -0.00000000000E+00 -0.00000000000E+00 -0.10295135929E+04  0.10295135929E+04  0.00000000000E+00 0.  1.
         23    2    1    2    0    0 -0.26673076883E+03  0.80636912770E+03 -0.38783611490E+03  0.93894284661E+03  0.99097649027E+02 0.  0.
        254    2    1    2    0    0  0.26673076883E+03 -0.80636912770E+03  0.68265017827E+03  0.14148984026E+04  0.90252409968E+03 0.  0.
        -24    2    4    4    0    0 -0.12570834075E+03 -0.47082557698E+03  0.73946129167E+03  0.88927167441E+03  0.80757650798E+02 0.  0.
         24    2    4    4    0    0  0.39243910958E+03 -0.33554355072E+03 -0.56811113398E+02  0.52562672814E+03  0.80361841558E+02 0.  0.
         13    1    3    3    0    0 -0.22258784395E+03  0.74557187514E+03 -0.37069260685E+03  0.86187921315E+03  0.00000000000E+00 0.  1.
        -13    1    3    3    0    0 -0.44142924879E+02  0.60797252550E+02 -0.17143508049E+02  0.77063633464E+02  0.00000000000E+00 0. -1.
          4    1    6    6  502    0  0.19631215325E+01 -0.15094752499E+02  0.64814843629E+01  0.16544335548E+02  0.00000000000E+00 0. -1.
          3    1    5    5  503    0 -0.22864186289E+02 -0.18138473711E+02  0.54472788330E+02  0.61798542957E+02  0.00000000000E+00 0. -1.
         -4    1    5    5    0  503 -0.10284415446E+03 -0.45268710326E+03  0.68498850334E+03  0.82747313145E+03  0.00000000000E+00 0.  1.
         -3    1    6    6    0  502  0.39047598804E+03 -0.32044879822E+03 -0.63292597761E+02  0.50908239260E+03  0.00000000000E+00 0.  1.
<mgrwt>
<rscale>  0 0.23353058E+04</rscale>
<asrwt>0</asrwt>
<pdfrwt beam="1">  1        2 0.20374272E+00 0.23353058E+04</pdfrwt>
<pdfrwt beam="2">  1       -2 0.15838671E+00 0.23353058E+04</pdfrwt>
<totfact> 0.37458765E+00</totfact>
</mgrwt>
</event>
<event>
12    1  0.1114484E-007  0.1602698E+04  0.7818608E-02  0.8818892E-01
          2   -1    0    0  501    0  0.00000000000E+00  0.00000000000E+00  0.12072637758E+04  0.12072637758E+04  0.00000000000E+00 0. -1.
         -2   -1    0    0    0  501 -0.00000000000E+00 -0.00000000000E+00 -0.53191364005E+03  0.53191364005E+03  0.00000000000E+00 0.  1.
         23    2    1    2    0    0 -0.11910470212E+03  0.38628358500E+03  0.60845869509E+03  0.73640279230E+03  0.93092162799E+02 0.  0.
        254    2    1    2    0    0  0.11910470212E+03 -0.38628358500E+03  0.66891440637E+02  0.10027746235E+04  0.91524944286E+03 0.  0.
        -24    2    4    4    0    0  0.35169674636E+03 -0.48051894684E+03  0.28116771309E+03  0.66320780895E+03  0.78741699861E+02 0.  0.
         24    2    4    4    0    0 -0.23259204424E+03  0.94235361844E+02 -0.21427627245E+03  0.33956681458E+03  0.80074578739E+02 0.  0.
         11    1    3    3    0    0 -0.78392764041E+01  0.16973840698E+03  0.22039315575E+03  0.27829071878E+03  0.00000000000E+00 0. -1.
        -11    1    3    3    0    0 -0.11126542571E+03  0.21654517802E+03  0.38806553935E+03  0.45811207353E+03  0.00000000000E+00 0.  1.
          4    1    6    6  502    0 -0.15063520532E+03  0.24063323713E+02 -0.99980647118E+02  0.18239007218E+03  0.00000000000E+00 0. -1.
          1    1    5    5  503    0  0.18526451992E+03 -0.18704913999E+03  0.12130027160E+03  0.28986907217E+03  0.00000000000E+00 0. -1.
         -2    1    5    5    0  503  0.16643222644E+03 -0.29346980685E+03  0.15986744148E+03  0.37333873677E+03  0.00000000000E+00 0.  1.
         -3    1    6    6    0  502 -0.81956838917E+02  0.70172038131E+02 -0.11429562533E+03  0.15717674240E+03  0.00000000000E+00 0.  1.
<mgrwt>
<rscale>  0 0.16026978E+04</rscale>
<asrwt>0</asrwt>
<pdfrwt beam="1">  1        2 0.18573289E+00 0.16026978E+04</pdfrwt>
<pdfrwt beam="2">  1       -2 0.81832868E-01 0.16026978E+04</pdfrwt>
<totfact> 0.23616316E+01</totfact>
</mgrwt>
</event>
<event>
12    1  0.1114484E-007  0.1705422E+04  0.7818608E-02  0.8758278E-01
         -2   -1    0    0    0  501 -0.00000000000E+00  0.00000000000E+00  0.58206004022E+03  0.58206004022E+03  0.00000000000E+00 0.  1.
          2   -1    0    0  501    0  0.00000000000E+00 -0.00000000000E+00 -0.12492113932E+04  0.12492113932E+04  0.00000000000E+00 0. -1.
         23    2    1    2    0    0 -0.31073734105E+03 -0.52732343799E+03 -0.23786433114E+03  0.66808344242E+03  0.12299732773E+03 0.  0.
        254    2    1    2    0    0  0.31073734105E+03  0.52732343799E+03 -0.42928702189E+03  0.11631879910E+04  0.89111797870E+03 0.  0.
        -24    2    4    4    0    0  0.30997721110E+03  0.29674969468E+03 -0.68321758458E+03  0.81078392250E+03  0.80237450163E+02 0.  0.
         24    2    4    4    0    0  0.76012994734E+00  0.23057374331E+03  0.25393056269E+03  0.35240406855E+03  0.80889232648E+02 0.  0.
         13    1    3    3    0    0 -0.30003228589E+03 -0.52016147034E+03 -0.24993948495E+03  0.65042837726E+03  0.00000000000E+00 0.  1.
        -13    1    3    3    0    0 -0.10705055157E+02 -0.71619676516E+01  0.12075153804E+02  0.17655065164E+02  0.00000000000E+00 0. -1.
          4    1    6    6  502    0  0.35492117900E+02  0.15439950372E+03  0.14293592277E+03  0.21337660415E+03  0.00000000000E+00 0. -1.
          3    1    5    5  503    0  0.91531948072E+02  0.68225968560E+02 -0.24648968773E+03  0.27164323379E+03  0.00000000000E+00 0. -1.
         -4    1    5    5    0  503  0.21844526303E+03  0.22852372612E+03 -0.43672789685E+03  0.53914068871E+03  0.00000000000E+00 0.  1.
         -3    1    6    6    0  502 -0.34731987953E+02  0.76174239588E+02  0.11099463992E+03  0.13902746439E+03  0.00000000000E+00 0.  1.
<mgrwt>
<rscale>  0 0.17054220E+04</rscale>
<asrwt>0</asrwt>
<pdfrwt beam="1">  1        2 0.19218637E+00 0.17054220E+04</pdfrwt>
<pdfrwt beam="2">  1       -2 0.89547698E-01 0.17054220E+04</pdfrwt>
<totfact> 0.18009143E+01</totfact>
</mgrwt>
</event>
<event>
12    1  0.1114484E-007  0.1768032E+04  0.7818608E-02  0.8723487E-01
         -1   -1    0    0    0  501 -0.00000000000E+00  0.00000000000E+00  0.97264917775E+03  0.97264917775E+03  0.00000000000E+00 0.  1.
          1   -1    0    0  501    0  0.00000000000E+00 -0.00000000000E+00 -0.80345980177E+03  0.80345980177E+03  0.00000000000E+00 0. -1.
         23    2    1    2    0    0 -0.99200884125E+01  0.12079214199E+03 -0.57929597203E+03  0.59878157066E+03  0.90919725157E+02 0.  0.
        254    2    1    2    0    0  0.99200884125E+01 -0.12079214199E+03  0.74848534802E+03  0.11773274089E+04  0.90065551779E+03 0.  0.
        -24    2    4    4    0    0  0.36316357100E+03  0.18680239353E+03  0.23413023165E+03  0.47730456107E+03  0.78865487439E+02 0.  0.
         24    2    4    4    0    0 -0.35324348259E+03 -0.30759453553E+03  0.51435511636E+03  0.70002284779E+03  0.77945143673E+02 0.  0.
         11    1    3    3    0    0  0.28497109109E+02  0.59919783139E+02 -0.15777910638E+03  0.17116282321E+03  0.00000000000E+00 0. -1.
        -11    1    3    3    0    0 -0.38417197521E+02  0.60872358852E+02 -0.42151686565E+03  0.42761874745E+03  0.00000000000E+00 0.  1.
          4    1    6    6  502    0  0.59239403175E+00 -0.13563868712E+02  0.74971163579E+01  0.15509230117E+02  0.00000000000E+00 0. -1.
          1    1    5    5  503    0  0.10136651836E+03  0.90865005832E+02  0.61596414636E+02  0.14941799967E+03  0.00000000000E+00 0. -1.
         -2    1    5    5    0  503  0.26179705264E+03  0.95937387703E+02  0.17253381702E+03  0.32788656140E+03  0.00000000000E+00 0.  1.
         -3    1    6    6    0  502 -0.35383587662E+03 -0.29403066681E+03  0.50685800000E+03  0.68451361767E+03  0.00000000000E+00 0.  1.
<mgrwt>
<rscale>  0 0.17680323E+04</rscale>
<asrwt>0</asrwt>
<pdfrwt beam="1">  1        1 0.12360920E+00 0.17680323E+04</pdfrwt>
<pdfrwt beam="2">  1       -1 0.14963834E+00 0.17680323E+04</pdfrwt>
<totfact> 0.72962293E+00</totfact>
</mgrwt>
</event>
<event>
12    1  0.1114484E-007  0.2553590E+04  0.7818608E-02  0.8384139E-01
          1   -1    0    0  501    0  0.00000000000E+00  0.00000000000E+00  0.19350827062E+04  0.19350827062E+04  0.00000000000E+00 0. -1.
         -1   -1    0    0    0  501 -0.00000000000E+00 -0.00000000000E+00 -0.84244763163E+03  0.84244763163E+03  0.00000000000E+00 0.  1.
         23    2    1    2    0    0 -0.15881200473E+03  0.10784118685E+04  0.59825814312E+03  0.12466989281E+04  0.90288430020E+02 0.  0.
        254    2    1    2    0    0  0.15881200473E+03 -0.10784118685E+04  0.49437693143E+03  0.15308314097E+04  0.95438086917E+03 0.  0.
        -24    2    4    4    0    0  0.14463838145E+03  0.49606001500E+02 -0.15029596790E+03  0.22907550924E+03  0.80657883653E+02 0.  0.
         24    2    4    4    0    0  0.14173623279E+02 -0.11280178700E+04  0.64467289932E+03  0.13017559004E+04  0.79624559377E+02 0.  0.
         13    1    3    3    0    0 -0.15006783952E+03  0.73514152833E+03  0.41790369794E+03  0.85883463129E+03  0.00000000000E+00 0. -1.
        -13    1    3    3    0    0 -0.87441652073E+01  0.34327034020E+03  0.18035444517E+03  0.38786429686E+03  0.00000000000E+00 0.  1.
          2    1    6    6  502    0 -0.25359707808E+02 -0.28011423156E+03  0.13913556707E+03  0.31379261229E+03  0.00000000000E+00 0. -1.
          3    1    5    5  503    0  0.87581981980E+01 -0.65589405925E+01  0.76006269785E+01  0.13322734998E+02  0.00000000000E+00 0. -1.
         -4    1    5    5    0  503  0.13588018325E+03  0.56164942092E+02 -0.15789659487E+03  0.21575277424E+03  0.00000000000E+00 0.  1.
         -1    1    6    6    0  502  0.39533331088E+02 -0.84790363847E+03  0.50553733225E+03  0.98796328813E+03  0.00000000000E+00 0.  1.
<mgrwt>
<rscale>  0 0.25535903E+04</rscale>
<asrwt>0</asrwt>
<pdfrwt beam="1">  1        1 0.29770503E+00 0.25535903E+04</pdfrwt>
<pdfrwt beam="2">  1       -1 0.12960733E+00 0.25535903E+04</pdfrwt>
<totfact> 0.14902833E+00</totfact>
</mgrwt>
</event>
<event>
12    1  0.1114484E-007  0.1433403E+04  0.7818608E-02  0.8929988E-01
          1   -1    0    0  501    0  0.00000000000E+00  0.00000000000E+00  0.10299438495E+04  0.10299438495E+04  0.00000000000E+00 0. -1.
         -1   -1    0    0    0  501 -0.00000000000E+00 -0.00000000000E+00 -0.49872728716E+03  0.49872728716E+03  0.00000000000E+00 0.  1.
         23    2    1    2    0    0 -0.46591871347E+02  0.38866588466E+03  0.34320986713E+03  0.52816348276E+03  0.89059975568E+02 0.  0.
        254    2    1    2    0    0  0.46591871347E+02 -0.38866588466E+03  0.18800669523E+03  0.10005076539E+04  0.90135291409E+03 0.  0.
        -24    2    4    4    0    0 -0.78348830148E+02 -0.58394076898E+03 -0.12008492194E+03  0.60656739171E+03  0.79863955303E+02 0.  0.
         24    2    4    4    0    0  0.12494070149E+03  0.19527488431E+03  0.30809161717E+03  0.39394026221E+03  0.80783824405E+02 0.  0.
         11    1    3    3    0    0 -0.12037841403E+02  0.98493621253E+01  0.35984074228E+02  0.39201698406E+02  0.00000000000E+00 0.  1.
        -11    1    3    3    0    0 -0.34554029944E+02  0.37881652254E+03  0.30722579290E+03  0.48896178435E+03  0.00000000000E+00 0. -1.
          4    1    6    6  502    0  0.80783278058E+02  0.15450639854E+03  0.27421877156E+03  0.32495245788E+03  0.00000000000E+00 0. -1.
          1    1    5    5  503    0 -0.62085514357E+02 -0.55184884070E+03 -0.96777689235E+02  0.56369998688E+03  0.00000000000E+00 0. -1.
         -4    1    5    5    0  503 -0.16263315791E+02 -0.32091928277E+02 -0.23307232703E+02  0.42867404836E+02  0.00000000000E+00 0.  1.
         -3    1    6    6    0  502  0.44157423436E+02  0.40768485775E+02  0.33872845605E+02  0.68987804330E+02  0.00000000000E+00 0.  1.
<mgrwt>
<rscale>  0 0.14334031E+04</rscale>
<asrwt>0</asrwt>
<pdfrwt beam="1">  1        1 0.15845290E+00 0.14334031E+04</pdfrwt>
<pdfrwt beam="2">  1       -1 0.76727275E-01 0.14334031E+04</pdfrwt>
<totfact> 0.23774293E+01</totfact>
</mgrwt>
</event>
<event>
12    1  0.1114484E-007  0.3334460E+04  0.7818608E-02  0.8154182E-01
          1   -1    0    0  501    0  0.00000000000E+00  0.00000000000E+00  0.11853280734E+04  0.11853280734E+04  0.00000000000E+00 0. -1.
         -1   -1    0    0    0  501 -0.00000000000E+00 -0.00000000000E+00 -0.23450513877E+04  0.23450513877E+04  0.00000000000E+00 0.  1.
         23    2    1    2    0    0  0.14019337631E+03 -0.14417067898E+04 -0.11064046658E+04  0.18249846710E+04  0.90912674967E+02 0.  0.
        254    2    1    2    0    0 -0.14019337631E+03  0.14417067898E+04 -0.53318648557E+02  0.17053947901E+04  0.89852983328E+03 0.  0.
        -24    2    4    4    0    0 -0.66861506929E+02 -0.75511754618E+02  0.11858714588E+03  0.17470501492E+03  0.79287104087E+02 0.  0.
         24    2    4    4    0    0 -0.73331869380E+02  0.15172185444E+04 -0.17190579444E+03  0.15306897752E+04  0.78293748591E+02 0.  0.
         13    1    3    3    0    0 -0.88722851333E+01 -0.15366174042E+03 -0.13652505260E+03  0.20574192062E+03  0.00000000000E+00 0.  1.
        -13    1    3    3    0    0  0.14906566144E+03 -0.12880450494E+04 -0.96987961317E+03  0.16192427504E+04  0.00000000000E+00 0. -1.
          4    1    6    6  502    0 -0.72796083771E+02  0.13447670365E+04 -0.17600786599E+03  0.13581886544E+04  0.00000000000E+00 0. -1.
          1    1    5    5  503    0 -0.31799733671E+02 -0.84509244228E+02  0.97167738339E+02  0.13264465611E+03  0.00000000000E+00 0. -1.
         -2    1    5    5    0  503 -0.35061773258E+02  0.89974896099E+01  0.21419407545E+02  0.42060358806E+02  0.00000000000E+00 0.  1.
         -1    1    6    6    0  502 -0.53578560991E+00  0.17245150798E+03  0.41020715493E+01  0.17250112076E+03  0.00000000000E+00 0.  1.
<mgrwt>
<rscale>  0 0.33344596E+04</rscale>
<asrwt>0</asrwt>
<pdfrwt beam="1">  1        1 0.18235816E+00 0.33344596E+04</pdfrwt>
<pdfrwt beam="2">  1       -1 0.36077714E+00 0.33344596E+04</pdfrwt>
<totfact> 0.11929781E-01</totfact>
</mgrwt>
</event>
<event>
12    1  0.1114484E-007  0.2496342E+04  0.7818608E-02  0.8404290E-01
         -2   -1    0    0    0  501 -0.00000000000E+00  0.00000000000E+00  0.35659547765E+03  0.35659547765E+03  0.00000000000E+00 0.  1.
          2   -1    0    0  501    0  0.00000000000E+00 -0.00000000000E+00 -0.43689039281E+04  0.43689039281E+04  0.00000000000E+00 0. -1.
         23    2    1    2    0    0  0.12194422342E+03 -0.64408879938E+03 -0.11397921003E+03  0.67160849489E+03  0.91356088899E+02 0.  0.
        254    2    1    2    0    0 -0.12194422342E+03  0.64408879938E+03 -0.38983292404E+04  0.40538909109E+04  0.89852093754E+03 0.  0.
        -24    2    4    4    0    0  0.35859091843E+03  0.44917463697E+03 -0.22790716271E+04  0.23517430404E+04  0.78629164325E+02 0.  0.
         24    2    4    4    0    0 -0.48053514185E+03  0.19491416241E+03 -0.16192576134E+04  0.17021478705E+04  0.80041246898E+02 0.  0.
         11    1    3    3    0    0  0.56783758758E+02 -0.50100686243E+03 -0.76530542892E+02  0.50998940720E+03  0.00000000000E+00 0.  1.
        -11    1    3    3    0    0  0.65160464659E+02 -0.14308193695E+03 -0.37448667134E+02  0.16161908769E+03  0.00000000000E+00 0. -1.
          2    1    6    6  502    0 -0.35789473489E+03  0.16135261473E+03 -0.11145521033E+04  0.11816724159E+04  0.00000000000E+00 0. -1.
          1    1    5    5  503    0  0.25663177161E+03  0.37146072667E+03 -0.17369386136E+04  0.17946583756E+04  0.00000000000E+00 0. -1.
         -2    1    5    5    0  503  0.10195914683E+03  0.77713910295E+02 -0.54213301341E+03  0.55708466476E+03  0.00000000000E+00 0.  1.
         -1    1    6    6    0  502 -0.12264040696E+03  0.33561547685E+02 -0.50470551008E+03  0.52047545457E+03  0.00000000000E+00 0.  1.
<mgrwt>
<rscale>  0 0.24963424E+04</rscale>
<asrwt>0</asrwt>
<pdfrwt beam="1">  1        2 0.67213905E+00 0.24963424E+04</pdfrwt>
<pdfrwt beam="2">  1       -2 0.54860844E-01 0.24963424E+04</pdfrwt>
<totfact> 0.45992099E-01</totfact>
</mgrwt>
</event>
<event>
12    1  0.1114484E-007  0.1851457E+04  0.7818608E-02  0.8679404E-01
         -2   -1    0    0    0  501 -0.00000000000E+00  0.00000000000E+00  0.91226954848E+03  0.91226954848E+03  0.00000000000E+00 0.  1.
          2   -1    0    0  501    0  0.00000000000E+00 -0.00000000000E+00 -0.93938554413E+03  0.93938554413E+03  0.00000000000E+00 0. -1.
         23    2    1    2    0    0 -0.56767809722E+03  0.35044132752E+03  0.21314188484E+03  0.70614505244E+03  0.90243148831E+02 0.  0.
        254    2    1    2    0    0  0.56767809722E+03 -0.35044132752E+03 -0.24025788049E+03  0.11455100402E+04  0.89966763690E+03 0.  0.
        -24    2    4    4    0    0 -0.21005867549E+03 -0.17385476735E+03 -0.19314875721E+03  0.34260802706E+03  0.75655075940E+02 0.  0.
         24    2    4    4    0    0  0.77773677271E+03 -0.17658656018E+03 -0.47109123278E+02  0.80290201311E+03  0.79844049815E+02 0.  0.
         11    1    3    3    0    0 -0.15883860703E+03  0.14339146292E+03  0.85362647638E+02  0.23038575549E+03  0.00000000000E+00 0. -1.
        -11    1    3    3    0    0 -0.40883949020E+03  0.20704986460E+03  0.12777923720E+03  0.47575929695E+03  0.00000000000E+00 0.  1.
          4    1    6    6  502    0  0.65468498287E+03 -0.17797121154E+03 -0.41662392513E+02  0.67972195337E+03  0.00000000000E+00 0. -1.
          3    1    5    5  503    0 -0.15556287312E+03 -0.10457102571E+03 -0.93176452986E+02  0.20932452867E+03  0.00000000000E+00 0. -1.
         -2    1    5    5    0  503 -0.54495802372E+02 -0.69283741631E+02 -0.99972304228E+02  0.13328349839E+03  0.00000000000E+00 0.  1.
         -3    1    6    6    0  502  0.12305178984E+03  0.13846513616E+01 -0.54467307650E+01  0.12318005974E+03  0.00000000000E+00 0.  1.
<mgrwt>
<rscale>  0 0.18514565E+04</rscale>
<asrwt>0</asrwt>
<pdfrwt beam="1">  1        2 0.14452085E+00 0.18514565E+04</pdfrwt>
<pdfrwt beam="2">  1       -2 0.14034916E+00 0.18514565E+04</pdfrwt>
<totfact> 0.92560945E+00</totfact>
</mgrwt>
</event>
<event>
12    1  0.1114484E-007  0.2190685E+04  0.7818608E-02  0.8522315E-01
         -1   -1    0    0    0  501 -0.00000000000E+00  0.00000000000E+00  0.14975554060E+04  0.14975554060E+04  0.00000000000E+00 0.  1.
          1   -1    0    0  501    0  0.00000000000E+00 -0.00000000000E+00 -0.80115581322E+03  0.80115581322E+03  0.00000000000E+00 0. -1.
         23    2    1    2    0    0 -0.89763843862E+03  0.14308192360E+03  0.35394837197E+03  0.97980253814E+03  0.92229932153E+02 0.  0.
        254    2    1    2    0    0  0.89763843862E+03 -0.14308192360E+03  0.34245122077E+03  0.13189086810E+04  0.89219956679E+03 0.  0.
        -24    2    4    4    0    0  0.43328715481E+03  0.27912707917E+03 -0.11964842215E+03  0.53508522529E+03  0.79691709443E+02 0.  0.
         24    2    4    4    0    0  0.46435128381E+03 -0.42220900277E+03  0.46209964292E+03  0.78382345576E+03  0.83430048628E+02 0.  0.
         13    1    3    3    0    0 -0.82497995137E+03  0.13778032308E+03  0.29785789177E+03  0.88785959547E+03  0.00000000000E+00 0.  1.
        -13    1    3    3    0    0 -0.72658487251E+02  0.53016005207E+01  0.56090480197E+02  0.91942942668E+02  0.00000000000E+00 0. -1.
          2    1    6    6  502    0  0.15375715141E+03 -0.89405663125E+02  0.12593775570E+03  0.21793336716E+03  0.00000000000E+00 0. -1.
          3    1    5    5  503    0  0.18730347541E+03  0.14885383526E+03 -0.88092148930E+02  0.25495153045E+03  0.00000000000E+00 0. -1.
         -4    1    5    5    0  503  0.24598367939E+03  0.13027324390E+03 -0.31556273217E+02  0.28013369484E+03  0.00000000000E+00 0.  1.
         -1    1    6    6    0  502  0.31059413240E+03 -0.33280333965E+03  0.33616188721E+03  0.56589008860E+03  0.00000000000E+00 0.  1.
<mgrwt>
<rscale>  0 0.21906850E+04</rscale>
<asrwt>0</asrwt>
<pdfrwt beam="1">  1        1 0.12325474E+00 0.21906850E+04</pdfrwt>
<pdfrwt beam="2">  1       -1 0.23039314E+00 0.21906850E+04</pdfrwt>
<totfact> 0.18883040E+00</totfact>
</mgrwt>
</event>
<event>
12    1  0.1114484E-007  0.1146442E+04  0.7818608E-02  0.9161072E-01
          2   -1    0    0  501    0  0.00000000000E+00  0.00000000000E+00  0.13679064714E+04  0.13679064714E+04  0.00000000000E+00 0. -1.
         -2   -1    0    0    0  501 -0.00000000000E+00 -0.00000000000E+00 -0.24020815812E+03  0.24020815812E+03  0.00000000000E+00 0.  1.
         23    2    1    2    0    0 -0.11430229399E+03  0.11455238282E+03  0.39611948585E+03  0.43797816024E+03  0.93418193927E+02 0.  0.
        254    2    1    2    0    0  0.11430229399E+03 -0.11455238282E+03  0.73157882746E+03  0.11701364693E+04  0.89879058363E+03 0.  0.
        -24    2    4    4    0    0  0.42346784394E+03 -0.31330351485E+03  0.47461029619E+03  0.71340409829E+03  0.78780498450E+02 0.  0.
         24    2    4    4    0    0 -0.30916554995E+03  0.19875113203E+03  0.25696853127E+03  0.45673237103E+03  0.86523308553E+02 0.  0.
         11    1    3    3    0    0 -0.32626265035E+02  0.79482503778E+02  0.11776235515E+03  0.14577350194E+03  0.00000000000E+00 0.  1.
        -11    1    3    3    0    0 -0.81676028954E+02  0.35069879041E+02  0.27835713070E+03  0.29220465830E+03  0.00000000000E+00 0. -1.
          2    1    6    6  502    0 -0.40049861886E+02  0.17341641215E+02  0.69102803702E+02  0.81730786345E+02  0.00000000000E+00 0. -1.
          3    1    5    5  503    0  0.21305760595E+03 -0.11875401542E+03  0.18654874836E+03  0.30707734392E+03  0.00000000000E+00 0. -1.
         -4    1    5    5    0  503  0.21041023799E+03 -0.19454949944E+03  0.28806154783E+03  0.40632675437E+03  0.00000000000E+00 0.  1.
         -1    1    6    6    0  502 -0.26911568807E+03  0.18140949082E+03  0.18786572757E+03  0.37500158468E+03  0.00000000000E+00 0.  1.
<mgrwt>
<rscale>  0 0.11464420E+04</rscale>
<asrwt>0</asrwt>
<pdfrwt beam="1">  1        2 0.21044715E+00 0.11464420E+04</pdfrwt>
<pdfrwt beam="2">  1       -2 0.36955102E-01 0.11464420E+04</pdfrwt>
<totfact> 0.10306410E+02</totfact>
</mgrwt>
</event>
<event>
12    1  0.1114484E-007  0.1817263E+04  0.7818608E-02  0.8697173E-01
          2   -1    0    0  501    0  0.00000000000E+00  0.00000000000E+00  0.35091078935E+04  0.35091078935E+04  0.00000000000E+00 0.  1.
         -2   -1    0    0    0  501 -0.00000000000E+00 -0.00000000000E+00 -0.23527654422E+03  0.23527654422E+03  0.00000000000E+00 0. -1.
         23    2    1    2    0    0 -0.47435616974E+03  0.66437398974E+02  0.25010887492E+03  0.55352312819E+03  0.12002374923E+03 0.  0.
        254    2    1    2    0    0  0.47435616974E+03 -0.66437398974E+02  0.30237224744E+04  0.31908613096E+04  0.89959468153E+03 0.  0.
        -24    2    4    4    0    0 -0.76692389107E+02  0.29077026414E+03  0.56860553414E+03  0.64822841125E+03  0.80366352642E+02 0.  0.
         24    2    4    4    0    0  0.55104855884E+03 -0.35720766312E+03  0.24551169403E+04  0.25426328983E+04  0.78300935735E+02 0.  0.
         13    1    3    3    0    0 -0.40393167666E+03  0.10879885923E+02  0.20637870224E+03  0.45373047073E+03  0.00000000000E+00 0. -1.
        -13    1    3    3    0    0 -0.70424493075E+02  0.55557513051E+02  0.43730172685E+02  0.99792657467E+02  0.00000000000E+00 0.  1.
          4    1    6    6  502    0  0.23678539987E+03 -0.11069575162E+03  0.10225105972E+04  0.10553903527E+04  0.00000000000E+00 0. -1.
          1    1    5    5  503    0 -0.54913646019E+02  0.81883446087E+02  0.22285446037E+03  0.24368938788E+03  0.00000000000E+00 0. -1.
         -2    1    5    5    0  503 -0.21778743088E+02  0.20888681806E+03  0.34575107377E+03  0.40453902336E+03  0.00000000000E+00 0.  1.
         -3    1    6    6    0  502  0.31426315897E+03 -0.24651191150E+03  0.14326063430E+04  0.14872425457E+04  0.00000000000E+00 0.  1.
<mgrwt>
<rscale>  0 0.18172625E+04</rscale>
<asrwt>0</asrwt>
<pdfrwt beam="1">  1        2 0.53986271E+00 0.18172625E+04</pdfrwt>
<pdfrwt beam="2">  1       -2 0.36196394E-01 0.18172625E+04</pdfrwt>
<totfact> 0.54680508E+00</totfact>
</mgrwt>
</event>
<event>
12    1  0.1114484E-007  0.1930302E+04  0.7818608E-02  0.8639918E-01
         -2   -1    0    0    0  501 -0.00000000000E+00  0.00000000000E+00  0.75667566654E+03  0.75667566654E+03  0.00000000000E+00 0.  1.
          2   -1    0    0  501    0  0.00000000000E+00 -0.00000000000E+00 -0.12310646410E+04  0.12310646410E+04  0.00000000000E+00 0. -1.
         23    2    1    2    0    0  0.49744581898E+03 -0.13322843933E+03 -0.75789501590E+03  0.92075130482E+03  0.90420961879E+02 0.  0.
        254    2    1    2    0    0 -0.49744581898E+03  0.13322843933E+03  0.28350604143E+03  0.10669890027E+04  0.89044241619E+03 0.  0.
        -24    2    4    4    0    0 -0.14470625259E+03  0.36741232783E+03  0.45118257748E+03  0.60471505122E+03  0.78631143753E+02 0.  0.
         24    2    4    4    0    0 -0.35273956638E+03 -0.23418388850E+03 -0.16767653605E+03  0.46227395151E+03  0.79463766461E+02 0.  0.
         11    1    3    3    0    0  0.37378113984E+03 -0.73631924294E+02 -0.50000610929E+03  0.62860171023E+03  0.00000000000E+00 0. -1.
        -11    1    3    3    0    0  0.12366467914E+03 -0.59596515035E+02 -0.25788890660E+03  0.29214959459E+03  0.00000000000E+00 0.  1.
          2    1    6    6  502    0 -0.96052100657E+02 -0.45144674137E+02 -0.99350626952E+01  0.10659621529E+03  0.00000000000E+00 0. -1.
          1    1    5    5  503    0  0.58811491583E+01  0.60116665257E+02  0.69944936630E+02  0.92416965528E+02  0.00000000000E+00 0. -1.
         -2    1    5    5    0  503 -0.15058740175E+03  0.30729566257E+03  0.38123764085E+03  0.51229808569E+03  0.00000000000E+00 0.  1.
         -1    1    6    6    0  502 -0.25668746573E+03 -0.18903921437E+03 -0.15774147335E+03  0.35567773622E+03  0.00000000000E+00 0.  1.
<mgrwt>
<rscale>  0 0.19303022E+04</rscale>
<asrwt>0</asrwt>
<pdfrwt beam="1">  1        2 0.18939456E+00 0.19303022E+04</pdfrwt>
<pdfrwt beam="2">  1       -2 0.11641164E+00 0.19303022E+04</pdfrwt>
<totfact> 0.97066614E+00</totfact>
</mgrwt>
</event>
<event>
12    1  0.1114484E-007  0.2335845E+04  0.7818608E-02  0.8463921E-01
         -2   -1    0    0    0  501 -0.00000000000E+00  0.00000000000E+00  0.45153298644E+03  0.45153298644E+03  0.00000000000E+00 0.  1.
          2   -1    0    0  501    0  0.00000000000E+00 -0.00000000000E+00 -0.30209144272E+04  0.30209144272E+04  0.00000000000E+00 0. -1.
         23    2    1    2    0    0  0.24651731448E+03 -0.48511895378E+03 -0.23294945892E+04  0.23939284925E+04  0.90760126964E+02 0.  0.
        254    2    1    2    0    0 -0.24651731448E+03  0.48511895378E+03 -0.23988685158E+03  0.10785189211E+04  0.89974784021E+03 0.  0.
        -24    2    4    4    0    0 -0.50795576897E+03  0.54549081703E+03 -0.73338913249E+02  0.75344589677E+03  0.81992856228E+02 0.  0.
         24    2    4    4    0    0  0.26143845449E+03 -0.60371863252E+02 -0.16654793833E+03  0.32507302433E+03  0.77067684731E+02 0.  0.
         13    1    3    3    0    0  0.32896772063E+02 -0.31240070740E+02 -0.29699335793E+03  0.30043833692E+03  0.00000000000E+00 0.  1.
        -13    1    3    3    0    0  0.21362054242E+03 -0.45387888304E+03 -0.20325012312E+04  0.20934901556E+04  0.00000000000E+00 0. -1.
          2    1    6    6  502    0  0.25589955708E+03 -0.57275196664E+02 -0.17443611669E+03  0.31494918681E+03  0.00000000000E+00 0. -1.
          3    1    5    5  503    0 -0.41479923797E+03  0.47360919278E+03 -0.84642902656E+02  0.63523892850E+03  0.00000000000E+00 0. -1.
         -2    1    5    5    0  503 -0.93156530998E+02  0.71881624253E+02  0.11303989407E+02  0.11820696828E+03  0.00000000000E+00 0.  1.
         -1    1    6    6    0  502  0.55388974058E+01 -0.30966665875E+01  0.78881783559E+01  0.10123837523E+02  0.00000000000E+00 0.  1.
<mgrwt>
<rscale>  0 0.23358446E+04</rscale>
<asrwt>0</asrwt>
<pdfrwt beam="1">  1        2 0.46475606E+00 0.23358446E+04</pdfrwt>
<pdfrwt beam="2">  1       -2 0.69466615E-01 0.23358446E+04</pdfrwt>
<totfact> 0.28885339E+00</totfact>
</mgrwt>
</event>
<event>
12    1  0.1114484E-007  0.1509546E+04  0.7818608E-02  0.8878129E-01
         -2   -1    0    0    0  501 -0.00000000000E+00  0.00000000000E+00  0.64748978926E+03  0.64748978926E+03  0.00000000000E+00 0.  1.
          2   -1    0    0  501    0  0.00000000000E+00 -0.00000000000E+00 -0.87983237812E+03  0.87983237812E+03  0.00000000000E+00 0. -1.
         23    2    1    2    0    0 -0.37780004319E+03 -0.29734392067E+03 -0.56051427549E+02  0.49239264818E+03  0.90346431352E+02 0.  0.
        254    2    1    2    0    0  0.37780004319E+03  0.29734392067E+03 -0.17629116131E+03  0.10349295192E+04  0.89936325050E+03 0.  0.
        -24    2    4    4    0    0  0.41309340900E+03 -0.14662717494E+03  0.15806889347E+03  0.47272869557E+03  0.79630091915E+02 0.  0.
         24    2    4    4    0    0 -0.35293365808E+02  0.44397109561E+03 -0.33436005478E+03  0.56220082363E+03  0.76923107361E+02 0.  0.
         13    1    3    3    0    0 -0.25605892140E+03 -0.16274629607E+03 -0.33918511624E+01  0.30342055429E+03  0.00000000000E+00 0. -1.
        -13    1    3    3    0    0 -0.12174112179E+03 -0.13459762460E+03 -0.52659576387E+02  0.18897209389E+03  0.00000000000E+00 0.  1.
          4    1    6    6  502    0 -0.51053635862E+01  0.93156027371E+02 -0.33718537998E+02  0.99202066398E+02  0.00000000000E+00 0. -1.
          3    1    5    5  503    0  0.10614764715E+02 -0.19670978363E+02  0.15776698420E+02  0.27359181873E+02  0.00000000000E+00 0. -1.
         -4    1    5    5    0  503  0.40247864429E+03 -0.12695619658E+03  0.14229219505E+03  0.44536951369E+03  0.00000000000E+00 0.  1.
         -3    1    6    6    0  502 -0.30188002222E+02  0.35081506824E+03 -0.30064151678E+03  0.46299875723E+03  0.00000000000E+00 0.  1.
<mgrwt>
<rscale>  0 0.15095463E+04</rscale>
<asrwt>0</asrwt>
<pdfrwt beam="1">  1        2 0.13535883E+00 0.15095463E+04</pdfrwt>
<pdfrwt beam="2">  1       -2 0.99613814E-01 0.15095463E+04</pdfrwt>
<totfact> 0.24364112E+01</totfact>
</mgrwt>
</event>
<event>
12    1  0.1114484E-007  0.1606758E+04  0.7818608E-02  0.8816407E-01
         -1   -1    0    0    0  501 -0.00000000000E+00  0.00000000000E+00  0.46983018376E+03  0.46983018376E+03  0.00000000000E+00 0.  1.
          1   -1    0    0  501    0  0.00000000000E+00 -0.00000000000E+00 -0.13737250545E+04  0.13737250545E+04  0.00000000000E+00 0. -1.
         23    2    1    2    0    0  0.78144051168E+02 -0.10732165151E+03 -0.91696209577E+03  0.93117871659E+03  0.93004771523E+02 0.  0.
        254    2    1    2    0    0 -0.78144051168E+02  0.10732165151E+03  0.13067225082E+02  0.91237652163E+03  0.90257173412E+03 0.  0.
        -24    2    4    4    0    0 -0.43981501763E+03 -0.11420813808E+03  0.10041137818E+03  0.47212721647E+03  0.79629863282E+02 0.  0.
         24    2    4    4    0    0  0.36167096646E+03  0.22152978959E+03 -0.87344153100E+02  0.44024930515E+03  0.79429931055E+02 0.  0.
         11    1    3    3    0    0  0.79524581679E+02 -0.12040246928E+03 -0.75373813758E+03  0.76742562750E+03  0.00000000000E+00 0. -1.
        -11    1    3    3    0    0 -0.13805305104E+01  0.13080817769E+02 -0.16322395819E+03  0.16375308909E+03  0.00000000000E+00 0.  1.
          4    1    6    6  502    0  0.50700938052E+01 -0.41541882421E+01  0.50052505282E+01  0.82471609657E+01  0.00000000000E+00 0. -1.
          3    1    5    5  503    0 -0.14161587644E+03  0.36093703326E+00  0.38158995479E+02  0.14666729585E+03  0.00000000000E+00 0. -1.
         -4    1    5    5    0  503 -0.29819914120E+03 -0.11456907512E+03  0.62252382703E+02  0.32545992063E+03  0.00000000000E+00 0.  1.
         -3    1    6    6    0  502  0.35660087266E+03  0.22568397783E+03 -0.92349403628E+02  0.43200214419E+03  0.00000000000E+00 0.  1.
<mgrwt>
<rscale>  0 0.16067576E+04</rscale>
<asrwt>0</asrwt>
<pdfrwt beam="1">  1        1 0.21134231E+00 0.16067576E+04</pdfrwt>
<pdfrwt beam="2">  1       -1 0.72281568E-01 0.16067576E+04</pdfrwt>
<totfact> 0.14846417E+01</totfact>
</mgrwt>
</event>
<event>
12    1  0.1114484E-007  0.1957156E+04  0.7818608E-02  0.8626918E-01
         -2   -1    0    0    0  501 -0.00000000000E+00  0.00000000000E+00  0.23703695049E+03  0.23703695049E+03  0.00000000000E+00 0.  1.
          2   -1    0    0  501    0  0.00000000000E+00 -0.00000000000E+00 -0.40399384290E+04  0.40399384290E+04  0.00000000000E+00 0. -1.
         23    2    1    2    0    0 -0.50469931855E+03 -0.41688910520E+03 -0.62275580316E+03  0.90837443037E+03  0.93815708695E+02 0.  0.
        254    2    1    2    0    0  0.50469931855E+03  0.41688910520E+03 -0.31801456753E+04  0.33686009491E+04  0.89756777447E+03 0.  0.
        -24    2    4    4    0    0  0.53051764301E+03 -0.10583256803E+03 -0.12005326565E+04  0.13194810801E+04  0.84274310838E+02 0.  0.
         24    2    4    4    0    0 -0.25818324458E+02  0.52272167323E+03 -0.19796130188E+04  0.20491198690E+04  0.78230426189E+02 0.  0.
         13    1    3    3    0    0 -0.54469063221E+01 -0.11873784231E+02 -0.34827931851E+02  0.37197316805E+02  0.00000000000E+00 0. -1.
        -13    1    3    3    0    0 -0.49925241223E+03 -0.40501532097E+03 -0.58792787131E+03  0.87117711356E+03  0.00000000000E+00 0.  1.
          4    1    6    6  502    0 -0.22303024153E+02  0.38299939316E+03 -0.13072396074E+04  0.13623734258E+04  0.00000000000E+00 0. -1.
          1    1    5    5  503    0  0.23847596592E+03 -0.12527650302E+02 -0.46886834701E+03  0.52617986960E+03  0.00000000000E+00 0. -1.
         -2    1    5    5    0  503  0.29204167709E+03 -0.93304917732E+02 -0.73166430948E+03  0.79330121051E+03  0.00000000000E+00 0.  1.
         -3    1    6    6    0  502 -0.35153003046E+01  0.13972228007E+03 -0.67237341140E+03  0.68674644320E+03  0.00000000000E+00 0.  1.
<mgrwt>
<rscale>  0 0.19571558E+04</rscale>
<asrwt>0</asrwt>
<pdfrwt beam="1">  1        2 0.62152894E+00 0.19571558E+04</pdfrwt>
<pdfrwt beam="2">  1       -2 0.36467226E-01 0.19571558E+04</pdfrwt>
<totfact> 0.21197068E+00</totfact>
</mgrwt>
</event>
<event>
12    1  0.1114484E-007  0.1744128E+04  0.7818608E-02  0.8736589E-01
         -2   -1    0    0    0  501 -0.00000000000E+00  0.00000000000E+00  0.52108133106E+03  0.52108133106E+03  0.00000000000E+00 0.  1.
          2   -1    0    0  501    0  0.00000000000E+00 -0.00000000000E+00 -0.14594574279E+04  0.14594574279E+04  0.00000000000E+00 0. -1.
         23    2    1    2    0    0  0.53860471638E+03 -0.33697844692E+03 -0.40325671926E+03  0.75789830202E+03  0.90245999199E+02 0.  0.
        254    2    1    2    0    0 -0.53860471638E+03  0.33697844692E+03 -0.53511937761E+03  0.12226404570E+04  0.89713289123E+03 0.  0.
        -24    2    4    4    0    0 -0.46137747806E+03  0.59397819332E+03 -0.56070707065E+03  0.94158010851E+03  0.80631323119E+02 0.  0.
         24    2    4    4    0    0 -0.77227238321E+02 -0.25699974640E+03  0.25587693035E+02  0.28106034847E+03  0.79544160431E+02 0.  0.
         11    1    3    3    0    0  0.96833848913E+02 -0.10192299065E+03 -0.73930290809E+02  0.15884199135E+03  0.00000000000E+00 0. -1.
        -11    1    3    3    0    0  0.44177086747E+03 -0.23505545627E+03 -0.32932642846E+03  0.59905631066E+03  0.00000000000E+00 0.  1.
          2    1    6    6  502    0 -0.15190748480E+02 -0.18068610507E+03  0.11241709757E+02  0.18167169137E+03  0.00000000000E+00 0. -1.
          1    1    5    5  503    0 -0.44158611624E+03  0.56760927323E+03 -0.55433262962E+03  0.90799958665E+03  0.00000000000E+00 0. -1.
         -2    1    5    5    0  503 -0.19791361822E+02  0.26368920089E+02 -0.63744410288E+01  0.33580521852E+02  0.00000000000E+00 0.  1.
         -1    1    6    6    0  502 -0.62036489841E+02 -0.76313641323E+02  0.14345983279E+02  0.99388657099E+02  0.00000000000E+00 0.  1.
<mgrwt>
<rscale>  0 0.17441285E+04</rscale>
<asrwt>0</asrwt>
<pdfrwt beam="1">  1        2 0.22453191E+00 0.17441285E+04</pdfrwt>
<pdfrwt beam="2">  1       -2 0.80166359E-01 0.17441285E+04</pdfrwt>
<totfact> 0.17460882E+01</totfact>
</mgrwt>
</event>
<event>
12    1  0.1114484E-007  0.3941421E+04  0.7818608E-02  0.8016469E-01
         -1   -1    0    0    0  501 -0.00000000000E+00  0.00000000000E+00  0.16255675171E+04  0.16255675171E+04  0.00000000000E+00 0.  1.
          1   -1    0    0  501    0  0.00000000000E+00 -0.00000000000E+00 -0.23891347636E+04  0.23891347636E+04  0.00000000000E+00 0. -1.
         23    2    1    2    0    0  0.18465402737E+04 -0.27012390626E+03 -0.33895256189E+03  0.18989118337E+04  0.91101074647E+02 0.  0.
        254    2    1    2    0    0 -0.18465402737E+04  0.27012390626E+03 -0.42461468463E+03  0.21157904469E+04  0.90199427808E+03 0.  0.
        -24    2    4    4    0    0 -0.19226463358E+04  0.32007025018E+03 -0.41747834540E+03  0.19949165785E+04  0.79938031063E+02 0.  0.
         24    2    4    4    0    0  0.76106062042E+02 -0.49946343922E+02 -0.71363392276E+01  0.12087386842E+03  0.79200977138E+02 0.  0.
         11    1    3    3    0    0  0.93150927403E+03 -0.13752665358E+03 -0.12474333982E+03  0.94983367433E+03  0.00000000000E+00 0. -1.
        -11    1    3    3    0    0  0.91503099971E+03 -0.13259725269E+03 -0.21420922207E+03  0.94907815941E+03  0.00000000000E+00 0.  1.
          2    1    6    6  502    0  0.77808685999E+02 -0.15179657522E+02  0.13487116859E+02  0.80414650037E+02  0.00000000000E+00 0. -1.
          3    1    5    5  503    0 -0.18080541244E+04  0.31435681924E+03 -0.40648236364E+03  0.18796563086E+04  0.00000000000E+00 0. -1.
         -4    1    5    5    0  503 -0.11459221143E+03  0.57134309465E+01 -0.10995981758E+02  0.11526026995E+03  0.00000000000E+00 0.  1.
         -1    1    6    6    0  502 -0.17026239574E+01 -0.34766686400E+02 -0.20623456087E+02  0.40459218388E+02  0.00000000000E+00 0.  1.
<mgrwt>
<rscale>  0 0.39414210E+04</rscale>
<asrwt>0</asrwt>
<pdfrwt beam="1">  1        1 0.36755919E+00 0.39414210E+04</pdfrwt>
<pdfrwt beam="2">  1       -1 0.25008731E+00 0.39414210E+04</pdfrwt>
<totfact> 0.88506340E-02</totfact>
</mgrwt>
</event>
<event>
12    1  0.1121332E-007  0.2183724E+04  0.7818608E-02  0.8525233E-01
          1   -1    0    0  501    0  0.00000000000E+00  0.00000000000E+00  0.13809449799E+04  0.13809449799E+04  0.00000000000E+00 0. -1.
         -1   -1    0    0    0  501 -0.00000000000E+00 -0.00000000000E+00 -0.86329496272E+03  0.86329496272E+03  0.00000000000E+00 0.  1.
         23    2    1    2    0    0 -0.69583245023E+03  0.56173246042E+03  0.11219469630E+03  0.90603931613E+03  0.92700790799E+02 0.  0.
        254    2    1    2    0    0  0.69583245023E+03 -0.56173246042E+03  0.40545532090E+03  0.13382006265E+04  0.90920885591E+03 0.  0.
        -24    2    4    4    0    0 -0.12929477079E+03 -0.40306271678E+03  0.15666826402E+03  0.45830926962E+03  0.79534585307E+02 0.  0.
         24    2    4    4    0    0  0.82512722102E+03 -0.15866974364E+03  0.24878705688E+03  0.87989135689E+03  0.79390061337E+02 0.  0.
         11    1    3    3    0    0 -0.65997513546E+03  0.50568301983E+03  0.92023146353E+02  0.83651106116E+03  0.00000000000E+00 0. -1.
        -11    1    3    3    0    0 -0.35857314773E+02  0.56049440583E+02  0.20171549951E+02  0.69528254974E+02  0.00000000000E+00 0.  1.
          4    1    6    6  502    0  0.60147361562E+02 -0.33419670283E+02  0.21619366633E+02  0.72124728618E+02  0.00000000000E+00 0. -1.
          1    1    5    5  503    0  0.15631383940E+00  0.27252721322E+01  0.58580512993E+01  0.64628404929E+01  0.00000000000E+00 0. -1.
         -2    1    5    5    0  503 -0.12945108463E+03 -0.40578798891E+03  0.15081021272E+03  0.45184642913E+03  0.00000000000E+00 0.  1.
         -3    1    6    6    0  502  0.76497985946E+03 -0.12525007335E+03  0.22716769024E+03  0.80776662827E+03  0.00000000000E+00 0.  1.
<mgrwt>
<rscale>  0 0.21837242E+04</rscale>
<asrwt>0</asrwt>
<pdfrwt beam="1">  1        1 0.21245307E+00 0.21837242E+04</pdfrwt>
<pdfrwt beam="2">  1       -1 0.13281461E+00 0.21837242E+04</pdfrwt>
<totfact> 0.34749126E+00</totfact>
</mgrwt>
</event>
<event>
12    1  0.1114484E-007  0.1397671E+04  0.7818608E-02  0.8955506E-01
          1   -1    0    0  501    0  0.00000000000E+00  0.00000000000E+00  0.10642963769E+04  0.10642963769E+04  0.00000000000E+00 0. -1.
         -1   -1    0    0    0  501 -0.00000000000E+00 -0.00000000000E+00 -0.45886747082E+03  0.45886747082E+03  0.00000000000E+00 0.  1.
         23    2    1    2    0    0 -0.11113014411E+02  0.35588617713E+03 -0.10568024181E+02  0.37859322123E+03  0.12822898997E+03 0.  0.
        254    2    1    2    0    0  0.11113014411E+02 -0.35588617713E+03  0.61599693022E+03  0.11445706265E+04  0.89655520228E+03 0.  0.
        -24    2    4    4    0    0  0.16172093220E+03 -0.26408779197E+03  0.80989948657E+03  0.87094014476E+03  0.81875122254E+02 0.  0.
         24    2    4    4    0    0 -0.15060791779E+03 -0.91798385159E+02 -0.19390255635E+03  0.27363048169E+03  0.78522294489E+02 0.  0.
         11    1    3    3    0    0 -0.19119173989E+02  0.13394397536E+03  0.56464418915E+02  0.14661092031E+03  0.00000000000E+00 0.  1.
        -11    1    3    3    0    0  0.80061595783E+01  0.22194220177E+03 -0.67032443096E+02  0.23198230093E+03  0.00000000000E+00 0. -1.
          4    1    6    6  502    0 -0.54905394461E+01 -0.18112445690E+01  0.75743897754E+01  0.95287990202E+01  0.00000000000E+00 0. -1.
          1    1    5    5  503    0 -0.52016699688E+01 -0.42850975656E+02  0.11018850334E+03  0.11834174983E+03  0.00000000000E+00 0. -1.
         -2    1    5    5    0  503  0.16692260217E+03 -0.22123681631E+03  0.69971098323E+03  0.75259839493E+03  0.00000000000E+00 0.  1.
         -3    1    6    6    0  502 -0.14511737834E+03 -0.89987140590E+02 -0.20147694612E+03  0.26410168267E+03  0.00000000000E+00 0.  1.
<mgrwt>
<rscale>  0 0.13976709E+04</rscale>
<asrwt>0</asrwt>
<pdfrwt beam="1">  1        1 0.16373790E+00 0.13976709E+04</pdfrwt>
<pdfrwt beam="2">  1       -1 0.70594996E-01 0.13976709E+04</pdfrwt>
<totfact> 0.26687736E+01</totfact>
</mgrwt>
</event>
<event>
12    1  0.1114484E-007  0.1448625E+04  0.7818608E-02  0.8919354E-01
          2   -1    0    0  501    0  0.00000000000E+00  0.00000000000E+00  0.10676178947E+04  0.10676178947E+04  0.00000000000E+00 0. -1.
         -2   -1    0    0    0  501 -0.00000000000E+00 -0.00000000000E+00 -0.49140114319E+03  0.49140114319E+03  0.00000000000E+00 0.  1.
         23    2    1    2    0    0  0.20352843238E+03  0.32452202557E+03 -0.50503334852E+02  0.39580462625E+03  0.85862375137E+02 0.  0.
        254    2    1    2    0    0 -0.20352843238E+03 -0.32452202557E+03  0.62672008633E+03  0.11632144116E+04  0.90197080490E+03 0.  0.
        -24    2    4    4    0    0  0.33295415043E+03 -0.23298070037E+03  0.37497099757E+03  0.55853721466E+03  0.78880277078E+02 0.  0.
         24    2    4    4    0    0 -0.53648258281E+03 -0.91541325199E+02  0.25174908877E+03  0.60467719695E+03  0.77868690352E+02 0.  0.
         11    1    3    3    0    0  0.64968269474E+02  0.48938414436E+02 -0.29905913116E+02  0.86661456746E+02  0.00000000000E+00 0. -1.
        -11    1    3    3    0    0  0.13856016290E+03  0.27558361113E+03 -0.20597421736E+02  0.30914316950E+03  0.00000000000E+00 0.  1.
          2    1    6    6  502    0 -0.28760703050E+03 -0.86892928638E+02  0.14933349293E+03  0.33551255885E+03  0.00000000000E+00 0. -1.
          3    1    5    5  503    0  0.17315113423E+03 -0.91516249734E+02  0.22148127731E+03  0.29565266014E+03  0.00000000000E+00 0. -1.
         -4    1    5    5    0  503  0.15980301620E+03 -0.14146445063E+03  0.15348972026E+03  0.26288455452E+03  0.00000000000E+00 0.  1.
         -1    1    6    6    0  502 -0.24887555231E+03 -0.46483965612E+01  0.10241559584E+03  0.26916463809E+03  0.00000000000E+00 0.  1.
<mgrwt>
<rscale>  0 0.14486251E+04</rscale>
<asrwt>0</asrwt>
<pdfrwt beam="1">  1        2 0.16424891E+00 0.14486251E+04</pdfrwt>
<pdfrwt beam="2">  1       -2 0.75600176E-01 0.14486251E+04</pdfrwt>
<totfact> 0.34728052E+01</totfact>
</mgrwt>
</event>
<event>
12    1  0.1114484E-007  0.1586001E+04  0.7818608E-02  0.8829195E-01
         -1   -1    0    0    0  501 -0.00000000000E+00  0.00000000000E+00  0.10793512072E+04  0.10793512072E+04  0.00000000000E+00 0.  1.
          1   -1    0    0  501    0  0.00000000000E+00 -0.00000000000E+00 -0.58261831857E+03  0.58261831857E+03  0.00000000000E+00 0. -1.
         23    2    1    2    0    0  0.35738911238E+03  0.21293553979E+03  0.53402481529E+03  0.68308655298E+03  0.91412328248E+02 0.  0.
        254    2    1    2    0    0 -0.35738911238E+03 -0.21293553979E+03 -0.37291926674E+02  0.97888297278E+03  0.88529806554E+03 0.  0.
        -24    2    4    4    0    0 -0.48859734550E+02 -0.44252097459E+03 -0.26504009667E+03  0.52506223596E+03  0.85041238055E+02 0.  0.
         24    2    4    4    0    0 -0.30852937783E+03  0.22958543480E+03  0.22774817000E+03  0.45382073683E+03  0.78639578974E+02 0.  0.
         13    1    3    3    0    0  0.29011024121E+03  0.13286124191E+03  0.37035873755E+03  0.48885750085E+03  0.00000000000E+00 0.  1.
        -13    1    3    3    0    0  0.67278871172E+02  0.80074297883E+02  0.16366607774E+03  0.19422905213E+03  0.00000000000E+00 0. -1.
          2    1    6    6  502    0 -0.24329742773E+03  0.14195707126E+03  0.18213472255E+03  0.33543778198E+03  0.00000000000E+00 0. -1.
          3    1    5    5  503    0  0.75829631925E+01 -0.62945658552E+02 -0.97298465705E+01  0.64143021254E+02  0.00000000000E+00 0. -1.
         -4    1    5    5    0  503 -0.56442697742E+02 -0.37957531604E+03 -0.25531025010E+03  0.46091921470E+03  0.00000000000E+00 0.  1.
         -1    1    6    6    0  502 -0.65231950103E+02  0.87628363542E+02  0.45613447446E+02  0.11838295485E+03  0.00000000000E+00 0.  1.
<mgrwt>
<rscale>  0 0.15860010E+04</rscale>
<asrwt>0</asrwt>
<pdfrwt beam="1">  1        1 0.89633588E-01 0.15860010E+04</pdfrwt>
<pdfrwt beam="2">  1       -1 0.16605403E+00 0.15860010E+04</pdfrwt>
<totfact> 0.90332267E+00</totfact>
</mgrwt>
</event>
<event>
12    1  0.1114484E-007  0.1654693E+04  0.7818608E-02  0.8787635E-01
          2   -1    0    0  501    0  0.00000000000E+00  0.00000000000E+00  0.18317206628E+04  0.18317206628E+04  0.00000000000E+00 0. -1.
         -2   -1    0    0    0  501 -0.00000000000E+00 -0.00000000000E+00 -0.37369352136E+03  0.37369352136E+03  0.00000000000E+00 0.  1.
         23    2    1    2    0    0  0.56273224377E+03  0.12510034921E+03  0.47743840431E+03  0.75393051549E+03  0.90255840454E+02 0.  0.
        254    2    1    2    0    0 -0.56273224377E+03 -0.12510034921E+03  0.98058873712E+03  0.14514836686E+04  0.90162791297E+03 0.  0.
        -24    2    4    4    0    0 -0.46048929107E+03 -0.65074435061E+01  0.13034608611E+02  0.46789375807E+03  0.81620670211E+02 0.  0.
         24    2    4    4    0    0 -0.10224295270E+03 -0.11859290570E+03  0.96755412851E+03  0.98358991058E+03  0.82281358435E+02 0.  0.
         13    1    3    3    0    0  0.53788248084E+02 -0.93990743513E+01  0.66907728628E+02  0.86360652966E+02  0.00000000000E+00 0. -1.
        -13    1    3    3    0    0  0.50894399568E+03  0.13449942356E+03  0.41053067568E+03  0.66756986253E+03  0.00000000000E+00 0.  1.
          2    1    6    6  502    0 -0.86217696785E+02 -0.79277247664E+02  0.86033209779E+03  0.86826821416E+03  0.00000000000E+00 0. -1.
          3    1    5    5  503    0 -0.41817868556E+03 -0.24324369098E+01 -0.12380174588E+02  0.41836897414E+03  0.00000000000E+00 0. -1.
         -4    1    5    5    0  503 -0.42310605515E+02 -0.40750065962E+01  0.25414783199E+02  0.49524783925E+02  0.00000000000E+00 0.  1.
         -1    1    6    6    0  502 -0.16025255911E+02 -0.39315658035E+02  0.10722203072E+03  0.11532169642E+03  0.00000000000E+00 0.  1.
<mgrwt>
<rscale>  0 0.16546929E+04</rscale>
<asrwt>0</asrwt>
<pdfrwt beam="1">  1        2 0.28180317E+00 0.16546929E+04</pdfrwt>
<pdfrwt beam="2">  1       -2 0.57491312E-01 0.16546929E+04</pdfrwt>
<totfact> 0.22421896E+01</totfact>
</mgrwt>
</event>
<event>
12    1  0.1114484E-007  0.1516102E+04  0.7818608E-02  0.8873816E-01
          1   -1    0    0  501    0  0.00000000000E+00  0.00000000000E+00  0.31795546637E+03  0.31795546637E+03  0.00000000000E+00 0. -1.
         -1   -1    0    0    0  501 -0.00000000000E+00 -0.00000000000E+00 -0.18073002657E+04  0.18073002657E+04  0.00000000000E+00 0.  1.
         23    2    1    2    0    0  0.29369218652E+03 -0.26635238219E+03 -0.88688520069E+03  0.97502977261E+03  0.83180564811E+02 0.  0.
        254    2    1    2    0    0 -0.29369218652E+03  0.26635238219E+03 -0.60245959868E+03  0.11502259595E+04  0.89602650516E+03 0.  0.
        -24    2    4    4    0    0 -0.10438167274E+03  0.24130453210E+02  0.22657544665E+03  0.26266815824E+03  0.78614985555E+02 0.  0.
         24    2    4    4    0    0 -0.18931051378E+03  0.24222192898E+03 -0.82903504533E+03  0.88755780126E+03  0.77135015931E+02 0.  0.
         11    1    3    3    0    0  0.28921644955E+02 -0.47792916166E+02 -0.19193527251E+03  0.19989940775E+03  0.00000000000E+00 0. -1.
        -11    1    3    3    0    0  0.26477054156E+03 -0.21855946602E+03 -0.69494992817E+03  0.77513036487E+03  0.00000000000E+00 0.  1.
          4    1    6    6  502    0 -0.18228565425E+03  0.19739511230E+03 -0.74635484021E+03  0.79324550904E+03  0.00000000000E+00 0. -1.
          3    1    5    5  503    0 -0.11598231222E+03  0.16099715867E+02  0.21313306241E+03  0.24318059111E+03  0.00000000000E+00 0. -1.
         -4    1    5    5    0  503  0.11600639484E+02  0.80307373428E+01  0.13442384237E+02  0.19487567131E+02  0.00000000000E+00 0.  1.
         -3    1    6    6    0  502 -0.70248595348E+01  0.44826816680E+02 -0.82680205116E+02  0.94312292217E+02  0.00000000000E+00 0.  1.
<mgrwt>
<rscale>  0 0.15161016E+04</rscale>
<asrwt>0</asrwt>
<pdfrwt beam="1">  1        1 0.48916226E-01 0.15161016E+04</pdfrwt>
<pdfrwt beam="2">  1       -1 0.27804619E+00 0.15161016E+04</pdfrwt>
<totfact> 0.36024301E+00</totfact>
</mgrwt>
</event>
<event>
12    1  0.1140547E-007  0.1866843E+04  0.7818608E-02  0.8671539E-01
         -1   -1    0    0    0  501 -0.00000000000E+00  0.00000000000E+00  0.65302135353E+03  0.65302135353E+03  0.00000000000E+00 0.  1.
          1   -1    0    0  501    0  0.00000000000E+00 -0.00000000000E+00 -0.13342228804E+04  0.13342228804E+04  0.00000000000E+00 0. -1.
         23    2    1    2    0    0  0.34283460206E+03  0.61980178746E+03 -0.25638093350E+03  0.75901603763E+03  0.93189818120E+02 0.  0.
        254    2    1    2    0    0 -0.34283460206E+03 -0.61980178746E+03 -0.42482059333E+03  0.12282281963E+04  0.90905563386E+03 0.  0.
        -24    2    4    4    0    0  0.13090225241E+03  0.14593596581E+03  0.29889378174E+02  0.21631891589E+03  0.86416391036E+02 0.  0.
         24    2    4    4    0    0 -0.47373685448E+03 -0.76573775327E+03 -0.45470997150E+03  0.10119092804E+04  0.80114414690E+02 0.  0.
         13    1    3    3    0    0  0.14512851344E+03  0.32583107535E+03 -0.91396866941E+02  0.36821401706E+03  0.00000000000E+00 0. -1.
        -13    1    3    3    0    0  0.19770608862E+03  0.29397071211E+03 -0.16498406656E+03  0.39080202056E+03  0.00000000000E+00 0.  1.
          4    1    6    6  502    0 -0.54894712212E+02 -0.79319384484E+02 -0.22713253149E+02  0.99100383714E+02  0.00000000000E+00 0. -1.
          1    1    5    5  503    0  0.13949529034E+01  0.11429783795E+02 -0.19974961557E+02  0.23056125876E+02  0.00000000000E+00 0. -1.
         -2    1    5    5    0  503  0.12950729951E+03  0.13450618201E+03  0.49864339731E+02  0.19326279001E+03  0.00000000000E+00 0.  1.
         -3    1    6    6    0  502 -0.41884214227E+03 -0.68641836878E+03 -0.43199671835E+03  0.91280889665E+03  0.00000000000E+00 0.  1.
<mgrwt>
<rscale>  0 0.18668434E+04</rscale>
<asrwt>0</asrwt>
<pdfrwt beam="1">  1        1 0.20526506E+00 0.18668434E+04</pdfrwt>
<pdfrwt beam="2">  1       -1 0.10046482E+00 0.18668434E+04</pdfrwt>
<totfact> 0.75663838E+00</totfact>
</mgrwt>
</event>
<event>
12    1  0.1114484E-007  0.2297113E+04  0.7818608E-02  0.8479060E-01
         -1   -1    0    0    0  501 -0.00000000000E+00  0.00000000000E+00  0.52423390522E+03  0.52423390522E+03  0.00000000000E+00 0.  1.
          1   -1    0    0  501    0  0.00000000000E+00 -0.00000000000E+00 -0.25163994759E+04  0.25163994759E+04  0.00000000000E+00 0. -1.
         23    2    1    2    0    0  0.88400905150E+03  0.38214799245E+03 -0.99988952450E+03  0.13911946708E+04  0.90191239556E+02 0.  0.
        254    2    1    2    0    0 -0.88400905150E+03 -0.38214799245E+03 -0.99227604615E+03  0.16494387103E+04  0.89918141434E+03 0.  0.
        -24    2    4    4    0    0  0.13900407604E+03 -0.88424411425E+02  0.11599657770E+02  0.18404728943E+03  0.81227107497E+02 0.  0.
         24    2    4    4    0    0 -0.10230131275E+04 -0.29372358102E+03 -0.10038757039E+04  0.14653914208E+04  0.82317593277E+02 0.  0.
         13    1    3    3    0    0  0.68645434287E+03  0.26480516764E+03 -0.72533211656E+03  0.10331737613E+04  0.00000000000E+00 0. -1.
        -13    1    3    3    0    0  0.19755470863E+03  0.11734282480E+03 -0.27455740794E+03  0.35802090957E+03  0.00000000000E+00 0.  1.
          2    1    6    6  502    0 -0.78470882125E+03 -0.22113313066E+03 -0.81493735104E+03  0.11527318343E+04  0.00000000000E+00 0. -1.
          1    1    5    5  503    0  0.12781483834E+03 -0.46856447527E+02  0.26121321125E+02  0.13861631575E+03  0.00000000000E+00 0. -1.
         -4    1    5    5    0  503  0.11189237709E+02 -0.41567963898E+02 -0.14521663354E+02  0.45430973682E+02  0.00000000000E+00 0.  1.
         -1    1    6    6    0  502 -0.23830430630E+03 -0.72590450360E+02 -0.18893835289E+03  0.31265958657E+03  0.00000000000E+00 0.  1.
<mgrwt>
<rscale>  0 0.22971129E+04</rscale>
<asrwt>0</asrwt>
<pdfrwt beam="1">  1        1 0.38713839E+00 0.22971129E+04</pdfrwt>
<pdfrwt beam="2">  1       -1 0.80651369E-01 0.22971129E+04</pdfrwt>
<totfact> 0.18290144E+00</totfact>
</mgrwt>
</event>
<event>
12    1  0.1114484E-007  0.1648892E+04  0.7818608E-02  0.8791062E-01
          2   -1    0    0  501    0  0.00000000000E+00  0.00000000000E+00  0.18070140907E+04  0.18070140907E+04  0.00000000000E+00 0.  1.
         -2   -1    0    0    0  501 -0.00000000000E+00 -0.00000000000E+00 -0.37615171455E+03  0.37615171455E+03  0.00000000000E+00 0. -1.
         23    2    1    2    0    0 -0.19095899492E+03  0.34935839728E+03  0.10516060010E+04  0.11275010264E+04  0.82865889421E+02 0.  0.
        254    2    1    2    0    0  0.19095899492E+03 -0.34935839728E+03  0.37925637512E+03  0.10556647789E+04  0.90115265065E+03 0.  0.
        -24    2    4    4    0    0 -0.18032062792E+03 -0.52820794438E+03  0.19570762208E+03  0.59727370927E+03  0.83157976679E+02 0.  0.
         24    2    4    4    0    0  0.37127962284E+03  0.17884954710E+03  0.18354875305E+03  0.45839106960E+03  0.81218896224E+02 0.  0.
         11    1    3    3    0    0 -0.99855669956E+02  0.22062324630E+03  0.53279597763E+03  0.58524979744E+03  0.00000000000E+00 0. -1.
        -11    1    3    3    0    0 -0.91103324967E+02  0.12873515098E+03  0.51881002342E+03  0.54225122897E+03  0.00000000000E+00 0.  1.
          2    1    6    6  502    0  0.16454078368E+03  0.12171115306E+03  0.10449881663E+03  0.22979833975E+03  0.00000000000E+00 0. -1.
          1    1    5    5  503    0 -0.17628199597E+03 -0.48145508308E+03  0.19957893781E+03  0.55018732405E+03  0.00000000000E+00 0. -1.
         -2    1    5    5    0  503 -0.40386319537E+01 -0.46752861293E+02 -0.38713157325E+01  0.47086385215E+02  0.00000000000E+00 0.  1.
         -1    1    6    6    0  502  0.20673883917E+03  0.57138394039E+02  0.79049936413E+02  0.22859272985E+03  0.00000000000E+00 0.  1.
<mgrwt>
<rscale>  0 0.16488923E+04</rscale>
<asrwt>0</asrwt>
<pdfrwt beam="1">  1        2 0.27800216E+00 0.16488923E+04</pdfrwt>
<pdfrwt beam="2">  1       -2 0.57869496E-01 0.16488923E+04</pdfrwt>
<totfact> 0.22834665E+01</totfact>
</mgrwt>
</event>
<event>
12    1  0.1114484E-007  0.1339751E+04  0.7818608E-02  0.8998623E-01
         -1   -1    0    0    0  501 -0.00000000000E+00  0.00000000000E+00  0.74855534422E+03  0.74855534422E+03  0.00000000000E+00 0.  1.
          1   -1    0    0  501    0  0.00000000000E+00 -0.00000000000E+00 -0.59946576826E+03  0.59946576826E+03  0.00000000000E+00 0. -1.
         23    2    1    2    0    0  0.21382769755E+03  0.11728094124E+03 -0.22339746873E+03  0.34376978076E+03  0.93777021229E+02 0.  0.
        254    2    1    2    0    0 -0.21382769755E+03 -0.11728094124E+03  0.37248704469E+03  0.10042513317E+04  0.90016500453E+03 0.  0.
        -24    2    4    4    0    0  0.82575629547E+02 -0.35574369513E+03 -0.10615906810E+03  0.38779638026E+03  0.75789006989E+02 0.  0.
         24    2    4    4    0    0 -0.29640332710E+03  0.23846275389E+03  0.47864611279E+03  0.61645495146E+03  0.78709520303E+02 0.  0.
         13    1    3    3    0    0  0.74644337787E+01  0.10069080861E+02  0.86652185561E+01  0.15237787689E+02  0.00000000000E+00 0.  1.
        -13    1    3    3    0    0  0.20636326377E+03  0.10721186038E+03 -0.23206268729E+03  0.32853199307E+03  0.00000000000E+00 0. -1.
          4    1    6    6  502    0 -0.39687074383E+02  0.25784417241E+02  0.10816522038E+03  0.11806614648E+03  0.00000000000E+00 0. -1.
          1    1    5    5  503    0 -0.50012436411E+01 -0.52035426063E+02  0.55161663282E+01  0.52565445822E+02  0.00000000000E+00 0. -1.
         -2    1    5    5    0  503  0.87576873189E+02 -0.30370826907E+03 -0.11167523443E+03  0.33523093443E+03  0.00000000000E+00 0.  1.
         -3    1    6    6    0  502 -0.25671625271E+03  0.21267833665E+03  0.37048089241E+03  0.49838880498E+03  0.00000000000E+00 0.  1.
<mgrwt>
<rscale>  0 0.13397512E+04</rscale>
<asrwt>0</asrwt>
<pdfrwt beam="1">  1        1 0.92225503E-01 0.13397512E+04</pdfrwt>
<pdfrwt beam="2">  1       -1 0.11516236E+00 0.13397512E+04</pdfrwt>
<totfact> 0.22989795E+01</totfact>
</mgrwt>
</event>
<event>
12    1  0.1114484E-007  0.1762610E+04  0.7818608E-02  0.8726440E-01
         -1   -1    0    0    0  501 -0.00000000000E+00  0.00000000000E+00  0.37494536275E+03  0.37494536275E+03  0.00000000000E+00 0.  1.
          1   -1    0    0  501    0  0.00000000000E+00 -0.00000000000E+00 -0.20714977888E+04  0.20714977888E+04  0.00000000000E+00 0. -1.
         23    2    1    2    0    0  0.34752576516E+03  0.11693053810E+03 -0.13689089049E+04  0.14201470895E+04  0.91974223054E+02 0.  0.
        254    2    1    2    0    0 -0.34752576516E+03 -0.11693053810E+03 -0.32764352121E+03  0.10262960621E+04  0.90082541146E+03 0.  0.
        -24    2    4    4    0    0 -0.36535265241E+03  0.13921457779E+03  0.19088909034E+03  0.44223992407E+03  0.79210140387E+02 0.  0.
         24    2    4    4    0    0  0.17826887250E+02 -0.25614511590E+03 -0.51853261155E+03  0.58405613804E+03  0.79481978076E+02 0.  0.
         11    1    3    3    0    0  0.26713775871E+03  0.80857187335E+02 -0.87487241270E+03  0.91831487268E+03  0.00000000000E+00 0. -1.
        -11    1    3    3    0    0  0.80388006442E+02  0.36073350766E+02 -0.49403649218E+03  0.50183221680E+03  0.00000000000E+00 0.  1.
          4    1    6    6  502    0  0.46131495565E+02 -0.20395919510E+03 -0.39196545991E+03  0.44425712139E+03  0.00000000000E+00 0. -1.
          3    1    5    5  503    0 -0.27234447606E+03  0.11184650643E+03  0.17900419291E+03  0.34456299238E+03  0.00000000000E+00 0. -1.
         -4    1    5    5    0  503 -0.93008176342E+02  0.27368071366E+02  0.11884897437E+02  0.97676931687E+02  0.00000000000E+00 0.  1.
         -3    1    6    6    0  502 -0.28304608315E+02 -0.52185920795E+02 -0.12656715164E+03  0.13979901665E+03  0.00000000000E+00 0.  1.
<mgrwt>
<rscale>  0 0.17626100E+04</rscale>
<asrwt>0</asrwt>
<pdfrwt beam="1">  1        1 0.31869197E+00 0.17626100E+04</pdfrwt>
<pdfrwt beam="2">  1       -1 0.57683901E-01 0.17626100E+04</pdfrwt>
<totfact> 0.76807083E+00</totfact>
</mgrwt>
</event>
<event>
12    1  0.1114484E-007  0.1595770E+04  0.7818608E-02  0.8823151E-01
          1   -1    0    0  501    0  0.00000000000E+00  0.00000000000E+00  0.26143031964E+04  0.26143031964E+04  0.00000000000E+00 0. -1.
         -1   -1    0    0    0  501 -0.00000000000E+00 -0.00000000000E+00 -0.24351444060E+03  0.24351444060E+03  0.00000000000E+00 0.  1.
         23    2    1    2    0    0 -0.26572962169E+03 -0.42474691439E+03  0.45997227979E+03  0.68629497633E+03  0.91674005185E+02 0.  0.
        254    2    1    2    0    0  0.26572962169E+03  0.42474691439E+03  0.19108164760E+04  0.21715226606E+04  0.90181422017E+03 0.  0.
        -24    2    4    4    0    0  0.41205386086E+03  0.61484041745E+03  0.16390359924E+04  0.18002069641E+04  0.80554367059E+02 0.  0.
         24    2    4    4    0    0 -0.14632423917E+03 -0.19009350306E+03  0.27178048353E+03  0.37131569650E+03  0.80401445031E+02 0.  0.
         13    1    3    3    0    0 -0.12454295409E+02 -0.51044543011E+02  0.20906571310E+02  0.56548559392E+02  0.00000000000E+00 0. -1.
        -13    1    3    3    0    0 -0.25327532628E+03 -0.37370237138E+03  0.43906570848E+03  0.62974641693E+03  0.00000000000E+00 0.  1.
          4    1    6    6  502    0 -0.21678955302E+02 -0.28303197706E+02  0.94029021042E+02  0.10056095118E+03  0.00000000000E+00 0. -1.
          3    1    5    5  503    0  0.29004015492E+03  0.38192373162E+03  0.99416456711E+03  0.11037899323E+04  0.00000000000E+00 0. -1.
         -4    1    5    5    0  503  0.12201370594E+03  0.23291668583E+03  0.64487142534E+03  0.69641703181E+03  0.00000000000E+00 0.  1.
         -3    1    6    6    0  502 -0.12464528387E+03 -0.16179030536E+03  0.17775146249E+03  0.27075474532E+03  0.00000000000E+00 0.  1.
<mgrwt>
<rscale>  0 0.15957701E+04</rscale>
<asrwt>0</asrwt>
<pdfrwt beam="1">  1        1 0.40220047E+00 0.15957701E+04</pdfrwt>
<pdfrwt beam="2">  1       -1 0.37463762E-01 0.15957701E+04</pdfrwt>
<totfact> 0.74475713E+00</totfact>
</mgrwt>
</event>
<event>
12    1  0.1114484E-007  0.1362417E+04  0.7818608E-02  0.8981481E-01
          2   -1    0    0  501    0  0.00000000000E+00  0.00000000000E+00  0.37164059912E+04  0.37164059912E+04  0.00000000000E+00 0. -1.
         -2   -1    0    0    0  501 -0.00000000000E+00 -0.00000000000E+00 -0.12486400138E+03  0.12486400138E+03  0.00000000000E+00 0.  1.
         23    2    1    2    0    0  0.29392699634E+03  0.99335967390E+01  0.17026065108E+04  0.17301761646E+04  0.90271116541E+02 0.  0.
        254    2    1    2    0    0 -0.29392699634E+03 -0.99335967390E+01  0.18889354790E+04  0.21110938280E+04  0.89562723888E+03 0.  0.
        -24    2    4    4    0    0 -0.53998509671E+03 -0.87048862123E+02  0.70026093980E+03  0.89213173912E+03  0.79826355705E+02 0.  0.
         24    2    4    4    0    0  0.24605810037E+03  0.77115265384E+02  0.11886745392E+04  0.12189620888E+04  0.80187660701E+02 0.  0.
         13    1    3    3    0    0  0.29413697627E+03  0.17613857637E+02  0.15742423418E+04  0.16015822675E+04  0.00000000000E+00 0. -1.
        -13    1    3    3    0    0 -0.20997992682E+00 -0.76802608978E+01  0.12836416898E+03  0.12859389712E+03  0.00000000000E+00 0.  1.
          4    1    6    6  502    0  0.18150145585E+03  0.18248955123E+02  0.77844602504E+03  0.79953362452E+03  0.00000000000E+00 0. -1.
          3    1    5    5  503    0 -0.20417677370E+02 -0.12162677148E+02  0.57729688993E+02  0.62430195065E+02  0.00000000000E+00 0. -1.
         -4    1    5    5    0  503 -0.51956741934E+03 -0.74886184975E+02  0.64253125081E+03  0.82970154405E+03  0.00000000000E+00 0.  1.
         -3    1    6    6    0  502  0.64556644515E+02  0.58866310261E+02  0.41022851418E+03  0.41942846432E+03  0.00000000000E+00 0.  1.
<mgrwt>
<rscale>  0 0.13624174E+04</rscale>
<asrwt>0</asrwt>
<pdfrwt beam="1">  1        2 0.57175468E+00 0.13624174E+04</pdfrwt>
<pdfrwt beam="2">  1       -2 0.19209849E-01 0.13624174E+04</pdfrwt>
<totfact> 0.13005247E+01</totfact>
</mgrwt>
</event>
<event>
12    1  0.1114484E-007  0.1362252E+04  0.7818608E-02  0.8981605E-01
         -2   -1    0    0    0  501 -0.00000000000E+00  0.00000000000E+00  0.13653364090E+04  0.13653364090E+04  0.00000000000E+00 0.  1.
          2   -1    0    0  501    0  0.00000000000E+00 -0.00000000000E+00 -0.33979362142E+03  0.33979362142E+03  0.00000000000E+00 0. -1.
         23    2    1    2    0    0 -0.21064808466E+02  0.23890869755E+03  0.65687917358E+03  0.70724720345E+03  0.10576987370E+03 0.  0.
        254    2    1    2    0    0  0.21064808466E+02 -0.23890869755E+03  0.36866361406E+03  0.99788282702E+03  0.89573220563E+03 0.  0.
        -24    2    4    4    0    0  0.33257713653E+03  0.10013372926E+03 -0.63995613458E+02  0.36129678489E+03  0.76194571690E+02 0.  0.
         24    2    4    4    0    0 -0.31151232806E+03 -0.33904242681E+03  0.43265922751E+03  0.63658604213E+03  0.77833695556E+02 0.  0.
         11    1    3    3    0    0  0.12207612546E+02  0.12430108695E+02  0.15082675666E+03  0.15182965432E+03  0.00000000000E+00 0.  1.
        -11    1    3    3    0    0 -0.33272421011E+02  0.22647858886E+03  0.50605241692E+03  0.55541754913E+03  0.00000000000E+00 0. -1.
          2    1    6    6  502    0 -0.22458833000E+03 -0.28639694461E+03  0.35771417556E+03  0.51031613658E+03  0.00000000000E+00 0. -1.
          3    1    5    5  503    0  0.68375669980E+02  0.44649235850E+02 -0.38037890212E+02  0.90087000167E+02  0.00000000000E+00 0. -1.
         -4    1    5    5    0  503  0.26420146655E+03  0.55484493413E+02 -0.25957723246E+02  0.27120978473E+03  0.00000000000E+00 0.  1.
         -1    1    6    6    0  502 -0.86923998057E+02 -0.52645482200E+02  0.74945051955E+02  0.12626990555E+03  0.00000000000E+00 0.  1.
<mgrwt>
<rscale>  0 0.13622520E+04</rscale>
<asrwt>0</asrwt>
<pdfrwt beam="1">  1        2 0.52275943E-01 0.13622520E+04</pdfrwt>
<pdfrwt beam="2">  1       -2 0.21005175E+00 0.13622520E+04</pdfrwt>
<totfact> 0.10660062E+01</totfact>
</mgrwt>
</event>
<event>
12    1  0.1114484E-007  0.2165321E+04  0.7818608E-02  0.8533002E-01
          2   -1    0    0  501    0  0.00000000000E+00  0.00000000000E+00  0.23113086774E+04  0.23113086774E+04  0.00000000000E+00 0. -1.
         -2   -1    0    0    0  501 -0.00000000000E+00 -0.00000000000E+00 -0.50713861158E+03  0.50713861158E+03  0.00000000000E+00 0.  1.
         23    2    1    2    0    0  0.20189578944E+03 -0.34197614691E+03  0.16810005226E+04  0.17295821475E+04  0.89342336822E+02 0.  0.
        254    2    1    2    0    0 -0.20189578944E+03  0.34197614691E+03  0.12316954325E+03  0.10888651415E+04  0.10063533004E+04 0.  0.
        -24    2    4    4    0    0 -0.38545846378E+03  0.54735605296E+03 -0.15200909226E+03  0.69122918294E+03  0.80710242302E+02 0.  0.
         24    2    4    4    0    0  0.18356267433E+03 -0.20537990605E+03  0.27517863551E+03  0.39763595856E+03  0.80715010275E+02 0.  0.
         13    1    3    3    0    0  0.13494848246E+03 -0.26487877563E+03  0.13825318785E+04  0.14141309182E+04  0.00000000000E+00 0. -1.
        -13    1    3    3    0    0  0.66947306988E+02 -0.77097371272E+02  0.29846864408E+03  0.31545122930E+03  0.00000000000E+00 0.  1.
          2    1    6    6  502    0  0.18510632566E+03 -0.20777284931E+03  0.25557316765E+03  0.37782476459E+03  0.00000000000E+00 0. -1.
          1    1    5    5  503    0 -0.91317350001E+02  0.16235719559E+03 -0.74237117950E+02  0.20052398124E+03  0.00000000000E+00 0. -1.
         -2    1    5    5    0  503 -0.29414111378E+03  0.38499885737E+03 -0.77771974313E+02  0.49070520171E+03  0.00000000000E+00 0.  1.
         -1    1    6    6    0  502 -0.15436513254E+01  0.23929432627E+01  0.19605467859E+02  0.19811193978E+02  0.00000000000E+00 0.  1.
<mgrwt>
<rscale>  0 0.21653211E+04</rscale>
<asrwt>0</asrwt>
<pdfrwt beam="1">  1        2 0.35558594E+00 0.21653211E+04</pdfrwt>
<pdfrwt beam="2">  1       -2 0.78021326E-01 0.21653211E+04</pdfrwt>
<totfact> 0.59871695E+00</totfact>
</mgrwt>
</event>
<event>
12    1  0.1234973E-007  0.1690761E+04  0.7818608E-02  0.8766652E-01
         -2   -1    0    0    0  501 -0.00000000000E+00  0.00000000000E+00  0.47710893650E+03  0.47710893650E+03  0.00000000000E+00 0.  1.
          2   -1    0    0  501    0  0.00000000000E+00 -0.00000000000E+00 -0.14979133968E+04  0.14979133968E+04  0.00000000000E+00 0. -1.
         23    2    1    2    0    0  0.15697219420E+03 -0.16959789479E+03  0.28377276772E+03  0.37698154321E+03  0.90467588396E+02 0.  0.
        254    2    1    2    0    0 -0.15697219420E+03  0.16959789479E+03 -0.13045772280E+04  0.15980407901E+04  0.89353730045E+03 0.  0.
        -24    2    4    4    0    0 -0.28017189993E+03 -0.23424689220E+03 -0.10100234930E+04  0.10769982987E+04  0.80062344821E+02 0.  0.
         24    2    4    4    0    0  0.12319970573E+03  0.40384478699E+03 -0.29455373503E+03  0.52104249137E+03  0.80340497391E+02 0.  0.
         11    1    3    3    0    0 -0.30330645144E+00 -0.17746610288E+02 -0.12240601873E+01  0.17791360118E+02  0.00000000000E+00 0. -1.
        -11    1    3    3    0    0  0.15727550065E+03 -0.15185128450E+03  0.28499682791E+03  0.35919018309E+03  0.00000000000E+00 0.  1.
          2    1    6    6  502    0  0.73085291149E+02  0.33921288371E+03 -0.25200930222E+03  0.42885373807E+03  0.00000000000E+00 0. -1.
          3    1    5    5  503    0 -0.23719003945E+03 -0.22403065963E+03 -0.93027963972E+03  0.98583419466E+03  0.00000000000E+00 0. -1.
         -4    1    5    5    0  503 -0.42981860473E+02 -0.10216232569E+02 -0.79743853288E+02  0.91164104091E+02  0.00000000000E+00 0.  1.
         -1    1    6    6    0  502  0.50114414583E+02  0.64631903284E+02 -0.42544432809E+02  0.92188753295E+02  0.00000000000E+00 0.  1.
<mgrwt>
<rscale>  0 0.16907606E+04</rscale>
<asrwt>0</asrwt>
<pdfrwt beam="1">  1        2 0.23044821E+00 0.16907606E+04</pdfrwt>
<pdfrwt beam="2">  1       -2 0.73401375E-01 0.16907606E+04</pdfrwt>
<totfact> 0.20298720E+01</totfact>
</mgrwt>
</event>
<event>
12    1  0.1114484E-007  0.1471751E+04  0.7818608E-02  0.8903458E-01
         -2   -1    0    0    0  501 -0.00000000000E+00  0.00000000000E+00  0.33712359842E+03  0.33712359842E+03  0.00000000000E+00 0.  1.
          2   -1    0    0  501    0  0.00000000000E+00 -0.00000000000E+00 -0.16062739677E+04  0.16062739677E+04  0.00000000000E+00 0. -1.
         23    2    1    2    0    0  0.22644078230E+03 -0.81904729885E+02  0.11627202227E+03  0.28334939903E+03  0.93722388496E+02 0.  0.
        254    2    1    2    0    0 -0.22644078230E+03  0.81904729885E+02 -0.13854223916E+04  0.16600481671E+04  0.88225897637E+03 0.  0.
        -24    2    4    4    0    0  0.18322767916E+03 -0.24205255348E+03 -0.85803620246E+03  0.91366512176E+03  0.79975051933E+02 0.  0.
         24    2    4    4    0    0 -0.40966846146E+03  0.32395728336E+03 -0.52738618909E+03  0.74638304533E+03  0.78580456558E+02 0.  0.
         13    1    3    3    0    0  0.16560723579E+03 -0.99582156972E+02  0.10159857080E+03  0.21832231247E+03  0.00000000000E+00 0.  1.
        -13    1    3    3    0    0  0.60833546505E+02  0.17677427087E+02  0.14673451465E+02  0.65027086562E+02  0.00000000000E+00 0. -1.
          2    1    6    6  502    0 -0.79116394204E+02  0.61933047043E+02 -0.14910671328E+03  0.17979966100E+03  0.00000000000E+00 0. -1.
          1    1    5    5  503    0  0.26785864546E+02 -0.59210394256E+02 -0.10876717597E+03  0.12670300666E+03  0.00000000000E+00 0. -1.
         -2    1    5    5    0  503  0.15644181462E+03 -0.18284215922E+03 -0.74926902649E+03  0.78696211511E+03  0.00000000000E+00 0.  1.
         -1    1    6    6    0  502 -0.33055206726E+03  0.26202423632E+03 -0.37827947581E+03  0.56658338433E+03  0.00000000000E+00 0.  1.
<mgrwt>
<rscale>  0 0.14717511E+04</rscale>
<asrwt>0</asrwt>
<pdfrwt beam="1">  1        2 0.24711908E+00 0.14717511E+04</pdfrwt>
<pdfrwt beam="2">  1       -2 0.51865167E-01 0.14717511E+04</pdfrwt>
<totfact> 0.37592768E+01</totfact>
</mgrwt>
</event>
<event>
12    1  0.1114484E-007  0.3290391E+04  0.7818608E-02  0.8165345E-01
          2   -1    0    0  501    0  0.00000000000E+00  0.00000000000E+00  0.17010391155E+04  0.17010391155E+04  0.00000000000E+00 0.  1.
         -2   -1    0    0    0  501 -0.00000000000E+00 -0.00000000000E+00 -0.15911849822E+04  0.15911849822E+04  0.00000000000E+00 0. -1.
         23    2    1    2    0    0  0.98619349890E+03 -0.11064739385E+04  0.34086103745E+03  0.15234048526E+04  0.87828834526E+02 0.  0.
        254    2    1    2    0    0 -0.98619349890E+03  0.11064739385E+04 -0.23100690410E+03  0.17688192450E+04  0.93728071461E+03 0.  0.
        -24    2    4    4    0    0 -0.57431440244E+03  0.58271626916E+03  0.33802489945E+03  0.88906246952E+03  0.82316212658E+02 0.  0.
         24    2    4    4    0    0 -0.41187909646E+03  0.52375766938E+03 -0.56903180354E+03  0.87975677553E+03  0.78792793554E+02 0.  0.
         11    1    3    3    0    0  0.60617752826E+03 -0.66338382567E+03  0.24904211023E+03  0.93249732900E+03  0.00000000000E+00 0. -1.
        -11    1    3    3    0    0  0.38001597064E+03 -0.44309011287E+03  0.91818927215E+02  0.59090752361E+03  0.00000000000E+00 0.  1.
          4    1    6    6  502    0 -0.35935656247E+03  0.48196045958E+03 -0.53369867341E+03  0.80390129841E+03  0.00000000000E+00 0. -1.
          1    1    5    5  503    0 -0.51544627062E+03  0.48360924041E+03  0.29780932127E+03  0.76697662750E+03  0.00000000000E+00 0. -1.
         -2    1    5    5    0  503 -0.58868131822E+02  0.99107028752E+02  0.40215578176E+02  0.12208584201E+03  0.00000000000E+00 0.  1.
         -3    1    6    6    0  502 -0.52522533998E+02  0.41797209797E+02 -0.35333130133E+02  0.75855477122E+02  0.00000000000E+00 0.  1.
<mgrwt>
<rscale>  0 0.32903908E+04</rscale>
<asrwt>0</asrwt>
<pdfrwt beam="1">  1        2 0.26169833E+00 0.32903908E+04</pdfrwt>
<pdfrwt beam="2">  1       -2 0.24479769E+00 0.32903908E+04</pdfrwt>
<totfact> 0.56640061E-01</totfact>
</mgrwt>
</event>
<event>
12    1  0.1114484E-007  0.1289577E+04  0.7818608E-02  0.9037872E-01
          2   -1    0    0  501    0  0.00000000000E+00  0.00000000000E+00  0.88226464602E+03  0.88226464602E+03  0.00000000000E+00 0. -1.
         -2   -1    0    0    0  501 -0.00000000000E+00 -0.00000000000E+00 -0.47123268015E+03  0.47123268015E+03  0.00000000000E+00 0.  1.
         23    2    1    2    0    0  0.15580035862E+03  0.74542269707E+02 -0.20353077343E+03  0.28214747447E+03  0.91389933235E+02 0.  0.
        254    2    1    2    0    0 -0.15580035862E+03 -0.74542269707E+02  0.61456273931E+03  0.10713498517E+04  0.86039109855E+03 0.  0.
        -24    2    4    4    0    0  0.81554073624E+01 -0.39012217679E+02 -0.20877880885E+03  0.22737214255E+03  0.80752934222E+02 0.  0.
         24    2    4    4    0    0 -0.16395576599E+03 -0.35530052028E+02  0.82334154816E+03  0.84397770914E+03  0.79140323487E+02 0.  0.
         11    1    3    3    0    0  0.16704936993E+03  0.61109542548E+02 -0.18462072476E+03  0.25636825115E+03  0.00000000000E+00 0.  1.
        -11    1    3    3    0    0 -0.11249011310E+02  0.13432727159E+02 -0.18910048673E+02  0.25779223325E+02  0.00000000000E+00 0. -1.
          4    1    6    6  502    0 -0.59928484382E+02 -0.45827578322E+02  0.24816836292E+03  0.25938220165E+03  0.00000000000E+00 0. -1.
          1    1    5    5  503    0  0.54427661874E+01 -0.28335107513E+02 -0.13626222514E+02  0.31908869638E+02  0.00000000000E+00 0. -1.
         -2    1    5    5    0  503  0.27126411751E+01 -0.10677110166E+02 -0.19515258634E+03  0.19546327292E+03  0.00000000000E+00 0.  1.
         -3    1    6    6    0  502 -0.10402728161E+03  0.10297526295E+02  0.57517318524E+03  0.58459550749E+03  0.00000000000E+00 0.  1.
<mgrwt>
<rscale>  0 0.12895766E+04</rscale>
<asrwt>0</asrwt>
<pdfrwt beam="1">  1        2 0.13573302E+00 0.12895766E+04</pdfrwt>
<pdfrwt beam="2">  1       -2 0.72497336E-01 0.12895766E+04</pdfrwt>
<totfact> 0.50919617E+01</totfact>
</mgrwt>
</event>
<event>
12    1  0.1114484E-007  0.2261500E+04  0.7818608E-02  0.8493258E-01
          1   -1    0    0  501    0  0.00000000000E+00  0.00000000000E+00  0.20748267660E+04  0.20748267660E+04  0.00000000000E+00 0. -1.
         -1   -1    0    0    0  501 -0.00000000000E+00 -0.00000000000E+00 -0.61624197696E+03  0.61624197696E+03  0.00000000000E+00 0.  1.
         23    2    1    2    0    0 -0.35031897846E+03 -0.28535124679E+03 -0.37931662665E+03  0.59713371545E+03  0.92405898934E+02 0.  0.
        254    2    1    2    0    0  0.35031897846E+03  0.28535124679E+03  0.18379014157E+04  0.20939350275E+04  0.89584237723E+03 0.  0.
        -24    2    4    4    0    0  0.16325869990E+02  0.34179209657E+02 -0.85592167912E+02  0.12396528729E+03  0.81281122289E+02 0.  0.
         24    2    4    4    0    0  0.33399310847E+03  0.25117203714E+03  0.19234935836E+04  0.19699697402E+04  0.79463340054E+02 0.  0.
         13    1    3    3    0    0 -0.31655902817E+03 -0.24598148549E+03 -0.29344637441E+03  0.49681715367E+03  0.00000000000E+00 0.  1.
        -13    1    3    3    0    0 -0.33759950293E+02 -0.39369761298E+02 -0.85870252245E+02  0.10031656179E+03  0.00000000000E+00 0. -1.
          2    1    6    6  502    0  0.29103223439E+03  0.22267245322E+03  0.17841842533E+04  0.18214269771E+04  0.00000000000E+00 0. -1.
          3    1    5    5  503    0  0.25702096654E+02  0.43001690216E+02 -0.95417913728E+02  0.10776976104E+03  0.00000000000E+00 0. -1.
         -4    1    5    5    0  503 -0.93762266643E+01 -0.88224805591E+01  0.98257458158E+01  0.16195526250E+02  0.00000000000E+00 0.  1.
         -1    1    6    6    0  502  0.42960874085E+02  0.28499583916E+02  0.13930933024E+03  0.14854276312E+03  0.00000000000E+00 0.  1.
<mgrwt>
<rscale>  0 0.22614998E+04</rscale>
<asrwt>0</asrwt>
<pdfrwt beam="1">  1        1 0.31920411E+00 0.22614998E+04</pdfrwt>
<pdfrwt beam="2">  1       -1 0.94806459E-01 0.22614998E+04</pdfrwt>
<totfact> 0.25854976E+00</totfact>
</mgrwt>
</event>
<event>
12    1  0.1114484E-007  0.1609286E+04  0.7818608E-02  0.8814864E-01
          1   -1    0    0  501    0  0.00000000000E+00  0.00000000000E+00  0.87954373192E+03  0.87954373192E+03  0.00000000000E+00 0. -1.
         -1   -1    0    0    0  501 -0.00000000000E+00 -0.00000000000E+00 -0.73612025522E+03  0.73612025522E+03  0.00000000000E+00 0.  1.
         23    2    1    2    0    0  0.46446121481E+03  0.16071208506E+02  0.33978178187E+03  0.58295232862E+03  0.91647445917E+02 0.  0.
        254    2    1    2    0    0 -0.46446121481E+03 -0.16071208506E+02 -0.19635830517E+03  0.10327116585E+04  0.90108505804E+03 0.  0.
        -24    2    4    4    0    0 -0.32116114407E+02  0.62032170362E+02 -0.48752621969E+03  0.49996661234E+03  0.86054422328E+02 0.  0.
         24    2    4    4    0    0 -0.43234510041E+03 -0.78103378868E+02  0.29116791453E+03  0.53274504618E+03  0.77563561949E+02 0.  0.
         11    1    3    3    0    0  0.19381423377E+03 -0.87676047502E+01  0.19473004831E+03  0.27488292021E+03  0.00000000000E+00 0.  1.
        -11    1    3    3    0    0  0.27064698105E+03  0.24838813257E+02  0.14505173355E+03  0.30806940841E+03  0.00000000000E+00 0. -1.
          2    1    6    6  502    0 -0.31213248859E+03 -0.86832273295E+02  0.23193599951E+03  0.39844804177E+03  0.00000000000E+00 0. -1.
          1    1    5    5  503    0  0.25211373311E+02 -0.14024885516E+01 -0.10311193673E+03  0.10615861630E+03  0.00000000000E+00 0. -1.
         -2    1    5    5    0  503 -0.57327487718E+02  0.63434658913E+02 -0.38441428297E+03  0.39380799604E+03  0.00000000000E+00 0.  1.
         -1    1    6    6    0  502 -0.12021261182E+03  0.87288944263E+01  0.59231915018E+02  0.13429700441E+03  0.00000000000E+00 0.  1.
<mgrwt>
<rscale>  0 0.16092855E+04</rscale>
<asrwt>0</asrwt>
<pdfrwt beam="1">  1        1 0.13531442E+00 0.16092855E+04</pdfrwt>
<pdfrwt beam="2">  1       -1 0.11324927E+00 0.16092855E+04</pdfrwt>
<totfact> 0.12920460E+01</totfact>
</mgrwt>
</event>
<event>
12    1  0.1114484E-007  0.1100796E+04  0.7818608E-02  0.9204416E-01
         -1   -1    0    0    0  501 -0.00000000000E+00  0.00000000000E+00  0.27846179578E+03  0.27846179578E+03  0.00000000000E+00 0.  1.
          1   -1    0    0  501    0  0.00000000000E+00 -0.00000000000E+00 -0.10878986974E+04  0.10878986974E+04  0.00000000000E+00 0. -1.
         23    2    1    2    0    0  0.98572968366E+01 -0.15572843253E+03 -0.21586936667E+03  0.28605143274E+03  0.10429442799E+03 0.  0.
        254    2    1    2    0    0 -0.98572968366E+01  0.15572843253E+03 -0.59356753493E+03  0.10803090604E+04  0.88904259545E+03 0.  0.
        -24    2    4    4    0    0  0.35600529357E+03  0.32494638728E+03 -0.35305603257E+03  0.60283749903E+03  0.80215736928E+02 0.  0.
         24    2    4    4    0    0 -0.36586259040E+03 -0.16921795475E+03 -0.24051150236E+03  0.47747156140E+03  0.87425156021E+02 0.  0.
         13    1    3    3    0    0  0.32449758031E+02 -0.19942658267E+02 -0.96883192500E+02  0.10410114987E+03  0.00000000000E+00 0.  1.
        -13    1    3    3    0    0 -0.22592461194E+02 -0.13578577426E+03 -0.11898617417E+03  0.18195028287E+03  0.00000000000E+00 0. -1.
          2    1    6    6  502    0 -0.24896389134E+02 -0.27961471694E+02 -0.91272230487E+00  0.37450062126E+02  0.00000000000E+00 0. -1.
          3    1    5    5  503    0  0.17811768617E+03  0.18574523046E+03 -0.23240915401E+03  0.34675815150E+03  0.00000000000E+00 0. -1.
         -4    1    5    5    0  503  0.17788760739E+03  0.13920115682E+03 -0.12064687856E+03  0.25607934753E+03  0.00000000000E+00 0.  1.
         -1    1    6    6    0  502 -0.34096620127E+03 -0.14125648306E+03 -0.23959878006E+03  0.44002149927E+03  0.00000000000E+00 0.  1.
<mgrwt>
<rscale>  0 0.11007965E+04</rscale>
<asrwt>0</asrwt>
<pdfrwt beam="1">  1        1 0.16736903E+00 0.11007965E+04</pdfrwt>
<pdfrwt beam="2">  1       -1 0.42840276E-01 0.11007965E+04</pdfrwt>
<totfact> 0.69205079E+01</totfact>
</mgrwt>
</event>
<event>
12    1  0.1114484E-007  0.2056826E+04  0.7818608E-02  0.8580504E-01
          3   -1    0    0  501    0  0.00000000000E+00  0.00000000000E+00  0.21345650998E+04  0.21345650998E+04  0.00000000000E+00 0. -1.
         -3   -1    0    0    0  501 -0.00000000000E+00 -0.00000000000E+00 -0.49547973541E+03  0.49547973541E+03  0.00000000000E+00 0.  1.
         23    2    1    2    0    0 -0.50854409534E+03  0.47751027056E+03  0.12399136358E+04  0.14253503434E+04  0.87204481842E+02 0.  0.
        254    2    1    2    0    0  0.50854409534E+03 -0.47751027056E+03  0.39917172854E+03  0.12046944918E+04  0.89739489320E+03 0.  0.
        -24    2    4    4    0    0 -0.51095541241E+02 -0.38126573447E+03 -0.13974094909E+03  0.41766106637E+03  0.83300173415E+02 0.  0.
         24    2    4    4    0    0  0.55963963658E+03 -0.96244536088E+02  0.53891267764E+03  0.78703342544E+03  0.80840615361E+02 0.  0.
         13    1    3    3    0    0 -0.25507608498E+03  0.20150822842E+03  0.64433973437E+03  0.72169458120E+03  0.00000000000E+00 0.  1.
        -13    1    3    3    0    0 -0.25346801036E+03  0.27600204214E+03  0.59557390148E+03  0.70365576219E+03  0.00000000000E+00 0. -1.
          2    1    6    6  502    0  0.14445551280E+03 -0.60844901385E+02  0.13952426350E+03  0.20984879630E+03  0.00000000000E+00 0. -1.
          3    1    5    5  503    0 -0.27951610401E+02 -0.28012610082E+02 -0.14802033113E+02  0.42250432328E+02  0.00000000000E+00 0. -1.
         -4    1    5    5    0  503 -0.23143930841E+02 -0.35325312439E+03 -0.12493891598E+03  0.37541063404E+03  0.00000000000E+00 0.  1.
         -1    1    6    6    0  502  0.41518412378E+03 -0.35399634703E+02  0.39938841413E+03  0.57718462914E+03  0.00000000000E+00 0.  1.
<mgrwt>
<rscale>  0 0.20568264E+04</rscale>
<asrwt>0</asrwt>
<pdfrwt beam="1">  1        3 0.32839463E+00 0.20568264E+04</pdfrwt>
<pdfrwt beam="2">  1       -3 0.76227653E-01 0.20568264E+04</pdfrwt>
<totfact> 0.10586198E-01</totfact>
</mgrwt>
</event>
<event>
12    1  0.1114484E-007  0.1110914E+04  0.7818608E-02  0.9194620E-01
          1   -1    0    0  501    0  0.00000000000E+00  0.00000000000E+00  0.13690131825E+04  0.13690131825E+04  0.00000000000E+00 0. -1.
         -1   -1    0    0    0  501 -0.00000000000E+00 -0.00000000000E+00 -0.22536835193E+03  0.22536835193E+03  0.00000000000E+00 0.  1.
         23    2    1    2    0    0  0.13947482803E+03  0.83937991263E+02  0.12579593425E+03  0.22351223211E+03  0.87374405845E+02 0.  0.
        254    2    1    2    0    0 -0.13947482803E+03 -0.83937991263E+02  0.10178488963E+04  0.13708693023E+04  0.90375187651E+03 0.  0.
        -24    2    4    4    0    0  0.29561726910E+03 -0.23236369614E+03  0.21159007566E+03  0.43911702066E+03  0.81675826546E+02 0.  0.
         24    2    4    4    0    0 -0.43509209713E+03  0.14842570487E+03  0.80625882068E+03  0.93175228168E+03  0.82302525132E+02 0.  0.
         11    1    3    3    0    0  0.25411762395E+02 -0.12629013292E+02  0.46116025906E+02  0.54147368266E+02  0.00000000000E+00 0.  1.
        -11    1    3    3    0    0  0.11406306563E+03  0.96567004555E+02  0.79679908344E+02  0.16936486384E+03  0.00000000000E+00 0. -1.
          2    1    6    6  502    0 -0.26579451780E+02  0.31781834153E+02  0.57628183243E+02  0.70975768703E+02  0.00000000000E+00 0. -1.
          3    1    5    5  503    0  0.38351787266E+02 -0.38620258483E+00  0.22240187578E+02  0.44335478822E+02  0.00000000000E+00 0. -1.
         -4    1    5    5    0  503  0.25726548184E+03 -0.23197749355E+03  0.18934988809E+03  0.39478154184E+03  0.00000000000E+00 0.  1.
         -1    1    6    6    0  502 -0.40851264535E+03  0.11664387072E+03  0.74863063743E+03  0.86077651298E+03  0.00000000000E+00 0.  1.
<mgrwt>
<rscale>  0 0.11109136E+04</rscale>
<asrwt>0</asrwt>
<pdfrwt beam="1">  1        1 0.21061741E+00 0.11109136E+04</pdfrwt>
<pdfrwt beam="2">  1       -1 0.34672055E-01 0.11109136E+04</pdfrwt>
<totfact> 0.63455084E+01</totfact>
</mgrwt>
</event>
<event>
12    1  0.1114484E-007  0.1331211E+04  0.7818608E-02  0.9005175E-01
          2   -1    0    0  501    0  0.00000000000E+00  0.00000000000E+00  0.15233141407E+04  0.15233141407E+04  0.00000000000E+00 0. -1.
         -2   -1    0    0    0  501 -0.00000000000E+00 -0.00000000000E+00 -0.29083326217E+03  0.29083326217E+03  0.00000000000E+00 0.  1.
         23    2    1    2    0    0 -0.35752850252E+02 -0.19401390969E+03  0.72789833084E+03  0.75964035886E+03  0.91092432810E+02 0.  0.
        254    2    1    2    0    0  0.35752850252E+02  0.19401390969E+03  0.50458254765E+03  0.10545070440E+04  0.90468883874E+03 0.  0.
        -24    2    4    4    0    0 -0.53033848823E+02  0.25686838362E+03 -0.19754629702E+03  0.33955534852E+03  0.86483175358E+02 0.  0.
         24    2    4    4    0    0  0.88786699075E+02 -0.62854473929E+02  0.70212884467E+03  0.71495169545E+03  0.79606843207E+02 0.  0.
         13    1    3    3    0    0 -0.51170920501E+02 -0.51882234949E+02  0.20574416209E+03  0.21826793086E+03  0.00000000000E+00 0.  1.
        -13    1    3    3    0    0  0.15418070249E+02 -0.14213167474E+03  0.52215416874E+03  0.54137242799E+03  0.00000000000E+00 0. -1.
          4    1    6    6  502    0 -0.10208494662E+02 -0.17873235090E+01  0.16204692224E+02  0.19235382467E+02  0.00000000000E+00 0. -1.
          3    1    5    5  503    0 -0.31351698856E+01  0.17984017514E+03 -0.10073469229E+03  0.20615478679E+03  0.00000000000E+00 0. -1.
         -4    1    5    5    0  503 -0.49898678937E+02  0.77028208482E+02 -0.96811604728E+02  0.13340056174E+03  0.00000000000E+00 0.  1.
         -3    1    6    6    0  502  0.98995193737E+02 -0.61067150420E+02  0.68592415244E+03  0.69571631298E+03  0.00000000000E+00 0.  1.
<mgrwt>
<rscale>  0 0.13312106E+04</rscale>
<asrwt>0</asrwt>
<pdfrwt beam="1">  1        2 0.23435602E+00 0.13312106E+04</pdfrwt>
<pdfrwt beam="2">  1       -2 0.44743580E-01 0.13312106E+04</pdfrwt>
<totfact> 0.57038627E+01</totfact>
</mgrwt>
</event>
<event>
12    1  0.1114484E-007  0.3631762E+04  0.7818608E-02  0.8083255E-01
         -2   -1    0    0    0  501 -0.00000000000E+00  0.00000000000E+00  0.12199397889E+04  0.12199397889E+04  0.00000000000E+00 0. -1.
          2   -1    0    0  501    0  0.00000000000E+00 -0.00000000000E+00 -0.27029398783E+04  0.27029398783E+04  0.00000000000E+00 0.  1.
         23    2    1    2    0    0  0.58650359567E+03  0.12633902958E+04 -0.17531313622E+04  0.22409329139E+04  0.90383870679E+02 0.  0.
        254    2    1    2    0    0 -0.58650359567E+03 -0.12633902958E+04  0.27013127283E+03  0.16819467534E+04  0.90323444886E+03 0.  0.
        -24    2    4    4    0    0 -0.27893534573E+02 -0.10083524383E+04  0.15094308183E+02  0.10119820686E+04  0.79543571906E+02 0.  0.
         24    2    4    4    0    0 -0.55861006110E+03 -0.25503785742E+03  0.25503696465E+03  0.66996468483E+03  0.81971437082E+02 0.  0.
         13    1    3    3    0    0  0.34249063203E+03  0.75167501246E+03 -0.96827801387E+03  0.12727440707E+04  0.00000000000E+00 0.  1.
        -13    1    3    3    0    0  0.24401296364E+03  0.51171528330E+03 -0.78485334835E+03  0.96818884315E+03  0.00000000000E+00 0. -1.
          4    1    6    6  502    0 -0.10396423386E+03 -0.76472338642E+02  0.31834867049E+02  0.13292869991E+03  0.00000000000E+00 0. -1.
          1    1    5    5  503    0 -0.46599775693E+02 -0.34095411241E+03  0.11354925863E+02  0.34431116770E+03  0.00000000000E+00 0. -1.
         -2    1    5    5    0  503  0.18706241119E+02 -0.66739832593E+03  0.37393823196E+01  0.66767090089E+03  0.00000000000E+00 0.  1.
         -3    1    6    6    0  502 -0.45464582724E+03 -0.17856551878E+03  0.22320209760E+03  0.53703598492E+03  0.00000000000E+00 0.  1.
<mgrwt>
<rscale>  0 0.36317621E+04</rscale>
<asrwt>0</asrwt>
<pdfrwt beam="1">  1        2 0.41583690E+00 0.36317621E+04</pdfrwt>
<pdfrwt beam="2">  1       -2 0.18768305E+00 0.36317621E+04</pdfrwt>
<totfact> 0.34535976E-01</totfact>
</mgrwt>
</event>
<event>
12    1  0.1114484E-007  0.3410076E+04  0.7818608E-02  0.8135438E-01
         -1   -1    0    0    0  501 -0.00000000000E+00  0.00000000000E+00  0.85232331999E+03  0.85232331999E+03  0.00000000000E+00 0.  1.
          1   -1    0    0  501    0  0.00000000000E+00 -0.00000000000E+00 -0.34108591224E+04  0.34108591224E+04  0.00000000000E+00 0. -1.
         23    2    1    2    0    0 -0.42232032311E+03  0.92928028602E+03  0.32484067436E+03  0.10751325162E+04  0.92044328439E+02 0.  0.
        254    2    1    2    0    0  0.42232032311E+03 -0.92928028602E+03 -0.28833764768E+04  0.31880499262E+04  0.89882485480E+03 0.  0.
        -24    2    4    4    0    0 -0.14744141689E+03 -0.57483761988E+03 -0.80959773738E+03  0.10069344972E+04  0.79317870843E+02 0.  0.
         24    2    4    4    0    0  0.56976174000E+03 -0.35444266614E+03 -0.20737787394E+04  0.21811154290E+04  0.80300750705E+02 0.  0.
         13    1    3    3    0    0 -0.41072101029E+03  0.89837217810E+03  0.29575127808E+03  0.10311319688E+04  0.00000000000E+00 0.  1.
        -13    1    3    3    0    0 -0.11599312827E+02  0.30908107925E+02  0.29089396282E+02  0.44000547379E+02  0.00000000000E+00 0. -1.
          2    1    6    6  502    0  0.43557586510E+02 -0.26171272294E+02 -0.99699423981E+02  0.11190251998E+03  0.00000000000E+00 0. -1.
          3    1    5    5  503    0 -0.71358471769E+02 -0.18391559638E+03 -0.22073457553E+03  0.29604177225E+03  0.00000000000E+00 0. -1.
         -4    1    5    5    0  503 -0.76082945116E+02 -0.39092202350E+03 -0.58886316185E+03  0.71089272494E+03  0.00000000000E+00 0.  1.
         -1    1    6    6    0  502  0.52620415349E+03 -0.32827139385E+03 -0.19740793154E+04  0.20692129090E+04  0.00000000000E+00 0.  1.
<mgrwt>
<rscale>  0 0.34100761E+04</rscale>
<asrwt>0</asrwt>
<pdfrwt beam="1">  1        1 0.52474757E+00 0.34100761E+04</pdfrwt>
<pdfrwt beam="2">  1       -1 0.13112666E+00 0.34100761E+04</pdfrwt>
<totfact> 0.11952341E-01</totfact>
</mgrwt>
</event>
<event>
12    1  0.1114484E-007  0.1330897E+04  0.7818608E-02  0.9005416E-01
          3   -1    0    0  501    0  0.00000000000E+00  0.00000000000E+00  0.52781676232E+03  0.52781676232E+03  0.00000000000E+00 0. -1.
         -3   -1    0    0    0  501 -0.00000000000E+00 -0.00000000000E+00 -0.83896891519E+03  0.83896891519E+03  0.00000000000E+00 0.  1.
         23    2    1    2    0    0  0.16369473354E+02 -0.44944898410E+02  0.27955116931E+03  0.29756159976E+03  0.90033581712E+02 0.  0.
        254    2    1    2    0    0 -0.16369473354E+02  0.44944898410E+02 -0.59070332218E+03  0.10692240778E+04  0.88995601580E+03 0.  0.
        -24    2    4    4    0    0 -0.37445561401E+03 -0.12713540199E+03 -0.69502210941E+02  0.40941533253E+03  0.80062100136E+02 0.  0.
         24    2    4    4    0    0  0.35808614066E+03  0.17208030040E+03 -0.52120111124E+03  0.65980874523E+03  0.76548468333E+02 0.  0.
         11    1    3    3    0    0  0.15899143438E+02  0.26264458754E+02  0.88007080351E+02  0.93208640950E+02  0.00000000000E+00 0.  1.
        -11    1    3    3    0    0  0.47032991668E+00 -0.71209357164E+02  0.19154408896E+03  0.20435295881E+03  0.00000000000E+00 0. -1.
          4    1    6    6  502    0  0.20506715188E+03  0.12857579357E+03 -0.27137891201E+03  0.36363551168E+03  0.00000000000E+00 0. -1.
          3    1    5    5  503    0 -0.22730220881E+03 -0.10319811184E+03 -0.73650118297E+02  0.26027002198E+03  0.00000000000E+00 0. -1.
         -4    1    5    5    0  503 -0.14715340520E+03 -0.23937290153E+02  0.41479073561E+01  0.14914531055E+03  0.00000000000E+00 0.  1.
         -3    1    6    6    0  502  0.15301898877E+03  0.43504506833E+02 -0.24982219923E+03  0.29617323354E+03  0.00000000000E+00 0.  1.
<mgrwt>
<rscale>  0 0.13308972E+04</rscale>
<asrwt>0</asrwt>
<pdfrwt beam="1">  1        3 0.81202579E-01 0.13308972E+04</pdfrwt>
<pdfrwt beam="2">  1       -3 0.12907214E+00 0.13308972E+04</pdfrwt>
<totfact> 0.17040055E+00</totfact>
</mgrwt>
</event>
<event>
12    1  0.1114484E-007  0.1580369E+04  0.7818608E-02  0.8832700E-01
          2   -1    0    0  501    0  0.00000000000E+00  0.00000000000E+00  0.11881759981E+04  0.11881759981E+04  0.00000000000E+00 0. -1.
         -2   -1    0    0    0  501 -0.00000000000E+00 -0.00000000000E+00 -0.52550431344E+03  0.52550431344E+03  0.00000000000E+00 0.  1.
         23    2    1    2    0    0 -0.24146361499E+03 -0.20888361215E+03 -0.22989073597E+03  0.40454163335E+03  0.94165502388E+02 0.  0.
        254    2    1    2    0    0  0.24146361499E+03  0.20888361215E+03  0.89256242063E+03  0.13091386782E+04  0.90290606556E+03 0.  0.
        -24    2    4    4    0    0  0.20586628419E+03 -0.33047782669E+03  0.26827915544E+03  0.47945305055E+03  0.79404039780E+02 0.  0.
         24    2    4    4    0    0  0.35597330802E+02  0.53936143884E+03  0.62428326519E+03  0.82968562764E+03  0.80440747435E+02 0.  0.
         11    1    3    3    0    0 -0.57300280834E+02 -0.27052126048E+02 -0.84382670747E+01  0.63924518446E+02  0.00000000000E+00 0. -1.
        -11    1    3    3    0    0 -0.18416333416E+03 -0.18183148610E+03 -0.22145246890E+03  0.34061711491E+03  0.00000000000E+00 0.  1.
          4    1    6    6  502    0  0.48242120573E+02  0.25294485744E+03  0.25767257411E+03  0.36428499633E+03  0.00000000000E+00 0. -1.
          1    1    5    5  503    0  0.28542304472E+02 -0.10426808709E+03  0.94428929129E+02  0.14353856550E+03  0.00000000000E+00 0. -1.
         -4    1    5    5    0  503  0.17732397972E+03 -0.22620973960E+03  0.17385022631E+03  0.33591448504E+03  0.00000000000E+00 0.  1.
         -3    1    6    6    0  502 -0.12644789772E+02  0.28641658140E+03  0.36661069108E+03  0.46540063131E+03  0.00000000000E+00 0.  1.
<mgrwt>
<rscale>  0 0.15803691E+04</rscale>
<asrwt>0</asrwt>
<pdfrwt beam="1">  1        2 0.18279631E+00 0.15803691E+04</pdfrwt>
<pdfrwt beam="2">  1       -2 0.80846818E-01 0.15803691E+04</pdfrwt>
<totfact> 0.24962153E+01</totfact>
</mgrwt>
</event>
<event>
12    1  0.1114484E-007  0.2104024E+04  0.7818608E-02  0.8559473E-01
          2   -1    0    0  501    0  0.00000000000E+00  0.00000000000E+00  0.26872770286E+04  0.26872770286E+04  0.00000000000E+00 0.  1.
         -2   -1    0    0    0  501 -0.00000000000E+00 -0.00000000000E+00 -0.41184030709E+03  0.41184030709E+03  0.00000000000E+00 0. -1.
         23    2    1    2    0    0 -0.17541707204E+03  0.80427836053E+03  0.12782047021E+04  0.15233964959E+04  0.96409506391E+02 0.  0.
        254    2    1    2    0    0  0.17541707204E+03 -0.80427836053E+03  0.99723201944E+03  0.15757208398E+04  0.90043857869E+03 0.  0.
        -24    2    4    4    0    0 -0.36058586274E+03 -0.35675993288E+03  0.36063348035E+03  0.62755134970E+03  0.80401338581E+02 0.  0.
         24    2    4    4    0    0  0.53600293478E+03 -0.44751842764E+03  0.63659853909E+03  0.94816949010E+03  0.78713358476E+02 0.  0.
         11    1    3    3    0    0 -0.69136505577E+02  0.31380943298E+03  0.58731600725E+03  0.66947465150E+03  0.00000000000E+00 0. -1.
        -11    1    3    3    0    0 -0.10628056646E+03  0.49046892755E+03  0.69088869486E+03  0.85392184442E+03  0.00000000000E+00 0.  1.
          4    1    6    6  502    0  0.28782323432E+03 -0.25291097002E+03  0.40003791556E+03  0.55392825064E+03  0.00000000000E+00 0. -1.
          3    1    5    5  503    0 -0.60229087512E+01  0.28463033619E+01 -0.53894889888E+00  0.66833628189E+01  0.00000000000E+00 0. -1.
         -4    1    5    5    0  503 -0.35456295399E+03 -0.35960623625E+03  0.36117242925E+03  0.62086798688E+03  0.00000000000E+00 0.  1.
         -3    1    6    6    0  502  0.24817970046E+03 -0.19460745762E+03  0.23656062353E+03  0.39424123945E+03  0.00000000000E+00 0.  1.
<mgrwt>
<rscale>  0 0.21040238E+04</rscale>
<asrwt>0</asrwt>
<pdfrwt beam="1">  1        2 0.41342723E+00 0.21040238E+04</pdfrwt>
<pdfrwt beam="2">  1       -2 0.63360049E-01 0.21040238E+04</pdfrwt>
<totfact> 0.57453880E+00</totfact>
</mgrwt>
</event>
<event>
12    1  0.1114484E-007  0.1866692E+04  0.7818608E-02  0.8671616E-01
         -2   -1    0    0    0  501 -0.00000000000E+00  0.00000000000E+00  0.51138355766E+03  0.51138355766E+03  0.00000000000E+00 0.  1.
          2   -1    0    0  501    0  0.00000000000E+00 -0.00000000000E+00 -0.17034858802E+04  0.17034858802E+04  0.00000000000E+00 0. -1.
         23    2    1    2    0    0  0.62997265398E+03 -0.46670655364E+02 -0.49747418931E+02  0.64050136054E+03  0.93399637740E+02 0.  0.
        254    2    1    2    0    0 -0.62997265398E+03  0.46670655364E+02 -0.11423549036E+04  0.15743680773E+04  0.88012295858E+03 0.  0.
        -24    2    4    4    0    0 -0.31624110473E+03 -0.41309392370E+02  0.53177992557E+02  0.33287224427E+03  0.79127301787E+02 0.  0.
         24    2    4    4    0    0 -0.31373154924E+03  0.87980047735E+02 -0.11955328961E+04  0.12414958330E+04  0.76452755976E+02 0.  0.
         13    1    3    3    0    0  0.10325498889E+03 -0.20165474647E+01 -0.42952179877E+02  0.11185056527E+03  0.00000000000E+00 0. -1.
        -13    1    3    3    0    0  0.52671766508E+03 -0.44654107900E+02 -0.67952390530E+01  0.52865079527E+03  0.00000000000E+00 0.  1.
          4    1    6    6  502    0 -0.12813585458E+03 -0.18799012474E+01 -0.48523377935E+03  0.50187065253E+03  0.00000000000E+00 0. -1.
          1    1    5    5  503    0 -0.18045176977E+03 -0.26219002580E+01 -0.40651582477E+01  0.18051659504E+03  0.00000000000E+00 0. -1.
         -2    1    5    5    0  503 -0.13578933496E+03 -0.38687492112E+02  0.57243150805E+02  0.15235564922E+03  0.00000000000E+00 0.  1.
         -3    1    6    6    0  502 -0.18559569466E+03  0.89859948982E+02 -0.71029911677E+03  0.73962518048E+03  0.00000000000E+00 0.  1.
<mgrwt>
<rscale>  0 0.18666919E+04</rscale>
<asrwt>0</asrwt>
<pdfrwt beam="1">  1        2 0.26207475E+00 0.18666919E+04</pdfrwt>
<pdfrwt beam="2">  1       -2 0.78674393E-01 0.18666919E+04</pdfrwt>
<totfact> 0.13157048E+01</totfact>
</mgrwt>
</event>
<event>
12    1  0.1114484E-007  0.1788036E+04  0.7818608E-02  0.8712688E-01
          1   -1    0    0  501    0  0.00000000000E+00  0.00000000000E+00  0.31607050251E+04  0.31607050251E+04  0.00000000000E+00 0. -1.
         -1   -1    0    0    0  501 -0.00000000000E+00 -0.00000000000E+00 -0.25287642149E+03  0.25287642149E+03  0.00000000000E+00 0.  1.
         23    2    1    2    0    0  0.49338660455E+02 -0.34351716113E+03  0.11175858420E+02  0.35880501377E+03  0.90431159978E+02 0.  0.
        254    2    1    2    0    0 -0.49338660455E+02  0.34351716113E+03  0.28966527452E+04  0.30547764328E+04  0.90588276552E+03 0.  0.
        -24    2    4    4    0    0 -0.20748136390E+02  0.32041954497E+03  0.29380419987E+04  0.29565922137E+04  0.79041518985E+02 0.  0.
         24    2    4    4    0    0 -0.28590524066E+02  0.23097616160E+02 -0.41389253537E+02  0.98184219140E+02  0.81093480880E+02 0.  0.
         13    1    3    3    0    0  0.39256718698E+02 -0.12903100858E+03 -0.34641046503E+02  0.13924831504E+03  0.00000000000E+00 0. -1.
        -13    1    3    3    0    0  0.10081941758E+02 -0.21448615254E+03  0.45816904924E+02  0.21955669873E+03  0.00000000000E+00 0.  1.
          2    1    6    6  502    0 -0.24923516869E+02  0.14913286256E+02  0.20562577904E+02  0.35586618414E+02  0.00000000000E+00 0. -1.
          3    1    5    5  503    0  0.16260711908E+02  0.84643303605E+02  0.55852532163E+03  0.56513665117E+03  0.00000000000E+00 0. -1.
         -4    1    5    5    0  503 -0.37008848297E+02  0.23577624136E+03  0.23795166771E+04  0.23914555625E+04  0.00000000000E+00 0.  1.
         -1    1    6    6    0  502 -0.36670071970E+01  0.81843299041E+01 -0.61951831441E+02  0.62597600726E+02  0.00000000000E+00 0.  1.
<mgrwt>
<rscale>  0 0.17880355E+04</rscale>
<asrwt>0</asrwt>
<pdfrwt beam="1">  1        1 0.48626229E+00 0.17880355E+04</pdfrwt>
<pdfrwt beam="2">  1       -1 0.38904067E-01 0.17880355E+04</pdfrwt>
<totfact> 0.27649746E+00</totfact>
</mgrwt>
</event>
<event>
12    1  0.1114484E-007  0.1509138E+04  0.7818608E-02  0.8878399E-01
          1   -1    0    0  501    0  0.00000000000E+00  0.00000000000E+00  0.69148535655E+03  0.69148535655E+03  0.00000000000E+00 0. -1.
         -1   -1    0    0    0  501 -0.00000000000E+00 -0.00000000000E+00 -0.82340789166E+03  0.82340789166E+03  0.00000000000E+00 0.  1.
         23    2    1    2    0    0  0.62084740759E+02 -0.42374081111E+02  0.42799696690E+03  0.44363822287E+03  0.89349825574E+02 0.  0.
        254    2    1    2    0    0 -0.62084740759E+02  0.42374081111E+02 -0.55991950202E+03  0.10712550253E+04  0.91017987387E+03 0.  0.
        -24    2    4    4    0    0  0.83423789477E+02 -0.40792581843E+03 -0.33968117461E+03  0.54314613983E+03  0.79129178133E+02 0.  0.
         24    2    4    4    0    0 -0.14550853024E+03  0.45029989954E+03 -0.22023832741E+03  0.52810888551E+03  0.80320247753E+02 0.  0.
         13    1    3    3    0    0  0.86531279641E+01 -0.22772060386E+02  0.19523263525E+02  0.31218603051E+02  0.00000000000E+00 0.  1.
        -13    1    3    3    0    0  0.53431612795E+02 -0.19602020725E+02  0.40847370337E+03  0.41241961982E+03  0.00000000000E+00 0. -1.
          4    1    6    6  502    0 -0.88576644152E+02  0.37590897404E+03 -0.18177117318E+03  0.42684205281E+03  0.00000000000E+00 0. -1.
          1    1    5    5  503    0  0.32677251172E+02 -0.22880739629E+03 -0.14038197636E+03  0.27042138715E+03  0.00000000000E+00 0. -1.
         -2    1    5    5    0  503  0.50746538305E+02 -0.17911842214E+03 -0.19929919825E+03  0.27272475268E+03  0.00000000000E+00 0.  1.
         -3    1    6    6    0  502 -0.56931886085E+02  0.74390925506E+02 -0.38467154232E+02  0.10126683270E+03  0.00000000000E+00 0.  1.
<mgrwt>
<rscale>  0 0.15091382E+04</rscale>
<asrwt>0</asrwt>
<pdfrwt beam="1">  1        1 0.10638236E+00 0.15091382E+04</pdfrwt>
<pdfrwt beam="2">  1       -1 0.12667814E+00 0.15091382E+04</pdfrwt>
<totfact> 0.14526561E+01</totfact>
</mgrwt>
</event>
<event>
12    1  0.1114484E-007  0.1433224E+04  0.7818608E-02  0.8930114E-01
          2   -1    0    0  501    0  0.00000000000E+00  0.00000000000E+00  0.19189195874E+04  0.19189195874E+04  0.00000000000E+00 0.  1.
         -2   -1    0    0    0  501 -0.00000000000E+00 -0.00000000000E+00 -0.26761563701E+03  0.26761563701E+03  0.00000000000E+00 0. -1.
         23    2    1    2    0    0  0.37469649347E+02 -0.16186151045E+03 -0.10056667616E+03  0.21493811633E+03  0.92095680194E+02 0.  0.
        254    2    1    2    0    0 -0.37469649347E+02  0.16186151045E+03  0.17518706265E+04  0.19715971081E+04  0.88912391780E+03 0.  0.
        -24    2    4    4    0    0 -0.28702719394E+03  0.42690116458E+03  0.87583015768E+03  0.10196354744E+04  0.89156161647E+02 0.  0.
         24    2    4    4    0    0  0.24955754459E+03 -0.26503965413E+03  0.87604046885E+03  0.95196163366E+03  0.79114237497E+02 0.  0.
         13    1    3    3    0    0  0.41711627075E+02 -0.16550897647E+03 -0.71025935395E+02  0.18487229274E+03  0.00000000000E+00 0. -1.
        -13    1    3    3    0    0 -0.42419777276E+01  0.36474660119E+01 -0.29540740767E+02  0.30065823595E+02  0.00000000000E+00 0.  1.
          2    1    6    6  502    0  0.14797251353E+03 -0.20617267381E+03  0.63546553187E+03  0.68426564898E+03  0.00000000000E+00 0. -1.
          1    1    5    5  503    0 -0.14234649926E+03  0.24898105923E+03  0.40916895595E+03  0.49967322144E+03  0.00000000000E+00 0. -1.
         -2    1    5    5    0  503 -0.14468069468E+03  0.17792010535E+03  0.46666120173E+03  0.51996225296E+03  0.00000000000E+00 0.  1.
         -1    1    6    6    0  502  0.10158503107E+03 -0.58866980321E+02  0.24057493698E+03  0.26769598467E+03  0.00000000000E+00 0.  1.
<mgrwt>
<rscale>  0 0.14332242E+04</rscale>
<asrwt>0</asrwt>
<pdfrwt beam="1">  1        2 0.29521839E+00 0.14332242E+04</pdfrwt>
<pdfrwt beam="2">  1       -2 0.41171638E-01 0.14332242E+04</pdfrwt>
<totfact> 0.40226783E+01</totfact>
</mgrwt>
</event>
<event>
12    1  0.1114484E-007  0.1456460E+04  0.7818608E-02  0.8913934E-01
         -1   -1    0    0    0  501 -0.00000000000E+00  0.00000000000E+00  0.83404670920E+03  0.83404670920E+03  0.00000000000E+00 0.  1.
          1   -1    0    0  501    0  0.00000000000E+00 -0.00000000000E+00 -0.63583880901E+03  0.63583880901E+03  0.00000000000E+00 0. -1.
         23    2    1    2    0    0  0.20103891798E+03  0.31206639375E+03 -0.18501256024E+03  0.42448478609E+03  0.90308391231E+02 0.  0.
        254    2    1    2    0    0 -0.20103891798E+03 -0.31206639375E+03  0.38322046043E+03  0.10454007321E+04  0.89900093925E+03 0.  0.
        -24    2    4    4    0    0 -0.46020165372E+03 -0.18611221541E+03  0.51371466080E+03  0.71922481410E+03  0.83416195528E+02 0.  0.
         24    2    4    4    0    0  0.25916273574E+03 -0.12595417834E+03 -0.13049420038E+03  0.32617591802E+03  0.79575213004E+02 0.  0.
         11    1    3    3    0    0  0.10395791250E+02 -0.48387046100E+01 -0.10505622286E+02  0.15551644210E+02  0.00000000000E+00 0.  1.
        -11    1    3    3    0    0  0.19064312673E+03  0.31690509836E+03 -0.17450693795E+03  0.40893314188E+03  0.00000000000E+00 0. -1.
          2    1    6    6  502    0  0.11063882193E+03 -0.75850076724E+02 -0.97919234475E+02  0.16607937722E+03  0.00000000000E+00 0. -1.
          3    1    5    5  503    0 -0.19371697148E+03 -0.74829963186E+02  0.27466285987E+03  0.34433337773E+03  0.00000000000E+00 0. -1.
         -4    1    5    5    0  503 -0.26648468224E+03 -0.11128225223E+03  0.23905180094E+03  0.37489143637E+03  0.00000000000E+00 0.  1.
         -3    1    6    6    0  502  0.14852391381E+03 -0.50104101612E+02 -0.32574965901E+02  0.16009654080E+03  0.00000000000E+00 0.  1.
<mgrwt>
<rscale>  0 0.14564605E+04</rscale>
<asrwt>0</asrwt>
<pdfrwt beam="1">  1        1 0.97821355E-01 0.14564605E+04</pdfrwt>
<pdfrwt beam="2">  1       -1 0.12831488E+00 0.14564605E+04</pdfrwt>
<totfact> 0.16013275E+01</totfact>
</mgrwt>
</event>
<event>
12    1  0.1114484E-007  0.3641842E+04  0.7818608E-02  0.8080974E-01
          2   -1    0    0  501    0  0.00000000000E+00  0.00000000000E+00  0.25499063348E+04  0.25499063348E+04  0.00000000000E+00 0. -1.
         -2   -1    0    0    0  501 -0.00000000000E+00 -0.00000000000E+00 -0.13003431731E+04  0.13003431731E+04  0.00000000000E+00 0.  1.
         23    2    1    2    0    0  0.12360390632E+04  0.13164160941E+03  0.18288944056E+04  0.22132146686E+04  0.91336429925E+02 0.  0.
        254    2    1    2    0    0 -0.12360390632E+04 -0.13164160941E+03 -0.57933124393E+03  0.16370348392E+04  0.89394423508E+03 0.  0.
        -24    2    4    4    0    0  0.11240658073E+03  0.85624722037E+02 -0.44156633815E+02  0.16790795749E+03  0.79223995504E+02 0.  0.
         24    2    4    4    0    0 -0.13484456440E+04 -0.21726633144E+03 -0.53517461011E+03  0.14691268817E+04  0.80072578188E+02 0.  0.
         13    1    3    3    0    0  0.19570758472E+03  0.50141731649E+02  0.26763789112E+03  0.33532923036E+03  0.00000000000E+00 0.  1.
        -13    1    3    3    0    0  0.10403314785E+04  0.81499877758E+02  0.15612565145E+04  0.18778854383E+04  0.00000000000E+00 0. -1.
          2    1    6    6  502    0 -0.19264497413E+03 -0.48115238617E+02 -0.10248820794E+03  0.22345244463E+03  0.00000000000E+00 0. -1.
          3    1    5    5  503    0  0.37439281308E+02  0.58902055063E+01  0.18096666803E+02  0.41998614920E+02  0.00000000000E+00 0. -1.
         -4    1    5    5    0  503  0.74967299423E+02  0.79734516530E+02 -0.62253300618E+02  0.12590934257E+03  0.00000000000E+00 0.  1.
         -1    1    6    6    0  502 -0.11558006698E+04 -0.16915109283E+03 -0.43268640217E+03  0.12456744371E+04  0.00000000000E+00 0.  1.
<mgrwt>
<rscale>  0 0.36418420E+04</rscale>
<asrwt>0</asrwt>
<pdfrwt beam="1">  1        2 0.39229328E+00 0.36418420E+04</pdfrwt>
<pdfrwt beam="2">  1       -2 0.20005280E+00 0.36418420E+04</pdfrwt>
<totfact> 0.35141505E-01</totfact>
</mgrwt>
</event>
<event>
12    1  0.1114484E-007  0.1484083E+04  0.7818608E-02  0.8895107E-01
         -2   -1    0    0    0  501 -0.00000000000E+00  0.00000000000E+00  0.92829946171E+03  0.92829946171E+03  0.00000000000E+00 0.  1.
          2   -1    0    0  501    0  0.00000000000E+00 -0.00000000000E+00 -0.59315504810E+03  0.59315504810E+03  0.00000000000E+00 0. -1.
         23    2    1    2    0    0 -0.29656536782E+03 -0.22817232489E+03  0.37716698867E+03  0.53916134821E+03  0.91795396555E+02 0.  0.
        254    2    1    2    0    0  0.29656536782E+03  0.22817232489E+03 -0.42022575065E+02  0.98229316160E+03  0.90725979260E+03 0.  0.
        -24    2    4    4    0    0  0.48869096550E+01  0.51963511126E+03 -0.15326155590E+03  0.54729819455E+03  0.77470500844E+02 0.  0.
         24    2    4    4    0    0  0.29167845816E+03 -0.29146278637E+03  0.11123898083E+03  0.43499496705E+03  0.82581061405E+02 0.  0.
         11    1    3    3    0    0 -0.12225913273E+03 -0.40765907418E+02  0.13897236968E+03  0.18953225129E+03  0.00000000000E+00 0.  1.
        -11    1    3    3    0    0 -0.17430623508E+03 -0.18740641747E+03  0.23819461898E+03  0.34962909692E+03  0.00000000000E+00 0. -1.
          2    1    6    6  502    0  0.47048175563E+02 -0.60024155916E+02 -0.10332423088E+02  0.76962257530E+02  0.00000000000E+00 0. -1.
          1    1    5    5  503    0 -0.30738905659E+02  0.12939062665E+03 -0.28099313237E+02  0.13592787055E+03  0.00000000000E+00 0. -1.
         -2    1    5    5    0  503  0.35625815314E+02  0.39024448461E+03 -0.12516224266E+03  0.41137032400E+03  0.00000000000E+00 0.  1.
         -1    1    6    6    0  502  0.24463028260E+03 -0.23143863046E+03  0.12157140392E+03  0.35803270952E+03  0.00000000000E+00 0.  1.
<mgrwt>
<rscale>  0 0.14840829E+04</rscale>
<asrwt>0</asrwt>
<pdfrwt beam="1">  1        2 0.91254623E-01 0.14840829E+04</pdfrwt>
<pdfrwt beam="2">  1       -2 0.14281530E+00 0.14840829E+04</pdfrwt>
<totfact> 0.16577324E+01</totfact>
</mgrwt>
</event>
<event>
12    1  0.1114484E-007  0.1894372E+04  0.7818608E-02  0.8657663E-01
         -1   -1    0    0    0  501 -0.00000000000E+00  0.00000000000E+00  0.11095465050E+04  0.11095465050E+04  0.00000000000E+00 0.  1.
          1   -1    0    0  501    0  0.00000000000E+00 -0.00000000000E+00 -0.80858366380E+03  0.80858366380E+03  0.00000000000E+00 0. -1.
         23    2    1    2    0    0  0.61222903663E+03  0.92775421994E+02  0.49571374311E+03  0.79654070111E+03  0.72892394630E+02 0.  0.
        254    2    1    2    0    0 -0.61222903663E+03 -0.92775421994E+02 -0.19475090196E+03  0.11215894676E+04  0.91466023632E+03 0.  0.
        -24    2    4    4    0    0 -0.43082390042E+03  0.20391663102E+03 -0.46720119692E+03  0.67218741565E+03  0.79798106379E+02 0.  0.
         24    2    4    4    0    0 -0.18140513621E+03 -0.29669205301E+03  0.27245029496E+03  0.44940205200E+03  0.82456311779E+02 0.  0.
         13    1    3    3    0    0  0.36186087704E+03  0.90680339343E+02  0.30235706018E+03  0.48019372145E+03  0.00000000000E+00 0. -1.
        -13    1    3    3    0    0  0.25036815959E+03  0.20950826509E+01  0.19335668293E+03  0.31634697966E+03  0.00000000000E+00 0.  1.
          4    1    6    6  502    0 -0.97705670473E+02 -0.22442044965E+03  0.16482119385E+03  0.29508805839E+03  0.00000000000E+00 0. -1.
          3    1    5    5  503    0 -0.39675982096E+03  0.18093253254E+03 -0.45282155545E+03  0.62865117350E+03  0.00000000000E+00 0. -1.
         -4    1    5    5    0  503 -0.34064079456E+02  0.22984098474E+02 -0.14379641465E+02  0.43536242149E+02  0.00000000000E+00 0.  1.
         -3    1    6    6    0  502 -0.83699465738E+02 -0.72271603366E+02  0.10762910111E+03  0.15431399361E+03  0.00000000000E+00 0.  1.
<mgrwt>
<rscale>  0 0.18943719E+04</rscale>
<asrwt>0</asrwt>
<pdfrwt beam="1">  1        1 0.12439749E+00 0.18943719E+04</pdfrwt>
<pdfrwt beam="2">  1       -1 0.17069946E+00 0.18943719E+04</pdfrwt>
<totfact> 0.49465745E+00</totfact>
</mgrwt>
</event>
<event>
12    1  0.1114484E-007  0.1422282E+04  0.7818608E-02  0.8937846E-01
         -1   -1    0    0    0  501 -0.00000000000E+00  0.00000000000E+00  0.78542109299E+03  0.78542109299E+03  0.00000000000E+00 0.  1.
          1   -1    0    0  501    0  0.00000000000E+00 -0.00000000000E+00 -0.64388570602E+03  0.64388570602E+03  0.00000000000E+00 0. -1.
         23    2    1    2    0    0 -0.37801639106E+03 -0.10478849343E+03 -0.94975153669E+02  0.41371138987E+03  0.90883519039E+02 0.  0.
        254    2    1    2    0    0  0.37801639106E+03  0.10478849343E+03  0.23651054064E+03  0.10155954091E+04  0.90643244589E+03 0.  0.
        -24    2    4    4    0    0  0.63743911294E+03  0.18475017761E+03  0.38618933450E+02  0.66958847598E+03  0.79975335637E+02 0.  0.
         24    2    4    4    0    0 -0.25942272189E+03 -0.79961684188E+02  0.19789160719E+03  0.34600693315E+03  0.82859459470E+02 0.  0.
         11    1    3    3    0    0 -0.79490803688E+02 -0.22899138487E+02 -0.59992623351E+02  0.10218744185E+03  0.00000000000E+00 0.  1.
        -11    1    3    3    0    0 -0.29852558737E+03 -0.81889354939E+02 -0.34982530318E+02  0.31152394802E+03  0.00000000000E+00 0. -1.
          2    1    6    6  502    0 -0.20503247022E+03 -0.90097993587E+02  0.18160252592E+03  0.28833216906E+03  0.00000000000E+00 0. -1.
          3    1    5    5  503    0  0.61174829242E+03  0.18974741429E+03  0.46691552206E+02  0.64219946711E+03  0.00000000000E+00 0. -1.
         -4    1    5    5    0  503  0.25690820519E+02 -0.49972366737E+01 -0.80726187554E+01  0.27389008870E+02  0.00000000000E+00 0.  1.
         -1    1    6    6    0  502 -0.54390251661E+02  0.10136309399E+02  0.16289081262E+02  0.57674764086E+02  0.00000000000E+00 0.  1.
<mgrwt>
<rscale>  0 0.14222818E+04</rscale>
<asrwt>0</asrwt>
<pdfrwt beam="1">  1        1 0.99059339E-01 0.14222818E+04</pdfrwt>
<pdfrwt beam="2">  1       -1 0.12083401E+00 0.14222818E+04</pdfrwt>
<totfact> 0.18303891E+01</totfact>
</mgrwt>
</event>
<event>
12    1  0.1114484E-007  0.1502600E+04  0.7818608E-02  0.8882726E-01
          1   -1    0    0  501    0  0.00000000000E+00  0.00000000000E+00  0.12949131183E+04  0.12949131183E+04  0.00000000000E+00 0. -1.
         -1   -1    0    0    0  501 -0.00000000000E+00 -0.00000000000E+00 -0.43589926687E+03  0.43589926687E+03  0.00000000000E+00 0.  1.
         23    2    1    2    0    0 -0.21241681609E+03 -0.38481049508E+03  0.23625498675E+03  0.50693886150E+03  0.89278046857E+02 0.  0.
        254    2    1    2    0    0  0.21241681609E+03  0.38481049508E+03  0.62275886469E+03  0.12238735237E+04  0.95751646333E+03 0.  0.
        -24    2    4    4    0    0  0.18554738015E+03  0.68273702760E+03  0.56293125087E+03  0.90778727858E+03  0.81415421204E+02 0.  0.
         24    2    4    4    0    0  0.26869435937E+02 -0.29792653252E+03  0.59827613812E+02  0.31608624510E+03  0.82758598354E+02 0.  0.
         11    1    3    3    0    0 -0.20911171129E+03 -0.34347430543E+03  0.18978868157E+03  0.44465947639E+03  0.00000000000E+00 0. -1.
        -11    1    3    3    0    0 -0.33051048003E+01 -0.41336189648E+02  0.46466305181E+02  0.62279385109E+02  0.00000000000E+00 0.  1.
          4    1    6    6  502    0 -0.22902493229E+02 -0.47028369525E+02 -0.39820891962E+01  0.52459973033E+02  0.00000000000E+00 0. -1.
          1    1    5    5  503    0  0.20490414856E+02  0.48403164499E+02  0.18526575956E+02  0.55731117440E+02  0.00000000000E+00 0. -1.
         -2    1    5    5    0  503  0.16505696530E+03  0.63433386310E+03  0.54440467492E+03  0.85205616114E+03  0.00000000000E+00 0.  1.
         -3    1    6    6    0  502  0.49771929166E+02 -0.25089816299E+03  0.63809703008E+02  0.26362627207E+03  0.00000000000E+00 0.  1.
<mgrwt>
<rscale>  0 0.15026000E+04</rscale>
<asrwt>0</asrwt>
<pdfrwt beam="1">  1        1 0.19921740E+00 0.15026000E+04</pdfrwt>
<pdfrwt beam="2">  1       -1 0.67061426E-01 0.15026000E+04</pdfrwt>
<totfact> 0.19871573E+01</totfact>
</mgrwt>
</event>
<event>
12    1  0.1114484E-007  0.1487956E+04  0.7818608E-02  0.8892502E-01
         -2   -1    0    0    0  501 -0.00000000000E+00  0.00000000000E+00  0.40618226526E+03  0.40618226526E+03  0.00000000000E+00 0. -1.
          2   -1    0    0  501    0  0.00000000000E+00 -0.00000000000E+00 -0.13626964850E+04  0.13626964850E+04  0.00000000000E+00 0.  1.
         23    2    1    2    0    0 -0.42260621878E+03 -0.15078097275E+03 -0.22382270441E+03  0.50981122618E+03  0.92086727794E+02 0.  0.
        254    2    1    2    0    0  0.42260621878E+03  0.15078097275E+03 -0.73269151537E+03  0.12590675241E+04  0.92037125972E+03 0.  0.
        -24    2    4    4    0    0 -0.19461554783E+03  0.16444504010E+02 -0.56143881092E+03  0.59976649008E+03  0.79753815206E+02 0.  0.
         24    2    4    4    0    0  0.61722176661E+03  0.13433646874E+03 -0.17125270445E+03  0.65930103405E+03  0.79632711316E+02 0.  0.
         13    1    3    3    0    0 -0.43038642096E+02 -0.98137869777E+01  0.54941010378E+01  0.44483932768E+02  0.00000000000E+00 0.  1.
        -13    1    3    3    0    0 -0.37956757668E+03 -0.14096718577E+03 -0.22931680544E+03  0.46532729341E+03  0.00000000000E+00 0. -1.
          2    1    6    6  502    0  0.15123854759E+03  0.12260256752E+02 -0.69827203715E+02  0.16703068745E+03  0.00000000000E+00 0. -1.
          1    1    5    5  503    0 -0.64386420400E+02  0.28916219505E+00 -0.30476483819E+03  0.31149205663E+03  0.00000000000E+00 0. -1.
         -2    1    5    5    0  503 -0.13022912743E+03  0.16155341815E+02 -0.25667397273E+03  0.28827443344E+03  0.00000000000E+00 0.  1.
         -1    1    6    6    0  502  0.46598321902E+03  0.12207621199E+03 -0.10142550074E+03  0.49227034660E+03  0.00000000000E+00 0.  1.
<mgrwt>
<rscale>  0 0.14879558E+04</rscale>
<asrwt>0</asrwt>
<pdfrwt beam="1">  1        2 0.20964561E+00 0.14879558E+04</pdfrwt>
<pdfrwt beam="2">  1       -2 0.62489579E-01 0.14879558E+04</pdfrwt>
<totfact> 0.34922769E+01</totfact>
</mgrwt>
</event>
<event>
12    1  0.1114484E-007  0.2565881E+04  0.7818608E-02  0.8379884E-01
          1   -1    0    0  501    0  0.00000000000E+00  0.00000000000E+00  0.16671775602E+04  0.16671775602E+04  0.00000000000E+00 0. -1.
         -1   -1    0    0    0  501 -0.00000000000E+00 -0.00000000000E+00 -0.98725936715E+03  0.98725936715E+03  0.00000000000E+00 0.  1.
         23    2    1    2    0    0 -0.91100244576E+03  0.58769313952E+03 -0.97765441364E+01  0.10881438996E+04  0.93020873429E+02 0.  0.
        254    2    1    2    0    0  0.91100244576E+03 -0.58769313952E+03  0.68969473722E+03  0.15662930278E+04  0.89570437983E+03 0.  0.
        -24    2    4    4    0    0  0.93000888237E+03 -0.18284568186E+03  0.29888658124E+03  0.99767912471E+03  0.87643498181E+02 0.  0.
         24    2    4    4    0    0 -0.19006436607E+02 -0.40484745766E+03  0.39080815598E+03  0.56861390312E+03  0.79549025334E+02 0.  0.
         11    1    3    3    0    0 -0.80192174989E+03  0.55063324777E+03 -0.35888369304E+01  0.97277353287E+03  0.00000000000E+00 0.  1.
        -11    1    3    3    0    0 -0.10908069587E+03  0.37059891749E+02 -0.61877072060E+01  0.11537036668E+03  0.00000000000E+00 0. -1.
          2    1    6    6  502    0  0.19992781421E+02 -0.53418477439E+02  0.77236887298E+02  0.96014487450E+02  0.00000000000E+00 0. -1.
          1    1    5    5  503    0  0.14776711164E+03 -0.49176066901E+02  0.22530856357E+02  0.15735642448E+03  0.00000000000E+00 0. -1.
         -2    1    5    5    0  503  0.78224177073E+03 -0.13366961496E+03  0.27635572488E+03  0.84032270022E+03  0.00000000000E+00 0.  1.
         -1    1    6    6    0  502 -0.38999218027E+02 -0.35142898022E+03  0.31357126868E+03  0.47259941567E+03  0.00000000000E+00 0.  1.
<mgrwt>
<rscale>  0 0.25658813E+04</rscale>
<asrwt>0</asrwt>
<pdfrwt beam="1">  1        1 0.25648885E+00 0.25658813E+04</pdfrwt>
<pdfrwt beam="2">  1       -1 0.15188606E+00 0.25658813E+04</pdfrwt>
<totfact> 0.14953014E+00</totfact>
</mgrwt>
</event>
<event>
12    1  0.1114484E-007  0.1370049E+04  0.7818608E-02  0.8975788E-01
          2   -1    0    0  501    0  0.00000000000E+00  0.00000000000E+00  0.58038741220E+03  0.58038741220E+03  0.00000000000E+00 0.  1.
         -2   -1    0    0    0  501 -0.00000000000E+00 -0.00000000000E+00 -0.80852658598E+03  0.80852658598E+03  0.00000000000E+00 0. -1.
         23    2    1    2    0    0  0.35920314526E+03  0.53921058146E+02  0.58302487133E+02  0.37896116283E+03  0.90983530679E+02 0.  0.
        254    2    1    2    0    0 -0.35920314526E+03 -0.53921058146E+02 -0.28644166091E+03  0.10099528353E+04  0.89778701507E+03 0.  0.
        -24    2    4    4    0    0 -0.38246260689E+03  0.29920552824E+03 -0.39559986407E+03  0.63142293675E+03  0.79962983956E+02 0.  0.
         24    2    4    4    0    0  0.23259461639E+02 -0.35312658638E+03  0.10915820315E+03  0.37852989859E+03  0.78294203136E+02 0.  0.
         11    1    3    3    0    0  0.23952170880E+01  0.99734794615E+01 -0.84777288132E+01  0.13307112508E+02  0.00000000000E+00 0. -1.
        -11    1    3    3    0    0  0.35680792817E+03  0.43947578684E+02  0.66780215946E+02  0.36565405032E+03  0.00000000000E+00 0.  1.
          4    1    6    6  502    0 -0.16386402085E+02 -0.26740640815E+03  0.76854000660E+02  0.27871354239E+03  0.00000000000E+00 0. -1.
          3    1    5    5  503    0 -0.34203525467E+03  0.23651191024E+03 -0.35333095264E+03  0.54568192312E+03  0.00000000000E+00 0. -1.
         -4    1    5    5    0  503 -0.40427352219E+02  0.62693617998E+02 -0.42268911430E+02  0.85741013632E+02  0.00000000000E+00 0.  1.
         -3    1    6    6    0  502  0.39645863724E+02 -0.85720178233E+02  0.32304202495E+02  0.99816356203E+02  0.00000000000E+00 0.  1.
<mgrwt>
<rscale>  0 0.13700491E+04</rscale>
<asrwt>0</asrwt>
<pdfrwt beam="1">  1        2 0.89290371E-01 0.13700491E+04</pdfrwt>
<pdfrwt beam="2">  1       -2 0.12438871E+00 0.13700491E+04</pdfrwt>
<totfact> 0.24436005E+01</totfact>
</mgrwt>
</event>
<event>
12    1  0.1114484E-007  0.2469488E+04  0.7818608E-02  0.8413937E-01
         -1   -1    0    0    0  501 -0.00000000000E+00  0.00000000000E+00  0.45400875046E+03  0.45400875046E+03  0.00000000000E+00 0.  1.
          1   -1    0    0  501    0  0.00000000000E+00 -0.00000000000E+00 -0.33580695931E+04  0.33580695931E+04  0.00000000000E+00 0. -1.
         23    2    1    2    0    0  0.82138234062E+03  0.66984151624E+03 -0.10324259704E+04  0.14823479816E+04  0.89975262500E+02 0.  0.
        254    2    1    2    0    0 -0.82138234062E+03 -0.66984151624E+03 -0.18716348722E+04  0.23297303619E+04  0.89513678173E+03 0.  0.
        -24    2    4    4    0    0 -0.59663035670E+03 -0.47940026302E+03 -0.48446645466E+03  0.90937082667E+03  0.80344010246E+02 0.  0.
         24    2    4    4    0    0 -0.22475198392E+03 -0.19044125323E+03 -0.13871684176E+04  0.14203595353E+04  0.80022906251E+02 0.  0.
         13    1    3    3    0    0  0.31081686516E+03  0.30043955373E+03 -0.38534056999E+03  0.57910137626E+03  0.00000000000E+00 0. -1.
        -13    1    3    3    0    0  0.51056547547E+03  0.36940196251E+03 -0.64708540041E+03  0.90324660534E+03  0.00000000000E+00 0.  1.
          2    1    6    6  502    0 -0.18723035537E+03 -0.18637263103E+03 -0.12727255565E+04  0.12998539556E+04  0.00000000000E+00 0. -1.
          1    1    5    5  503    0 -0.29659312035E+03 -0.20283741645E+03 -0.19264096690E+03  0.40770214456E+03  0.00000000000E+00 0. -1.
         -2    1    5    5    0  503 -0.30003723635E+03 -0.27656284657E+03 -0.29182548776E+03  0.50166868211E+03  0.00000000000E+00 0.  1.
         -1    1    6    6    0  502 -0.37521628555E+02 -0.40686221992E+01 -0.11444286103E+03  0.12050557969E+03  0.00000000000E+00 0.  1.
<mgrwt>
<rscale>  0 0.24694882E+04</rscale>
<asrwt>0</asrwt>
<pdfrwt beam="1">  1        1 0.51662610E+00 0.24694882E+04</pdfrwt>
<pdfrwt beam="2">  1       -1 0.69847498E-01 0.24694882E+04</pdfrwt>
<totfact> 0.59553307E-01</totfact>
</mgrwt>
</event>
<event>
12    1  0.1114484E-007  0.1679724E+04  0.7818608E-02  0.8773014E-01
          1   -1    0    0  501    0  0.00000000000E+00  0.00000000000E+00  0.37749291179E+03  0.37749291179E+03  0.00000000000E+00 0. -1.
         -1   -1    0    0    0  501 -0.00000000000E+00 -0.00000000000E+00 -0.18685599547E+04  0.18685599547E+04  0.00000000000E+00 0.  1.
         23    2    1    2    0    0  0.39593558561E+03 -0.36530304035E+03 -0.16543353800E+03  0.57111376816E+03  0.92689705195E+02 0.  0.
        254    2    1    2    0    0 -0.39593558561E+03  0.36530304035E+03 -0.13256335049E+04  0.16749390984E+04  0.87057767866E+03 0.  0.
        -24    2    4    4    0    0 -0.22620528110E+03  0.64349820085E+03 -0.91732811173E+03  0.11456369862E+04  0.75726322736E+02 0.  0.
         24    2    4    4    0    0 -0.16973030451E+03 -0.27819516050E+03 -0.40830539322E+03  0.52930211214E+03  0.85126424758E+02 0.  0.
         11    1    3    3    0    0  0.26126215643E+02 -0.11630342163E+02  0.98064937054E+01  0.30232620155E+02  0.00000000000E+00 0.  1.
        -11    1    3    3    0    0  0.36980936997E+03 -0.35367269819E+03 -0.17524003171E+03  0.54088114801E+03  0.00000000000E+00 0. -1.
          2    1    6    6  502    0 -0.49819926026E+02 -0.87881668972E+02 -0.69480657458E+02  0.12260821560E+03  0.00000000000E+00 0. -1.
          1    1    5    5  503    0 -0.29074520078E+02  0.29981543196E+02 -0.50922451813E+02  0.65858308123E+02  0.00000000000E+00 0. -1.
         -2    1    5    5    0  503 -0.19713076103E+03  0.61351665766E+03 -0.86640565992E+03  0.10797786781E+04  0.00000000000E+00 0.  1.
         -1    1    6    6    0  502 -0.11991037848E+03 -0.19031349153E+03 -0.33882473576E+03  0.40669389655E+03  0.00000000000E+00 0.  1.
<mgrwt>
<rscale>  0 0.16797240E+04</rscale>
<asrwt>0</asrwt>
<pdfrwt beam="1">  1        1 0.58075833E-01 0.16797240E+04</pdfrwt>
<pdfrwt beam="2">  1       -1 0.28747076E+00 0.16797240E+04</pdfrwt>
<totfact> 0.24624126E+00</totfact>
</mgrwt>
</event>
<event>
12    1  0.1114484E-007  0.1981133E+04  0.7818608E-02  0.8615493E-01
          1   -1    0    0  501    0  0.00000000000E+00  0.00000000000E+00  0.94130908693E+03  0.94130908693E+03  0.00000000000E+00 0. -1.
         -1   -1    0    0    0  501 -0.00000000000E+00 -0.00000000000E+00 -0.10424013031E+04  0.10424013031E+04  0.00000000000E+00 0.  1.
         23    2    1    2    0    0  0.34679996270E+03 -0.61079373358E+03  0.30319109269E+03  0.76973114148E+03  0.84982306156E+02 0.  0.
        254    2    1    2    0    0 -0.34679996270E+03  0.61079373358E+03 -0.40428330887E+03  0.12139792486E+04  0.90385918317E+03 0.  0.
        -24    2    4    4    0    0 -0.13918243913E+03  0.62934955220E+03  0.10500814944E+03  0.65789126915E+03  0.79634165727E+02 0.  0.
         24    2    4    4    0    0 -0.20761752357E+03 -0.18555818620E+02 -0.50929145832E+03  0.55608797941E+03  0.80041844313E+02 0.  0.
         11    1    3    3    0    0  0.25234977028E+03 -0.44792465147E+03  0.26190006889E+03  0.57698227532E+03  0.00000000000E+00 0. -1.
        -11    1    3    3    0    0  0.94450192416E+02 -0.16286908211E+03  0.41291023803E+02  0.19274886615E+03  0.00000000000E+00 0.  1.
          4    1    6    6  502    0 -0.15968673399E+03 -0.33290774104E+02 -0.30666864419E+03  0.34735253847E+03  0.00000000000E+00 0. -1.
          1    1    5    5  503    0 -0.67120775215E+02  0.46676365356E+03  0.72537985081E+02  0.47711137696E+03  0.00000000000E+00 0. -1.
         -2    1    5    5    0  503 -0.72061663918E+02  0.16258589865E+03  0.32470164363E+02  0.18077989219E+03  0.00000000000E+00 0.  1.
         -3    1    6    6    0  502 -0.47930789579E+02  0.14734955484E+02 -0.20262281413E+03  0.20873544095E+03  0.00000000000E+00 0.  1.
<mgrwt>
<rscale>  0 0.19811328E+04</rscale>
<asrwt>0</asrwt>
<pdfrwt beam="1">  1        1 0.14481678E+00 0.19811328E+04</pdfrwt>
<pdfrwt beam="2">  1       -1 0.16036943E+00 0.19811328E+04</pdfrwt>
<totfact> 0.45443077E+00</totfact>
</mgrwt>
</event>
<event>
12    1  0.1114484E-007  0.3540529E+04  0.7818608E-02  0.8104252E-01
          2   -1    0    0  501    0  0.00000000000E+00  0.00000000000E+00  0.33304793821E+04  0.33304793821E+04  0.00000000000E+00 0. -1.
         -2   -1    0    0    0  501 -0.00000000000E+00 -0.00000000000E+00 -0.94095629564E+03  0.94095629564E+03  0.00000000000E+00 0.  1.
         23    2    1    2    0    0  0.11709844798E+04  0.87084897250E+03  0.17942365815E+03  0.14731561603E+04  0.91725889428E+02 0.  0.
        254    2    1    2    0    0 -0.11709844798E+04 -0.87084897250E+03  0.22100994283E+04  0.27982795174E+04  0.90346344126E+03 0.  0.
        -24    2    4    4    0    0 -0.35169873483E+03  0.97358924404E+01  0.11073848759E+03  0.37749229432E+03  0.80315826313E+02 0.  0.
         24    2    4    4    0    0 -0.81928574497E+03 -0.88058486494E+03  0.20993609407E+04  0.24207872231E+04  0.78965712776E+02 0.  0.
         11    1    3    3    0    0  0.15934583039E+03  0.15761444564E+03  0.17256296460E+02  0.22479142979E+03  0.00000000000E+00 0. -1.
        -11    1    3    3    0    0  0.10116386494E+04  0.71323452686E+03  0.16216736169E+03  0.12483647305E+04  0.00000000000E+00 0.  1.
          4    1    6    6  502    0 -0.20730071100E+03 -0.20090345288E+03  0.56631026762E+03  0.63564384789E+03  0.00000000000E+00 0. -1.
          1    1    5    5  503    0 -0.16801726573E+03 -0.33968521523E+02  0.41323885546E+02  0.17632732504E+03  0.00000000000E+00 0. -1.
         -2    1    5    5    0  503 -0.18368146909E+03  0.43704413964E+02  0.69414602049E+02  0.20116496928E+03  0.00000000000E+00 0.  1.
         -3    1    6    6    0  502 -0.61198503397E+03 -0.67968141206E+03  0.15330506731E+04  0.17851433752E+04  0.00000000000E+00 0.  1.
<mgrwt>
<rscale>  0 0.35405285E+04</rscale>
<asrwt>0</asrwt>
<pdfrwt beam="1">  1        2 0.51238144E+00 0.35405285E+04</pdfrwt>
<pdfrwt beam="2">  1       -2 0.14476251E+00 0.35405285E+04</pdfrwt>
<totfact> 0.28605066E-01</totfact>
</mgrwt>
</event>
<event>
12    1  0.1114484E-007  0.3194605E+04  0.7818608E-02  0.8190243E-01
          2   -1    0    0  501    0  0.00000000000E+00  0.00000000000E+00  0.34606986297E+04  0.34606986297E+04  0.00000000000E+00 0.  1.
         -2   -1    0    0    0  501 -0.00000000000E+00 -0.00000000000E+00 -0.73724289848E+03  0.73724289848E+03  0.00000000000E+00 0. -1.
         23    2    1    2    0    0 -0.11683271512E+04 -0.82414157589E+03  0.80526965085E+03  0.16432707725E+04  0.87646745387E+02 0.  0.
        254    2    1    2    0    0  0.11683271512E+04  0.82414157589E+03  0.19181860804E+04  0.25546707557E+04  0.89593926227E+03 0.  0.
        -24    2    4    4    0    0  0.45114514834E+03 -0.13876507496E+03  0.45777611619E+03  0.66233656198E+03  0.79643316665E+02 0.  0.
         24    2    4    4    0    0  0.71718200282E+03  0.96290665085E+03  0.14604099642E+04  0.18923341937E+04  0.81192325184E+02 0.  0.
         11    1    3    3    0    0 -0.27440433286E+03 -0.14950202310E+03  0.17178667642E+03  0.35659396377E+03  0.00000000000E+00 0.  1.
        -11    1    3    3    0    0 -0.89392281830E+03 -0.67463955279E+03  0.63348297444E+03  0.12866768088E+04  0.00000000000E+00 0. -1.
          4    1    6    6  502    0  0.11315323853E+03  0.10733102315E+03  0.19806324316E+03  0.25209651369E+03  0.00000000000E+00 0. -1.
          3    1    5    5  503    0  0.13586045615E+03 -0.42075080197E+02  0.19115042258E+03  0.23825796937E+03  0.00000000000E+00 0. -1.
         -4    1    5    5    0  503  0.31528469219E+03 -0.96689994763E+02  0.26662569361E+03  0.42407859261E+03  0.00000000000E+00 0.  1.
         -3    1    6    6    0  502  0.60402876429E+03  0.85557562771E+03  0.12623467210E+04  0.16402376800E+04  0.00000000000E+00 0.  1.
<mgrwt>
<rscale>  0 0.31946051E+04</rscale>
<asrwt>0</asrwt>
<pdfrwt beam="1">  1        2 0.53241516E+00 0.31946051E+04</pdfrwt>
<pdfrwt beam="2">  1       -2 0.11342199E+00 0.31946051E+04</pdfrwt>
<totfact> 0.44434576E-01</totfact>
</mgrwt>
</event>
<event>
12    1  0.1114484E-007  0.3775266E+04  0.7818608E-02  0.8051484E-01
          2   -1    0    0  501    0  0.00000000000E+00  0.00000000000E+00  0.36158258749E+04  0.36158258749E+04  0.00000000000E+00 0.  1.
         -2   -1    0    0    0  501 -0.00000000000E+00 -0.00000000000E+00 -0.98543435328E+03  0.98543435328E+03  0.00000000000E+00 0. -1.
         23    2    1    2    0    0 -0.12116482783E+04  0.79528099826E+03  0.25361163924E+04  0.29224090155E+04  0.89580584788E+02 0.  0.
        254    2    1    2    0    0  0.12116482783E+04 -0.79528099826E+03  0.94275129190E+02  0.16788512127E+04  0.84207492429E+03 0.  0.
        -24    2    4    4    0    0  0.99653586884E+03 -0.25241267250E+03  0.26640018037E+03  0.10649443447E+04  0.79633573180E+02 0.  0.
         24    2    4    4    0    0  0.21511240943E+03 -0.54286832576E+03 -0.17212505118E+03  0.61390686809E+03  0.79216422806E+02 0.  0.
         13    1    3    3    0    0 -0.40104240947E+03  0.30956829580E+03  0.92149728731E+03  0.10515820436E+04  0.00000000000E+00 0. -1.
        -13    1    3    3    0    0 -0.81060586879E+03  0.48571270246E+03  0.16146191051E+04  0.18708269718E+04  0.00000000000E+00 0.  1.
          4    1    6    6  502    0  0.45506373592E+01 -0.68934294342E+02 -0.59956835331E+01  0.69344022509E+02  0.00000000000E+00 0. -1.
          1    1    5    5  503    0  0.16689872553E+03 -0.70380149831E+02  0.33302590632E+02  0.18416734948E+03  0.00000000000E+00 0. -1.
         -2    1    5    5    0  503  0.82963714332E+03 -0.18203252267E+03  0.23309758974E+03  0.88077699517E+03  0.00000000000E+00 0.  1.
         -3    1    6    6    0  502  0.21056177207E+03 -0.47393403142E+03 -0.16612936765E+03  0.54456284558E+03  0.00000000000E+00 0.  1.
<mgrwt>
<rscale>  0 0.37752664E+04</rscale>
<asrwt>0</asrwt>
<pdfrwt beam="1">  1        2 0.55628090E+00 0.37752664E+04</pdfrwt>
<pdfrwt beam="2">  1       -2 0.15160529E+00 0.37752664E+04</pdfrwt>
<totfact> 0.15704308E-01</totfact>
</mgrwt>
</event>
<event>
12    1  0.1114484E-007  0.2177452E+04  0.7818608E-02  0.8527872E-01
         -1   -1    0    0    0  501 -0.00000000000E+00  0.00000000000E+00  0.86291277318E+03  0.86291277318E+03  0.00000000000E+00 0.  1.
          1   -1    0    0  501    0  0.00000000000E+00 -0.00000000000E+00 -0.13736316931E+04  0.13736316931E+04  0.00000000000E+00 0. -1.
         23    2    1    2    0    0  0.10407817300E+03 -0.62473435454E+03 -0.86805201800E+03  0.10784195478E+04  0.91373602479E+02 0.  0.
        254    2    1    2    0    0 -0.10407817300E+03  0.62473435454E+03  0.35733309805E+03  0.11581249185E+04  0.90135514871E+03 0.  0.
        -24    2    4    4    0    0 -0.27199134934E+03 -0.12648786644E+03  0.19702424240E+03  0.36767223138E+03  0.79911470776E+02 0.  0.
         24    2    4    4    0    0  0.16791317634E+03  0.75122222098E+03  0.16030885566E+03  0.79045268715E+03  0.81159480858E+02 0.  0.
         13    1    3    3    0    0 -0.68443067606E+01 -0.13956944597E+03 -0.15286066448E+03  0.20710590896E+03  0.00000000000E+00 0.  1.
        -13    1    3    3    0    0  0.11092247976E+03 -0.48516490857E+03 -0.71519135352E+03  0.87131363881E+03  0.00000000000E+00 0. -1.
          4    1    6    6  502    0  0.39743968735E+02  0.21747560641E+03  0.82864126066E+02  0.23609677216E+03  0.00000000000E+00 0. -1.
          3    1    5    5  503    0 -0.21895083045E+03 -0.13212391997E+03  0.14942312512E+03  0.29618147596E+03  0.00000000000E+00 0. -1.
         -4    1    5    5    0  503 -0.53040518895E+02  0.56360535314E+01  0.47601117280E+02  0.71490755419E+02  0.00000000000E+00 0.  1.
         -3    1    6    6    0  502  0.12816920761E+03  0.53374661457E+03  0.77444729589E+02  0.55435591499E+03  0.00000000000E+00 0.  1.
<mgrwt>
<rscale>  0 0.21774520E+04</rscale>
<asrwt>0</asrwt>
<pdfrwt beam="1">  1        1 0.21132795E+00 0.21774520E+04</pdfrwt>
<pdfrwt beam="2">  1       -1 0.13275581E+00 0.21774520E+04</pdfrwt>
<totfact> 0.35223580E+00</totfact>
</mgrwt>
</event>
<event>
12    1  0.1114484E-007  0.1642972E+04  0.7818608E-02  0.8794575E-01
         -1   -1    0    0    0  501 -0.00000000000E+00  0.00000000000E+00  0.34559253366E+03  0.34559253366E+03  0.00000000000E+00 0.  1.
          1   -1    0    0  501    0  0.00000000000E+00 -0.00000000000E+00 -0.19527031741E+04  0.19527031741E+04  0.00000000000E+00 0. -1.
         23    2    1    2    0    0 -0.38358434913E+03  0.20027185051E+03 -0.78819142870E+03  0.90629151828E+03  0.11345845417E+03 0.  0.
        254    2    1    2    0    0  0.38358434913E+03 -0.20027185051E+03 -0.81891921172E+03  0.13920041895E+04  0.10391348426E+04 0.  0.
        -24    2    4    4    0    0  0.35202499958E+03 -0.60908147398E+03 -0.51746499690E+03  0.87692768796E+03  0.79563211484E+02 0.  0.
         24    2    4    4    0    0  0.31559349552E+02  0.40880962347E+03 -0.30145421482E+03  0.51507650150E+03  0.79422024541E+02 0.  0.
         13    1    3    3    0    0 -0.35951882784E+03  0.20660614229E+03 -0.69012016839E+03  0.80511224834E+03  0.00000000000E+00 0. -1.
        -13    1    3    3    0    0 -0.24065521292E+02 -0.63342917788E+01 -0.98071260308E+02  0.10117926994E+03  0.00000000000E+00 0.  1.
          2    1    6    6  502    0 -0.21893391084E+02  0.16302351823E+03 -0.14165956232E+03  0.21707929350E+03  0.00000000000E+00 0. -1.
          3    1    5    5  503    0  0.11028321230E+03 -0.13184047245E+03 -0.10510298200E+03  0.20147191843E+03  0.00000000000E+00 0. -1.
         -4    1    5    5    0  503  0.24174178727E+03 -0.47724100153E+03 -0.41236201490E+03  0.67545576953E+03  0.00000000000E+00 0.  1.
         -1    1    6    6    0  502  0.53452740636E+02  0.24578610524E+03 -0.15979465250E+03  0.29799720801E+03  0.00000000000E+00 0.  1.
<mgrwt>
<rscale>  0 0.16429725E+04</rscale>
<asrwt>0</asrwt>
<pdfrwt beam="1">  1        1 0.30041587E+00 0.16429725E+04</pdfrwt>
<pdfrwt beam="2">  1       -1 0.53168082E-01 0.16429725E+04</pdfrwt>
<totfact> 0.10948193E+01</totfact>
</mgrwt>
</event>
<event>
12    1  0.1114484E-007  0.1428254E+04  0.7818608E-02  0.8933617E-01
         -2   -1    0    0    0  501 -0.00000000000E+00  0.00000000000E+00  0.22301004183E+03  0.22301004183E+03  0.00000000000E+00 0.  1.
          2   -1    0    0  501    0  0.00000000000E+00 -0.00000000000E+00 -0.22867909341E+04  0.22867909341E+04  0.00000000000E+00 0. -1.
         23    2    1    2    0    0 -0.35861988902E+03  0.53277735208E+02 -0.10335507090E+04  0.10997361534E+04  0.98720803287E+02 0.  0.
        254    2    1    2    0    0  0.35861988902E+03 -0.53277735208E+02 -0.10302301832E+04  0.14100648225E+04  0.89188666965E+03 0.  0.
        -24    2    4    4    0    0 -0.16542978549E+03  0.24322441023E+03 -0.57613347892E+03  0.65167650946E+03  0.78913622323E+02 0.  0.
         24    2    4    4    0    0  0.52404967451E+03 -0.29650214544E+03 -0.45409670428E+03  0.75838831307E+03  0.80046442547E+02 0.  0.
         11    1    3    3    0    0 -0.16312690290E+03  0.27125352383E+02 -0.61818262815E+03  0.63991869244E+03  0.00000000000E+00 0. -1.
        -11    1    3    3    0    0 -0.19549298613E+03  0.26152382825E+02 -0.41536808088E+03  0.45981746092E+03  0.00000000000E+00 0.  1.
          4    1    6    6  502    0  0.13984076405E+03 -0.10472092865E+03 -0.16814865471E+03  0.24247862229E+03  0.00000000000E+00 0. -1.
          3    1    5    5  503    0 -0.74946721123E+02  0.14702247604E+03 -0.24721004130E+03  0.29722958128E+03  0.00000000000E+00 0. -1.
         -4    1    5    5    0  503 -0.90483064364E+02  0.96201934185E+02 -0.32892343761E+03  0.35444692817E+03  0.00000000000E+00 0.  1.
         -3    1    6    6    0  502  0.38420891046E+03 -0.19178121679E+03 -0.28594804956E+03  0.51590969078E+03  0.00000000000E+00 0.  1.
<mgrwt>
<rscale>  0 0.14282540E+04</rscale>
<asrwt>0</asrwt>
<pdfrwt beam="1">  1        2 0.35181399E+00 0.14282540E+04</pdfrwt>
<pdfrwt beam="2">  1       -2 0.34309237E-01 0.14282540E+04</pdfrwt>
<totfact> 0.35723701E+01</totfact>
</mgrwt>
</event>
<event>
12    1  0.1114484E-007  0.1389830E+04  0.7818608E-02  0.8961213E-01
         -1   -1    0    0    0  501 -0.00000000000E+00  0.00000000000E+00  0.49169935820E+03  0.49169935820E+03  0.00000000000E+00 0.  1.
          1   -1    0    0  501    0  0.00000000000E+00 -0.00000000000E+00 -0.98211878847E+03  0.98211878847E+03  0.00000000000E+00 0. -1.
         23    2    1    2    0    0  0.16138118623E+03 -0.27654628104E+03 -0.39921208183E+03  0.51962437061E+03  0.90096989010E+02 0.  0.
        254    2    1    2    0    0 -0.16138118623E+03  0.27654628104E+03 -0.91207348444E+02  0.95419377606E+03  0.89422885719E+03 0.  0.
        -24    2    4    4    0    0  0.34202671955E+03  0.83480347728E+02  0.10361294122E+03  0.37535041273E+03  0.78746716764E+02 0.  0.
         24    2    4    4    0    0 -0.50340790578E+03  0.19306593331E+03 -0.19482028966E+03  0.57884336333E+03  0.80066970692E+02 0.  0.
         13    1    3    3    0    0  0.13559522128E+03 -0.24627711115E+03 -0.29230666939E+03  0.40556339638E+03  0.00000000000E+00 0. -1.
        -13    1    3    3    0    0  0.25785964952E+02 -0.30269169885E+02 -0.10690541244E+03  0.11406097424E+03  0.00000000000E+00 0.  1.
          2    1    6    6  502    0 -0.36458503923E+02 -0.54894756342E+01 -0.55666012711E+01  0.37287315547E+02  0.00000000000E+00 0. -1.
          1    1    5    5  503    0  0.72270421867E+02 -0.12715634766E+02  0.10083982127E+02  0.74070155527E+02  0.00000000000E+00 0. -1.
         -2    1    5    5    0  503  0.26975629769E+03  0.96195982494E+02  0.93528959092E+02  0.30128025720E+03  0.00000000000E+00 0.  1.
         -1    1    6    6    0  502 -0.46694940186E+03  0.19855540894E+03 -0.18925368839E+03  0.54155604778E+03  0.00000000000E+00 0.  1.
<mgrwt>
<rscale>  0 0.13898305E+04</rscale>
<asrwt>0</asrwt>
<pdfrwt beam="1">  1        1 0.15109520E+00 0.13898305E+04</pdfrwt>
<pdfrwt beam="2">  1       -1 0.75646055E-01 0.13898305E+04</pdfrwt>
<totfact> 0.26787058E+01</totfact>
</mgrwt>
</event>
<event>
12    1  0.1114484E-007  0.1115918E+04  0.7818608E-02  0.9189814E-01
          2   -1    0    0  501    0  0.00000000000E+00  0.00000000000E+00  0.20776214889E+03  0.20776214889E+03  0.00000000000E+00 0. -1.
         -2   -1    0    0    0  501 -0.00000000000E+00 -0.00000000000E+00 -0.14984361357E+04  0.14984361357E+04  0.00000000000E+00 0.  1.
         23    2    1    2    0    0 -0.99334433147E+02  0.10981738889E+03 -0.76700198960E+02  0.19067991978E+03  0.92459303341E+02 0.  0.
        254    2    1    2    0    0  0.99334433147E+02 -0.10981738889E+03 -0.12139737878E+04  0.15155183648E+04  0.89506221458E+03 0.  0.
        -24    2    4    4    0    0 -0.23632724230E+03  0.27924691340E+03 -0.38580933215E+03  0.53763670013E+03  0.79843449698E+02 0.  0.
         24    2    4    4    0    0  0.33566167545E+03 -0.38906430229E+03 -0.82816445568E+03  0.97788166465E+03  0.79726988734E+02 0.  0.
         11    1    3    3    0    0 -0.10094707762E+03  0.12215281436E+03 -0.59103202801E+02  0.16912956902E+03  0.00000000000E+00 0. -1.
        -11    1    3    3    0    0  0.16126444689E+01 -0.12335425474E+02 -0.17596996159E+02  0.21550350755E+02  0.00000000000E+00 0.  1.
          2    1    6    6  502    0  0.21033157542E+03 -0.22207672043E+03 -0.55923877485E+03  0.63742093523E+03  0.00000000000E+00 0. -1.
          1    1    5    5  503    0 -0.19737412443E+03  0.21898999162E+03 -0.26134884174E+03  0.39397509884E+03  0.00000000000E+00 0. -1.
         -2    1    5    5    0  503 -0.38953117875E+02  0.60256921776E+02 -0.12446049041E+03  0.14366160130E+03  0.00000000000E+00 0.  1.
         -1    1    6    6    0  502  0.12533010003E+03 -0.16698758186E+03 -0.26892568083E+03  0.34046072942E+03  0.00000000000E+00 0.  1.
<mgrwt>
<rscale>  0 0.11159181E+04</rscale>
<asrwt>0</asrwt>
<pdfrwt beam="1">  1        2 0.31963408E-01 0.11159181E+04</pdfrwt>
<pdfrwt beam="2">  1       -2 0.23052863E+00 0.11159181E+04</pdfrwt>
<totfact> 0.13979134E+01</totfact>
</mgrwt>
</event>
<event>
12    1  0.1114484E-007  0.1150964E+04  0.7818608E-02  0.9156894E-01
          2   -1    0    0  501    0  0.00000000000E+00  0.00000000000E+00  0.17373967906E+04  0.17373967906E+04  0.00000000000E+00 0. -1.
         -2   -1    0    0    0  501 -0.00000000000E+00 -0.00000000000E+00 -0.19061836942E+03  0.19061836942E+03  0.00000000000E+00 0.  1.
         23    2    1    2    0    0  0.10514352063E+03 -0.10649036974E+03  0.55397395559E+03  0.58121308423E+03  0.92337137854E+02 0.  0.
        254    2    1    2    0    0 -0.10514352063E+03  0.10649036974E+03  0.99280446559E+03  0.13468020758E+04  0.89767464355E+03 0.  0.
        -24    2    4    4    0    0 -0.24367534194E+03 -0.34365587293E+03  0.52995920039E+03  0.68174218750E+03  0.80241042325E+02 0.  0.
         24    2    4    4    0    0  0.13853182131E+03  0.45014624267E+03  0.46284526520E+03  0.66505988829E+03  0.79096208404E+02 0.  0.
         13    1    3    3    0    0 -0.15946098158E+00  0.98000494875E+01  0.10811683759E+03  0.10856019974E+03  0.00000000000E+00 0.  1.
        -13    1    3    3    0    0  0.10530298161E+03 -0.11629041923E+03  0.44585711801E+03  0.47265288449E+03  0.00000000000E+00 0. -1.
          2    1    6    6  502    0  0.11901414255E+03  0.30039963358E+03  0.27702093820E+03  0.42561121482E+03  0.00000000000E+00 0. -1.
          3    1    5    5  503    0 -0.20093837078E+03 -0.31878340126E+03  0.49015272146E+03  0.61826270802E+03  0.00000000000E+00 0. -1.
         -4    1    5    5    0  503 -0.42736971159E+02 -0.24872471668E+02  0.39806478933E+02  0.63479479485E+02  0.00000000000E+00 0.  1.
         -1    1    6    6    0  502  0.19517678756E+02  0.14974660909E+03  0.18582432700E+03  0.23944867346E+03  0.00000000000E+00 0.  1.
<mgrwt>
<rscale>  0 0.11509644E+04</rscale>
<asrwt>0</asrwt>
<pdfrwt beam="1">  1        2 0.26729180E+00 0.11509644E+04</pdfrwt>
<pdfrwt beam="2">  1       -2 0.29325904E-01 0.11509644E+04</pdfrwt>
<totfact> 0.98996648E+01</totfact>
</mgrwt>
</event>
<event>
12    1  0.1114484E-007  0.2271187E+04  0.7818608E-02  0.8489369E-01
         -2   -1    0    0    0  501 -0.00000000000E+00  0.00000000000E+00  0.70187975070E+03  0.70187975070E+03  0.00000000000E+00 0.  1.
          2   -1    0    0  501    0  0.00000000000E+00 -0.00000000000E+00 -0.18373128777E+04  0.18373128777E+04  0.00000000000E+00 0. -1.
         23    2    1    2    0    0  0.82064116440E+03 -0.49178980495E+03 -0.47547560063E+03  0.10717586305E+04  0.85325156460E+02 0.  0.
        254    2    1    2    0    0 -0.82064116440E+03  0.49178980495E+03 -0.65995752637E+03  0.14674339979E+04  0.89582892819E+03 0.  0.
        -24    2    4    4    0    0  0.34091782656E+02  0.32017751258E+03  0.55975006517E+02  0.33651101639E+03  0.80190857259E+02 0.  0.
         24    2    4    4    0    0 -0.85473294705E+03  0.17161229237E+03 -0.71593253288E+03  0.11309229815E+04  0.80051288340E+02 0.  0.
         11    1    3    3    0    0  0.69946720649E+03 -0.38189530694E+03 -0.39451450626E+03  0.88923567971E+03  0.00000000000E+00 0. -1.
        -11    1    3    3    0    0  0.12117395790E+03 -0.10989449801E+03 -0.80961094373E+02  0.18252295080E+03  0.00000000000E+00 0.  1.
          4    1    6    6  502    0 -0.78379065447E+03  0.17644471789E+03 -0.67147505133E+03  0.10470622107E+04  0.00000000000E+00 0. -1.
          1    1    5    5  503    0  0.16641732881E+02  0.28656645101E+03  0.71112723889E+02  0.29572672794E+03  0.00000000000E+00 0. -1.
         -2    1    5    5    0  503  0.17450049774E+02  0.33611061571E+02 -0.15137717372E+02  0.40784288450E+02  0.00000000000E+00 0.  1.
         -3    1    6    6    0  502 -0.70942292584E+02 -0.48324255212E+01 -0.44457481554E+02  0.83860770802E+02  0.00000000000E+00 0.  1.
<mgrwt>
<rscale>  0 0.22711871E+04</rscale>
<asrwt>0</asrwt>
<pdfrwt beam="1">  1        2 0.28266352E+00 0.22711871E+04</pdfrwt>
<pdfrwt beam="2">  1       -2 0.10798150E+00 0.22711871E+04</pdfrwt>
<totfact> 0.51372181E+00</totfact>
</mgrwt>
</event>
<event>
12    1  0.1114484E-007  0.3029121E+04  0.7818608E-02  0.8235464E-01
          2   -1    0    0  501    0  0.00000000000E+00  0.00000000000E+00  0.14194969292E+04  0.14194969292E+04  0.00000000000E+00 0. -1.
         -2   -1    0    0    0  501 -0.00000000000E+00 -0.00000000000E+00 -0.16159905962E+04  0.16159905962E+04  0.00000000000E+00 0.  1.
         23    2    1    2    0    0 -0.17880456089E+03 -0.24534078333E+03 -0.14379938881E+04  0.14724192804E+04  0.89604375324E+02 0.  0.
        254    2    1    2    0    0  0.17880456089E+03  0.24534078333E+03  0.12415002211E+04  0.15630682450E+04  0.89983130014E+03 0.  0.
        -24    2    4    4    0    0  0.22666732884E+03 -0.30385839596E+03  0.42809287588E+03  0.57729878510E+03  0.79387493577E+02 0.  0.
         24    2    4    4    0    0 -0.47862767952E+02  0.54919917929E+03  0.81340734521E+03  0.98576945993E+03  0.78735861015E+02 0.  0.
         13    1    3    3    0    0 -0.50496587802E+02 -0.23037821809E+02 -0.17437626071E+03  0.18299652158E+03  0.00000000000E+00 0. -1.
        -13    1    3    3    0    0 -0.12830797309E+03 -0.22230296152E+03 -0.12636176274E+04  0.12894227588E+04  0.00000000000E+00 0.  1.
          2    1    6    6  502    0  0.98049895693E+01  0.29558223434E+02  0.73072025724E+02  0.79431400192E+02  0.00000000000E+00 0. -1.
          1    1    5    5  503    0  0.74982354313E+02 -0.73392573476E+02  0.73939240983E+02  0.12835822785E+03  0.00000000000E+00 0. -1.
         -2    1    5    5    0  503  0.15168497453E+03 -0.23046582249E+03  0.35415363489E+03  0.44894055725E+03  0.00000000000E+00 0.  1.
         -1    1    6    6    0  502 -0.57667757521E+02  0.51964095585E+03  0.74033531948E+03  0.90633805974E+03  0.00000000000E+00 0.  1.
<mgrwt>
<rscale>  0 0.30291211E+04</rscale>
<asrwt>0</asrwt>
<pdfrwt beam="1">  1        2 0.21838414E+00 0.30291211E+04</pdfrwt>
<pdfrwt beam="2">  1       -2 0.24861394E+00 0.30291211E+04</pdfrwt>
<totfact> 0.78935702E-01</totfact>
</mgrwt>
</event>
<event>
12    1  0.1114484E-007  0.3396434E+04  0.7818608E-02  0.8138782E-01
          2   -1    0    0  501    0  0.00000000000E+00  0.00000000000E+00  0.22441911344E+04  0.22441911344E+04  0.00000000000E+00 0. -1.
         -2   -1    0    0    0  501 -0.00000000000E+00 -0.00000000000E+00 -0.12850693494E+04  0.12850693494E+04  0.00000000000E+00 0.  1.
         23    2    1    2    0    0 -0.10661331062E+04 -0.11318911210E+04  0.79223192654E+03  0.17475260849E+04  0.91644324202E+02 0.  0.
        254    2    1    2    0    0  0.10661331062E+04  0.11318911210E+04  0.16688985845E+03  0.17817343990E+04  0.85376105191E+03 0.  0.
        -24    2    4    4    0    0  0.74198779977E+02 -0.35781845937E+02 -0.17569857610E+03  0.20958874031E+03  0.79193755871E+02 0.  0.
         24    2    4    4    0    0  0.99193432621E+03  0.11676729669E+04  0.34258843455E+03  0.15721456587E+04  0.82953429040E+02 0.  0.
         11    1    3    3    0    0 -0.81828281085E+03 -0.92083291492E+03  0.61472740061E+03  0.13767388252E+04  0.00000000000E+00 0. -1.
        -11    1    3    3    0    0 -0.24785029534E+03 -0.21105820605E+03  0.17750452593E+03  0.37078725971E+03  0.00000000000E+00 0.  1.
          4    1    6    6  502    0  0.23639838736E+03  0.22889725130E+03  0.61570681130E+02  0.33476722954E+03  0.00000000000E+00 0. -1.
          1    1    5    5  503    0  0.99192814328E+01  0.23269729633E+02 -0.25823874631E+02  0.36148927540E+02  0.00000000000E+00 0. -1.
         -2    1    5    5    0  503  0.64279498545E+02 -0.59051575570E+02 -0.14987470147E+03  0.17343981277E+03  0.00000000000E+00 0.  1.
         -3    1    6    6    0  502  0.75553593885E+03  0.93877571562E+03  0.28101775342E+03  0.12373784291E+04  0.00000000000E+00 0.  1.
<mgrwt>
<rscale>  0 0.33964342E+04</rscale>
<asrwt>0</asrwt>
<pdfrwt beam="1">  1        2 0.34526017E+00 0.33964342E+04</pdfrwt>
<pdfrwt beam="2">  1       -2 0.19770298E+00 0.33964342E+04</pdfrwt>
<totfact> 0.55644943E-01</totfact>
</mgrwt>
</event>
<event>
12    1  0.1114484E-007  0.2250194E+04  0.7818608E-02  0.8497822E-01
          2   -1    0    0  501    0  0.00000000000E+00  0.00000000000E+00  0.29705128081E+04  0.29705128081E+04  0.00000000000E+00 0. -1.
         -2   -1    0    0    0  501 -0.00000000000E+00 -0.00000000000E+00 -0.42613625938E+03  0.42613625938E+03  0.00000000000E+00 0.  1.
         23    2    1    2    0    0  0.87720909362E+03 -0.13648060379E+03  0.15386492551E+04  0.17788117038E+04  0.92772831377E+02 0.  0.
        254    2    1    2    0    0 -0.87720909362E+03  0.13648060379E+03  0.10057272936E+04  0.16178373637E+04  0.90431609352E+03 0.  0.
        -24    2    4    4    0    0 -0.70265900962E+03  0.18376110090E+03  0.11565573204E+04  0.13680483616E+04  0.80210088687E+02 0.  0.
         24    2    4    4    0    0 -0.17455008400E+03 -0.47280497118E+02 -0.15083002676E+03  0.24978900207E+03  0.83316693110E+02 0.  0.
         13    1    3    3    0    0  0.79333332971E+03 -0.10257285696E+03  0.14170929767E+04  0.16272834626E+04  0.00000000000E+00 0. -1.
        -13    1    3    3    0    0  0.83875763915E+02 -0.33907746830E+02  0.12155627837E+03  0.15152824119E+03  0.00000000000E+00 0.  1.
          4    1    6    6  502    0 -0.17405763501E+03 -0.60630181765E+02 -0.13202315457E+03  0.22672051647E+03  0.00000000000E+00 0. -1.
          3    1    5    5  503    0 -0.94184171286E+02  0.25929458198E+02  0.21217630492E+03  0.23358462983E+03  0.00000000000E+00 0. -1.
         -4    1    5    5    0  503 -0.60847483834E+03  0.15783164271E+03  0.94438101546E+03  0.11344637318E+04  0.00000000000E+00 0.  1.
         -3    1    6    6    0  502 -0.49244898549E+00  0.13349684647E+02 -0.18806872187E+02  0.23068485595E+02  0.00000000000E+00 0.  1.
<mgrwt>
<rscale>  0 0.22501940E+04</rscale>
<asrwt>0</asrwt>
<pdfrwt beam="1">  1        2 0.45700196E+00 0.22501940E+04</pdfrwt>
<pdfrwt beam="2">  1       -2 0.65559426E-01 0.22501940E+04</pdfrwt>
<totfact> 0.35475812E+00</totfact>
</mgrwt>
</event>
<event>
12    1  0.1114484E-007  0.1485185E+04  0.7818608E-02  0.8894365E-01
         -2   -1    0    0    0  501 -0.00000000000E+00  0.00000000000E+00  0.41435048888E+03  0.41435048888E+03  0.00000000000E+00 0. -1.
          2   -1    0    0  501    0  0.00000000000E+00 -0.00000000000E+00 -0.13308628249E+04  0.13308628249E+04  0.00000000000E+00 0.  1.
         23    2    1    2    0    0 -0.55793705744E+02  0.45587341721E+03 -0.27663326651E+03  0.54390742433E+03  0.91519462287E+02 0.  0.
        254    2    1    2    0    0  0.55793705744E+02 -0.45587341721E+03 -0.63987906950E+03  0.12013058894E+04  0.90705959359E+03 0.  0.
        -24    2    4    4    0    0  0.30051148057E+03 -0.75998836299E+02 -0.66863613838E+03  0.74143409628E+03  0.81038635883E+02 0.  0.
         24    2    4    4    0    0 -0.24471777483E+03 -0.37987458091E+03  0.28757068886E+02  0.45987179316E+03  0.80396583255E+02 0.  0.
         13    1    3    3    0    0  0.11214548602E+02  0.78855314506E+02 -0.17522327795E+02  0.81553410092E+02  0.00000000000E+00 0.  1.
        -13    1    3    3    0    0 -0.67008254346E+02  0.37701810270E+03 -0.25911093871E+03  0.46235401423E+03  0.00000000000E+00 0. -1.
          2    1    6    6  502    0 -0.21902462663E+03 -0.37044339201E+03  0.18839721242E+02  0.43076098808E+03  0.00000000000E+00 0. -1.
          3    1    5    5  503    0  0.24292695094E+03 -0.93335121525E+02 -0.54572148891E+03  0.60459647027E+03  0.00000000000E+00 0. -1.
         -4    1    5    5    0  503  0.57584529628E+02  0.17336285226E+02 -0.12291464947E+03  0.13683762601E+03  0.00000000000E+00 0.  1.
         -1    1    6    6    0  502 -0.25693148194E+02 -0.94311888961E+01  0.99173476439E+01  0.29110805080E+02  0.00000000000E+00 0.  1.
<mgrwt>
<rscale>  0 0.14851851E+04</rscale>
<asrwt>0</asrwt>
<pdfrwt beam="1">  1        2 0.20474813E+00 0.14851851E+04</pdfrwt>
<pdfrwt beam="2">  1       -2 0.63746229E-01 0.14851851E+04</pdfrwt>
<totfact> 0.34924159E+01</totfact>
</mgrwt>
</event>
<event>
12    1  0.1943590E-007  0.2190141E+04  0.7818608E-02  0.8522543E-01
          1   -1    0    0  501    0  0.00000000000E+00  0.00000000000E+00  0.10930262940E+04  0.10930262940E+04  0.00000000000E+00 0. -1.
         -1   -1    0    0    0  501 -0.00000000000E+00 -0.00000000000E+00 -0.10971181191E+04  0.10971181191E+04  0.00000000000E+00 0.  1.
         23    2    1    2    0    0  0.51011242359E+03  0.65839626825E+03  0.37418907404E+03  0.91800784957E+03  0.94976933998E+02 0.  0.
        254    2    1    2    0    0 -0.51011242359E+03 -0.65839626825E+03 -0.37828089911E+03  0.12721365635E+04  0.88404449366E+03 0.  0.
        -24    2    4    4    0    0 -0.30363252796E+03 -0.78060355686E+03 -0.51358691980E+03  0.98563666808E+03  0.78571574166E+02 0.  0.
         24    2    4    4    0    0 -0.20647989563E+03  0.12220728860E+03  0.13530602069E+03  0.28649989540E+03  0.78777548471E+02 0.  0.
         11    1    3    3    0    0  0.10518836316E+03  0.13460873912E+03  0.12029923563E+03  0.20894020792E+03  0.00000000000E+00 0.  1.
        -11    1    3    3    0    0  0.40492406043E+03  0.52378752914E+03  0.25388983841E+03  0.70906764166E+03  0.00000000000E+00 0. -1.
          2    1    6    6  502    0 -0.62097578347E+01 -0.26627763151E+01 -0.79355890588E+01  0.10422333893E+02  0.00000000000E+00 0. -1.
          1    1    5    5  503    0  0.31899789683E+01 -0.18889086643E+02 -0.19152592197E+02  0.27088657181E+02  0.00000000000E+00 0. -1.
         -2    1    5    5    0  503 -0.30682250693E+03 -0.76171447021E+03 -0.49443432760E+03  0.95854801090E+03  0.00000000000E+00 0.  1.
         -1    1    6    6    0  502 -0.20027013780E+03  0.12487006492E+03  0.14324160975E+03  0.27607756151E+03  0.00000000000E+00 0.  1.
<mgrwt>
<rscale>  0 0.21901406E+04</rscale>
<asrwt>0</asrwt>
<pdfrwt beam="1">  1        1 0.16815789E+00 0.21901406E+04</pdfrwt>
<pdfrwt beam="2">  1       -1 0.16878740E+00 0.21901406E+04</pdfrwt>
<totfact> 0.29416226E+00</totfact>
</mgrwt>
</event>
<event>
12    1  0.1114484E-007  0.2405315E+04  0.7818608E-02  0.8437516E-01
          2   -1    0    0  501    0  0.00000000000E+00  0.00000000000E+00  0.26217280797E+04  0.26217280797E+04  0.00000000000E+00 0.  1.
         -2   -1    0    0    0  501 -0.00000000000E+00 -0.00000000000E+00 -0.55169169323E+03  0.55169169323E+03  0.00000000000E+00 0. -1.
         23    2    1    2    0    0 -0.53016820380E+03  0.70611517667E+03  0.15774532720E+04  0.18096924743E+04  0.83373012302E+02 0.  0.
        254    2    1    2    0    0  0.53016820380E+03 -0.70611517667E+03  0.49258311445E+03  0.13637272986E+04  0.91511586876E+03 0.  0.
        -24    2    4    4    0    0 -0.10008557239E+03 -0.61154985100E+03  0.18611264222E+03  0.65200614221E+03  0.80397461605E+02 0.  0.
         24    2    4    4    0    0  0.63025377620E+03 -0.94565325668E+02  0.30647047222E+03  0.71172115639E+03  0.80376805577E+02 0.  0.
         13    1    3    3    0    0 -0.13902857758E+03  0.13008997479E+03  0.32142467020E+03  0.37358555317E+03  0.00000000000E+00 0. -1.
        -13    1    3    3    0    0 -0.39113962623E+03  0.57602520188E+03  0.12560286018E+04  0.14361069211E+04  0.00000000000E+00 0.  1.
          4    1    6    6  502    0  0.16314202973E+03 -0.23407881674E+02  0.11948200949E+03  0.20356620884E+03  0.00000000000E+00 0. -1.
          1    1    5    5  503    0  0.91105722207E+01 -0.13822798803E+03  0.29553009615E+02  0.14164518904E+03  0.00000000000E+00 0. -1.
         -4    1    5    5    0  503 -0.10919614461E+03 -0.47332186297E+03  0.15655963261E+03  0.51036095318E+03  0.00000000000E+00 0.  1.
         -3    1    6    6    0  502  0.46711174647E+03 -0.71157443994E+02  0.18698846273E+03  0.50815494755E+03  0.00000000000E+00 0.  1.
<mgrwt>
<rscale>  0 0.24053154E+04</rscale>
<asrwt>0</asrwt>
<pdfrwt beam="1">  1        2 0.40334277E+00 0.24053154E+04</pdfrwt>
<pdfrwt beam="2">  1       -2 0.84875647E-01 0.24053154E+04</pdfrwt>
<totfact> 0.32107885E+00</totfact>
</mgrwt>
</event>
<event>
12    1  0.1114484E-007  0.1246086E+04  0.7818608E-02  0.9073447E-01
         -2   -1    0    0    0  501 -0.00000000000E+00  0.00000000000E+00  0.28496076603E+03  0.28496076603E+03  0.00000000000E+00 0.  1.
          2   -1    0    0  501    0  0.00000000000E+00 -0.00000000000E+00 -0.13622325166E+04  0.13622325166E+04  0.00000000000E+00 0. -1.
         23    2    1    2    0    0 -0.21449706687E+03 -0.18625612925E+03 -0.22080685669E+03  0.37135321773E+03  0.91908688276E+02 0.  0.
        254    2    1    2    0    0  0.21449706687E+03  0.18625612925E+03 -0.85646489389E+03  0.12758400649E+04  0.90196198334E+03 0.  0.
        -24    2    4    4    0    0 -0.27485513629E+01  0.87213917304E+02  0.17671215850E+03  0.21191671928E+03  0.77895359555E+02 0.  0.
         24    2    4    4    0    0  0.21724561823E+03  0.99042211945E+02 -0.10331770524E+04  0.10639233456E+04  0.86446777873E+02 0.  0.
         13    1    3    3    0    0 -0.52843258501E+02 -0.92820849740E+01 -0.15748340933E+02  0.55915805570E+02  0.00000000000E+00 0. -1.
        -13    1    3    3    0    0 -0.16165380837E+03 -0.17697404427E+03 -0.20505851576E+03  0.31543741216E+03  0.00000000000E+00 0.  1.
          4    1    6    6  502    0  0.15381345971E+03  0.37800002276E+02 -0.77751825560E+03  0.79348727674E+03  0.00000000000E+00 0. -1.
          3    1    5    5  503    0 -0.38042701232E+01  0.98849622701E+02  0.12771132916E+03  0.16154226684E+03  0.00000000000E+00 0. -1.
         -4    1    5    5    0  503  0.10557187603E+01 -0.11635705397E+02  0.49000829346E+02  0.50374452441E+02  0.00000000000E+00 0.  1.
         -1    1    6    6    0  502  0.63432158524E+02  0.61242209669E+02 -0.25565879680E+03  0.27043606889E+03  0.00000000000E+00 0.  1.
<mgrwt>
<rscale>  0 0.12460864E+04</rscale>
<asrwt>0</asrwt>
<pdfrwt beam="1">  1        2 0.20957423E+00 0.12460864E+04</pdfrwt>
<pdfrwt beam="2">  1       -2 0.43840118E-01 0.12460864E+04</pdfrwt>
<totfact> 0.73804971E+01</totfact>
</mgrwt>
</event>
<event>
12    1  0.1114484E-007  0.1066157E+04  0.7818608E-02  0.9238820E-01
         -2   -1    0    0    0  501 -0.00000000000E+00  0.00000000000E+00  0.24019701512E+03  0.24019701512E+03  0.00000000000E+00 0.  1.
          2   -1    0    0  501    0  0.00000000000E+00 -0.00000000000E+00 -0.11830822927E+04  0.11830822927E+04  0.00000000000E+00 0. -1.
         23    2    1    2    0    0 -0.90987848443E+02  0.15515073783E+02 -0.11847533796E+02  0.12994477636E+03  0.90696057064E+02 0.  0.
        254    2    1    2    0    0  0.90987848443E+02 -0.15515073783E+02 -0.93103774382E+03  0.12933345315E+04  0.89295208374E+03 0.  0.
        -24    2    4    4    0    0 -0.25647531538E+03 -0.32486829766E+03 -0.50117014870E+03  0.65493790028E+03  0.80331420073E+02 0.  0.
         24    2    4    4    0    0  0.34746316382E+03  0.30935322388E+03 -0.42986759512E+03  0.63839663121E+03  0.79586695335E+02 0.  0.
         13    1    3    3    0    0 -0.10879961217E+03  0.77095459984E+01 -0.45294275094E+01  0.10916642534E+03  0.00000000000E+00 0.  1.
        -13    1    3    3    0    0  0.17811763732E+02  0.78055277845E+01 -0.73181062864E+01  0.20778351014E+02  0.00000000000E+00 0. -1.
          4    1    6    6  502    0  0.28721656191E+03  0.25984417595E+03 -0.39423911888E+03  0.55266339853E+03  0.00000000000E+00 0. -1.
          1    1    5    5  503    0 -0.25000664116E+03 -0.30918877753E+03 -0.49867903774E+03  0.63779448372E+03  0.00000000000E+00 0. -1.
         -2    1    5    5    0  503 -0.64686742112E+01 -0.15679520135E+02 -0.24911109610E+01  0.17143416565E+02  0.00000000000E+00 0.  1.
         -3    1    6    6    0  502  0.60246601904E+02  0.49509047927E+02 -0.35628476235E+02  0.85733232684E+02  0.00000000000E+00 0.  1.
<mgrwt>
<rscale>  0 0.10661573E+04</rscale>
<asrwt>0</asrwt>
<pdfrwt beam="1">  1        2 0.18201266E+00 0.10661573E+04</pdfrwt>
<pdfrwt beam="2">  1       -2 0.36953387E-01 0.10661573E+04</pdfrwt>
<totfact> 0.13296377E+02</totfact>
</mgrwt>
</event>
<event>
12    1  0.1114484E-007  0.1778713E+04  0.7818608E-02  0.8717702E-01
         -2   -1    0    0    0  501 -0.00000000000E+00  0.00000000000E+00  0.57246063605E+03  0.57246063605E+03  0.00000000000E+00 0. -1.
          2   -1    0    0  501    0  0.00000000000E+00 -0.00000000000E+00 -0.13816751403E+04  0.13816751403E+04  0.00000000000E+00 0.  1.
         23    2    1    2    0    0 -0.29543712695E+03  0.31205267104E+03  0.24649341818E+03  0.50357989977E+03  0.90408764851E+02 0.  0.
        254    2    1    2    0    0  0.29543712695E+03 -0.31205267104E+03 -0.10557079224E+04  0.14505558766E+04  0.89718067754E+03 0.  0.
        -24    2    4    4    0    0  0.13934398903E+03  0.30771256111E+03 -0.31239043675E+03  0.46689716585E+03  0.79381427055E+02 0.  0.
         24    2    4    4    0    0  0.15609313792E+03 -0.61976523215E+03 -0.74331748570E+03  0.98365871076E+03  0.81176129551E+02 0.  0.
         11    1    3    3    0    0 -0.78404029012E+02  0.58365423051E+02  0.97255607437E+02  0.13788534205E+03  0.00000000000E+00 0.  1.
        -11    1    3    3    0    0 -0.21703309794E+03  0.25368724799E+03  0.14923781074E+03  0.36569455772E+03  0.00000000000E+00 0. -1.
          4    1    6    6  502    0  0.10455608306E+03 -0.52321702793E+03 -0.59279678578E+03  0.79755630651E+03  0.00000000000E+00 0. -1.
          1    1    5    5  503    0  0.91259928197E+02  0.27151759136E+03 -0.24980690100E+03  0.38007060489E+03  0.00000000000E+00 0. -1.
         -2    1    5    5    0  503  0.48084060835E+02  0.36194969750E+02 -0.62583535742E+02  0.86826560956E+02  0.00000000000E+00 0.  1.
         -3    1    6    6    0  502  0.51537054858E+02 -0.96548204220E+02 -0.15052069992E+03  0.18610240425E+03  0.00000000000E+00 0.  1.
<mgrwt>
<rscale>  0 0.17787126E+04</rscale>
<asrwt>0</asrwt>
<pdfrwt beam="1">  1        2 0.21256540E+00 0.17787126E+04</pdfrwt>
<pdfrwt beam="2">  1       -2 0.88070868E-01 0.17787126E+04</pdfrwt>
<totfact> 0.15575994E+01</totfact>
</mgrwt>
</event>
<event>
12    1  0.1114484E-007  0.1415929E+04  0.7818608E-02  0.8942368E-01
         -1   -1    0    0    0  501 -0.00000000000E+00  0.00000000000E+00  0.71803526427E+03  0.71803526427E+03  0.00000000000E+00 0.  1.
          1   -1    0    0  501    0  0.00000000000E+00 -0.00000000000E+00 -0.69803485661E+03  0.69803485661E+03  0.00000000000E+00 0. -1.
         23    2    1    2    0    0  0.19456723866E+03 -0.14390300310E+03  0.35012539957E+03  0.43416340578E+03  0.85706375679E+02 0.  0.
        254    2    1    2    0    0 -0.19456723866E+03  0.14390300310E+03 -0.33012499191E+03  0.98190671510E+03  0.89252103741E+03 0.  0.
        -24    2    4    4    0    0  0.32326528942E+02  0.41702776022E+03  0.79975331233E+02  0.43352926945E+03  0.81206013322E+02 0.  0.
         24    2    4    4    0    0 -0.22689376761E+03 -0.27312475713E+03 -0.41010032314E+03  0.54837744565E+03  0.80359399717E+02 0.  0.
         11    1    3    3    0    0  0.16354793253E+03 -0.15014573881E+03  0.28086679196E+03  0.35801930666E+03  0.00000000000E+00 0.  1.
        -11    1    3    3    0    0  0.31019306133E+02  0.62427357108E+01  0.69258607615E+02  0.76144099121E+02  0.00000000000E+00 0. -1.
          4    1    6    6  502    0 -0.55470580828E+02 -0.84951982809E+02 -0.17274612655E+03  0.20033733791E+03  0.00000000000E+00 0. -1.
          1    1    5    5  503    0 -0.11077941107E+02  0.23556910363E+03  0.72813216988E+02  0.24681427822E+03  0.00000000000E+00 0. -1.
         -2    1    5    5    0  503  0.43404470049E+02  0.18145865659E+03  0.71621142455E+01  0.18671499124E+03  0.00000000000E+00 0.  1.
         -3    1    6    6    0  502 -0.17142318678E+03 -0.18817277432E+03 -0.23735419659E+03  0.34804010774E+03  0.00000000000E+00 0.  1.
<mgrwt>
<rscale>  0 0.14159289E+04</rscale>
<asrwt>0</asrwt>
<pdfrwt beam="1">  1        1 0.10738998E+00 0.14159289E+04</pdfrwt>
<pdfrwt beam="2">  1       -1 0.11046696E+00 0.14159289E+04</pdfrwt>
<totfact> 0.20140407E+01</totfact>
</mgrwt>
</event>
<event>
12    1  0.1114484E-007  0.2105537E+04  0.7818608E-02  0.8558808E-01
         -1   -1    0    0    0  501 -0.00000000000E+00  0.00000000000E+00  0.11377759036E+04  0.11377759036E+04  0.00000000000E+00 0.  1.
          1   -1    0    0  501    0  0.00000000000E+00 -0.00000000000E+00 -0.97411251887E+03  0.97411251887E+03  0.00000000000E+00 0. -1.
         23    2    1    2    0    0 -0.85002730301E+03 -0.88067546412E+01 -0.72365581753E+02  0.85827596525E+03  0.93685005792E+02 0.  0.
        254    2    1    2    0    0  0.85002730301E+03  0.88067546412E+01  0.23602896652E+03  0.12536124573E+04  0.89062368325E+03 0.  0.
        -24    2    4    4    0    0  0.39904101630E+03  0.75970025670E+02  0.55439074328E+03  0.69204510826E+03  0.81068848188E+02 0.  0.
         24    2    4    4    0    0  0.45098628672E+03 -0.67163271029E+02 -0.31836177676E+03  0.56156734900E+03  0.78128936880E+02 0.  0.
         11    1    3    3    0    0 -0.21692657872E+03  0.57533143432E+01  0.21596638880E+02  0.21807488620E+03  0.00000000000E+00 0. -1.
        -11    1    3    3    0    0 -0.63310072430E+03 -0.14560068984E+02 -0.93962220634E+02  0.64020107905E+03  0.00000000000E+00 0.  1.
          2    1    6    6  502    0  0.34302177162E+03 -0.23676612544E+02 -0.21230364182E+03  0.40410067324E+03  0.00000000000E+00 0. -1.
          1    1    5    5  503    0  0.24655095209E+03  0.69780636695E+02  0.39939858832E+03  0.47452707150E+03  0.00000000000E+00 0. -1.
         -2    1    5    5    0  503  0.15249006421E+03  0.61893889750E+01  0.15499215496E+03  0.21751803676E+03  0.00000000000E+00 0.  1.
         -1    1    6    6    0  502  0.10796451510E+03 -0.43486658485E+02 -0.10605813494E+03  0.15746667576E+03  0.00000000000E+00 0.  1.
<mgrwt>
<rscale>  0 0.21055372E+04</rscale>
<asrwt>0</asrwt>
<pdfrwt beam="1">  1        1 0.14986346E+00 0.21055372E+04</pdfrwt>
<pdfrwt beam="2">  1       -1 0.17504245E+00 0.21055372E+04</pdfrwt>
<totfact> 0.32948977E+00</totfact>
</mgrwt>
</event>
<event>
12    1  0.1140053E-007  0.2203037E+04  0.7818608E-02  0.8517165E-01
         -1   -1    0    0    0  501 -0.00000000000E+00  0.00000000000E+00  0.47912789487E+03  0.47912789487E+03  0.00000000000E+00 0.  1.
          1   -1    0    0  501    0  0.00000000000E+00 -0.00000000000E+00 -0.25323991217E+04  0.25323991217E+04  0.00000000000E+00 0. -1.
         23    2    1    2    0    0 -0.15945187687E+02  0.41200742610E+03 -0.19799961113E+04  0.20239719091E+04  0.77931508204E+02 0.  0.
        254    2    1    2    0    0  0.15945187687E+02 -0.41200742610E+03 -0.73275115524E+02  0.98755510745E+03  0.89436652415E+03 0.  0.
        -24    2    4    4    0    0 -0.16149254716E+03 -0.65102491719E+03 -0.67959157297E+02  0.67891048141E+03  0.79923145111E+02 0.  0.
         24    2    4    4    0    0  0.17743773485E+03  0.23901749108E+03 -0.53159582274E+01  0.30864462604E+03  0.81361753800E+02 0.  0.
         11    1    3    3    0    0 -0.68639060553E+01  0.28594135429E+02 -0.26440970815E+03  0.26603990594E+03  0.00000000000E+00 0.  1.
        -11    1    3    3    0    0 -0.90812816312E+01  0.38341329067E+03 -0.17155864032E+04  0.17579320032E+04  0.00000000000E+00 0. -1.
          4    1    6    6  502    0  0.17386159609E+03  0.24104288175E+03 -0.15556964400E+02  0.29760971856E+03  0.00000000000E+00 0. -1.
          1    1    5    5  503    0 -0.12066956540E+03 -0.45348666905E+03 -0.11345255301E+02  0.46940389628E+03  0.00000000000E+00 0. -1.
         -2    1    5    5    0  503 -0.40822981759E+02 -0.19753824813E+03 -0.56613901996E+02  0.20950658513E+03  0.00000000000E+00 0.  1.
         -3    1    6    6    0  502  0.35761387540E+01 -0.20253906683E+01  0.10241006173E+02  0.11034907484E+02  0.00000000000E+00 0.  1.
<mgrwt>
<rscale>  0 0.22030370E+04</rscale>
<asrwt>0</asrwt>
<pdfrwt beam="1">  1        1 0.38959986E+00 0.22030370E+04</pdfrwt>
<pdfrwt beam="2">  1       -1 0.73711985E-01 0.22030370E+04</pdfrwt>
<totfact> 0.21735751E+00</totfact>
</mgrwt>
</event>
<event>
12    1  0.1114484E-007  0.1438633E+04  0.7818608E-02  0.8926319E-01
          1   -1    0    0  501    0  0.00000000000E+00  0.00000000000E+00  0.53642191497E+03  0.53642191497E+03  0.00000000000E+00 0. -1.
         -1   -1    0    0    0  501 -0.00000000000E+00 -0.00000000000E+00 -0.96456908505E+03  0.96456908505E+03  0.00000000000E+00 0.  1.
         23    2    1    2    0    0  0.87604609430E+02  0.60331746659E+02 -0.56956596497E+03  0.58649458931E+03  0.90862685378E+02 0.  0.
        254    2    1    2    0    0 -0.87604609430E+02 -0.60331746659E+02  0.14141879489E+03  0.91449641070E+03  0.89721230620E+03 0.  0.
        -24    2    4    4    0    0  0.32514094942E+01 -0.46013961257E+03  0.16807779929E+03  0.49651606850E+03  0.80864237734E+02 0.  0.
         24    2    4    4    0    0 -0.90856018924E+02  0.39980786591E+03 -0.26659004397E+02  0.41798034220E+03  0.76783579846E+02 0.  0.
         11    1    3    3    0    0  0.34219441793E+02  0.71523268840E+02 -0.41700565415E+03  0.42447645844E+03  0.00000000000E+00 0.  1.
        -11    1    3    3    0    0  0.53385167637E+02 -0.11191522181E+02 -0.15256031082E+03  0.16201813087E+03  0.00000000000E+00 0. -1.
          2    1    6    6  502    0 -0.94268694743E+02  0.25857405236E+03 -0.28497039990E+02  0.27669334768E+03  0.00000000000E+00 0. -1.
          3    1    5    5  503    0  0.25578246617E+02 -0.35646343651E+03  0.15541253134E+03  0.38970948560E+03  0.00000000000E+00 0. -1.
         -4    1    5    5    0  503 -0.22326837123E+02 -0.10367617606E+03  0.12665267945E+02  0.10680658290E+03  0.00000000000E+00 0.  1.
         -1    1    6    6    0  502  0.34126758187E+01  0.14123381356E+03  0.18380355936E+01  0.14128699453E+03  0.00000000000E+00 0.  1.
<mgrwt>
<rscale>  0 0.14386327E+04</rscale>
<asrwt>0</asrwt>
<pdfrwt beam="1">  1        1 0.82526449E-01 0.14386327E+04</pdfrwt>
<pdfrwt beam="2">  1       -1 0.14839524E+00 0.14386327E+04</pdfrwt>
<totfact> 0.14030734E+01</totfact>
</mgrwt>
</event>
<event>
12    1  0.1114484E-007  0.1791340E+04  0.7818608E-02  0.8710918E-01
          3   -1    0    0  501    0  0.00000000000E+00  0.00000000000E+00  0.41964552796E+03  0.41964552796E+03  0.00000000000E+00 0. -1.
         -3   -1    0    0    0  501 -0.00000000000E+00 -0.00000000000E+00 -0.19116732615E+04  0.19116732615E+04  0.00000000000E+00 0.  1.
         23    2    1    2    0    0  0.46530855303E+03  0.46778071138E+03 -0.42205267105E+03  0.78831876750E+03  0.89371016496E+02 0.  0.
        254    2    1    2    0    0 -0.46530855303E+03 -0.46778071138E+03 -0.10699750625E+04  0.15430000219E+04  0.89480254243E+03 0.  0.
        -24    2    4    4    0    0 -0.66151997011E+03 -0.10378893802E+03 -0.78291984518E+03  0.10332819928E+04  0.79544818723E+02 0.  0.
         24    2    4    4    0    0  0.19621141708E+03 -0.36399177336E+03 -0.28705521730E+03  0.50971802913E+03  0.80142623972E+02 0.  0.
         11    1    3    3    0    0  0.25816624818E+03  0.28347673205E+03 -0.19615885400E+03  0.43068220919E+03  0.00000000000E+00 0.  1.
        -11    1    3    3    0    0  0.20714230485E+03  0.18430397933E+03 -0.22589381705E+03  0.35763655830E+03  0.00000000000E+00 0. -1.
          2    1    6    6  502    0  0.13908022044E+03 -0.20081883017E+03 -0.20232520246E+03  0.31718606183E+03  0.00000000000E+00 0. -1.
          1    1    5    5  503    0 -0.43858195869E+03 -0.35726717377E+02 -0.54057643609E+03  0.69703186160E+03  0.00000000000E+00 0. -1.
         -2    1    5    5    0  503 -0.22293801143E+03 -0.68062220640E+02 -0.24234340908E+03  0.33625013122E+03  0.00000000000E+00 0.  1.
         -1    1    6    6    0  502  0.57131196647E+02 -0.16317294319E+03 -0.84730014837E+02  0.19253196730E+03  0.00000000000E+00 0.  1.
<mgrwt>
<rscale>  0 0.17913404E+04</rscale>
<asrwt>0</asrwt>
<pdfrwt beam="1">  1        3 0.64560848E-01 0.17913404E+04</pdfrwt>
<pdfrwt beam="2">  1       -3 0.29410359E+00 0.17913404E+04</pdfrwt>
<totfact> 0.23597629E-01</totfact>
</mgrwt>
</event>
<event>
12    1  0.1114484E-007  0.3383822E+04  0.7818608E-02  0.8141888E-01
         -2   -1    0    0    0  501 -0.00000000000E+00  0.00000000000E+00  0.12527724700E+04  0.12527724700E+04  0.00000000000E+00 0.  1.
          2   -1    0    0  501    0  0.00000000000E+00 -0.00000000000E+00 -0.22849821498E+04  0.22849821498E+04  0.00000000000E+00 0. -1.
         23    2    1    2    0    0  0.61807591734E+03  0.70890253805E+03 -0.17971352639E+04  0.20303801563E+04  0.90486322729E+02 0.  0.
        254    2    1    2    0    0 -0.61807591734E+03 -0.70890253805E+03  0.76492558405E+03  0.15073744634E+04  0.89582697865E+03 0.  0.
        -24    2    4    4    0    0  0.49246880706E+02 -0.51201499609E+02 -0.15652519035E+03  0.19079162018E+03  0.82791655951E+02 0.  0.
         24    2    4    4    0    0 -0.66732279805E+03 -0.65770103844E+03  0.92145077440E+03  0.13165828432E+04  0.80177806256E+02 0.  0.
         11    1    3    3    0    0  0.14412536847E+03  0.11921286183E+03 -0.31574572374E+03  0.36698663508E+03  0.00000000000E+00 0.  1.
        -11    1    3    3    0    0  0.47395054887E+03  0.58968967622E+03 -0.14813895401E+04  0.16633935213E+04  0.00000000000E+00 0. -1.
          4    1    6    6  502    0 -0.14698175302E+03 -0.19329379545E+03  0.24676611076E+03  0.34620751075E+03  0.00000000000E+00 0. -1.
          3    1    5    5  503    0 -0.15612425307E+02 -0.74109393312E+01 -0.17674848833E+01  0.17372214843E+02  0.00000000000E+00 0. -1.
         -4    1    5    5    0  503  0.64859306013E+02 -0.43790560278E+02 -0.15475770547E+03  0.17341940534E+03  0.00000000000E+00 0.  1.
         -3    1    6    6    0  502 -0.52034104503E+03 -0.46440724299E+03  0.67468466364E+03  0.97037533246E+03  0.00000000000E+00 0.  1.
<mgrwt>
<rscale>  0 0.33838219E+04</rscale>
<asrwt>0</asrwt>
<pdfrwt beam="1">  1        2 0.35153571E+00 0.33838219E+04</pdfrwt>
<pdfrwt beam="2">  1       -2 0.19273423E+00 0.33838219E+04</pdfrwt>
<totfact> 0.56991261E-01</totfact>
</mgrwt>
</event>
<event>
12    1  0.1114484E-007  0.1427202E+04  0.7818608E-02  0.8934361E-01
         -2   -1    0    0    0  501 -0.00000000000E+00  0.00000000000E+00  0.49094019279E+03  0.49094019279E+03  0.00000000000E+00 0.  1.
          2   -1    0    0  501    0  0.00000000000E+00 -0.00000000000E+00 -0.10372468655E+04  0.10372468655E+04  0.00000000000E+00 0. -1.
         23    2    1    2    0    0  0.37220067851E+03  0.20141865776E+03 -0.24131952791E+03  0.49459721135E+03  0.85372513980E+02 0.  0.
        254    2    1    2    0    0 -0.37220067851E+03 -0.20141865776E+03 -0.30498714483E+03  0.10335898470E+04  0.89229366941E+03 0.  0.
        -24    2    4    4    0    0 -0.42549841408E+03  0.15272202455E+03  0.11777056525E+03  0.47393564979E+03  0.79825916410E+02 0.  0.
         24    2    4    4    0    0  0.53297735567E+02 -0.35414068230E+03 -0.42275771008E+03  0.55965419719E+03  0.78945978473E+02 0.  0.
         13    1    3    3    0    0  0.86420351479E+02  0.19544464655E+02 -0.80104546802E+02  0.11944539199E+03  0.00000000000E+00 0. -1.
        -13    1    3    3    0    0  0.28578032704E+03  0.18187419310E+03 -0.16121498111E+03  0.37515181936E+03  0.00000000000E+00 0.  1.
          2    1    6    6  502    0  0.58189292047E+02 -0.32434118118E+03 -0.34914958898E+03  0.48009231509E+03  0.00000000000E+00 0. -1.
          3    1    5    5  503    0 -0.16905416041E+03  0.57119724928E+02  0.66931257883E+01  0.17856867043E+03  0.00000000000E+00 0. -1.
         -4    1    5    5    0  503 -0.25644425367E+03  0.95602299620E+02  0.11107743946E+03  0.29536697935E+03  0.00000000000E+00 0.  1.
         -1    1    6    6    0  502 -0.48915564802E+01 -0.29799501127E+02 -0.73608121095E+02  0.79561882100E+02  0.00000000000E+00 0.  1.
<mgrwt>
<rscale>  0 0.14272017E+04</rscale>
<asrwt>0</asrwt>
<pdfrwt beam="1">  1        2 0.15957644E+00 0.14272017E+04</pdfrwt>
<pdfrwt beam="2">  1       -2 0.75529261E-01 0.14272017E+04</pdfrwt>
<totfact> 0.36424085E+01</totfact>
</mgrwt>
</event>
<event>
12    1  0.1161108E-007  0.2711799E+04  0.7818608E-02  0.8331187E-01
         -1   -1    0    0    0  501 -0.00000000000E+00  0.00000000000E+00  0.95770855438E+03  0.95770855438E+03  0.00000000000E+00 0.  1.
          1   -1    0    0  501    0  0.00000000000E+00 -0.00000000000E+00 -0.19196485965E+04  0.19196485965E+04  0.00000000000E+00 0. -1.
         23    2    1    2    0    0 -0.10067017245E+04 -0.63207148952E+02  0.25075161672E+03  0.10440303044E+04  0.98383929123E+02 0.  0.
        254    2    1    2    0    0  0.10067017245E+04  0.63207148952E+02 -0.12126916588E+04  0.18333268465E+04  0.93435687024E+03 0.  0.
        -24    2    4    4    0    0  0.18827591912E+03  0.42488615078E+03 -0.34279249455E+03  0.58286927578E+03  0.79081195507E+02 0.  0.
         24    2    4    4    0    0  0.81842580533E+03 -0.36167900183E+03 -0.86989916430E+03  0.12504575707E+04  0.79291114992E+02 0.  0.
         13    1    3    3    0    0 -0.96971438798E+03 -0.79039981265E+02  0.23569906468E+03  0.10010731052E+04  0.00000000000E+00 0.  1.
        -13    1    3    3    0    0 -0.36987336472E+02  0.15832832313E+02  0.15052552034E+02  0.42957199177E+02  0.00000000000E+00 0. -1.
          4    1    6    6  502    0  0.76915916852E+03 -0.35201327141E+03 -0.79898835033E+03  0.11635727539E+04  0.00000000000E+00 0. -1.
          3    1    5    5  503    0  0.16777738950E+03  0.38398775663E+03 -0.33494098637E+03  0.53645252728E+03  0.00000000000E+00 0. -1.
         -4    1    5    5    0  503  0.20498529615E+02  0.40898394158E+02 -0.78515081717E+01  0.46416748504E+02  0.00000000000E+00 0.  1.
         -3    1    6    6    0  502  0.49266636810E+02 -0.96657304266E+01 -0.70910813971E+02  0.86884816770E+02  0.00000000000E+00 0.  1.
<mgrwt>
<rscale>  0 0.27117993E+04</rscale>
<asrwt>0</asrwt>
<pdfrwt beam="1">  1        1 0.29533055E+00 0.27117993E+04</pdfrwt>
<pdfrwt beam="2">  1       -1 0.14733978E+00 0.27117993E+04</pdfrwt>
<totfact> 0.10788777E+00</totfact>
</mgrwt>
</event>
<event>
12    1  0.1114484E-007  0.1965243E+04  0.7818608E-02  0.8623045E-01
          1   -1    0    0  501    0  0.00000000000E+00  0.00000000000E+00  0.17464758199E+04  0.17464758199E+04  0.00000000000E+00 0. -1.
         -1   -1    0    0    0  501 -0.00000000000E+00 -0.00000000000E+00 -0.55285340839E+03  0.55285340839E+03  0.00000000000E+00 0.  1.
         23    2    1    2    0    0  0.18125609644E+03  0.19084731715E+03  0.13271589615E+04  0.13552710353E+04  0.78308360351E+02 0.  0.
        254    2    1    2    0    0 -0.18125609644E+03 -0.19084731715E+03 -0.13353654989E+03  0.94405819300E+03  0.89673708000E+03 0.  0.
        -24    2    4    4    0    0 -0.27650191675E+03 -0.28305938548E+03 -0.44241536410E+03  0.59892942743E+03  0.80057348056E+02 0.  0.
         24    2    4    4    0    0  0.95245820309E+02  0.92212068336E+02  0.30887881420E+03  0.34512876557E+03  0.78312905221E+02 0.  0.
         13    1    3    3    0    0  0.46627177788E+01  0.21186964765E+01  0.14927968168E+03  0.14936751044E+03  0.00000000000E+00 0.  1.
        -13    1    3    3    0    0  0.17659337866E+03  0.18872862067E+03  0.11778792798E+04  0.12059035249E+04  0.00000000000E+00 0. -1.
          4    1    6    6  502    0  0.97530571827E+02  0.68373424928E+02  0.19295414036E+03  0.22675634050E+03  0.00000000000E+00 0. -1.
          3    1    5    5  503    0 -0.23918215176E+03 -0.22778586317E+03 -0.32200415549E+03  0.46128210168E+03  0.00000000000E+00 0. -1.
         -4    1    5    5    0  503 -0.37319764993E+02 -0.55273522316E+02 -0.12041120860E+03  0.13764732575E+03  0.00000000000E+00 0.  1.
         -3    1    6    6    0  502 -0.22847515179E+01  0.23838643408E+02  0.11592467384E+03  0.11837242506E+03  0.00000000000E+00 0.  1.
<mgrwt>
<rscale>  0 0.19652431E+04</rscale>
<asrwt>0</asrwt>
<pdfrwt beam="1">  1        1 0.26868858E+00 0.19652431E+04</pdfrwt>
<pdfrwt beam="2">  1       -1 0.85054372E-01 0.19652431E+04</pdfrwt>
<totfact> 0.56353158E+00</totfact>
</mgrwt>
</event>
<event>
12    1  0.1114484E-007  0.1233376E+04  0.7818608E-02  0.9084134E-01
         -4   -1    0    0    0  501 -0.00000000000E+00  0.00000000000E+00  0.52276939259E+03  0.52276939259E+03  0.00000000000E+00 0.  1.
          4   -1    0    0  501    0  0.00000000000E+00 -0.00000000000E+00 -0.72747942758E+03  0.72747942758E+03  0.00000000000E+00 0. -1.
         23    2    1    2    0    0 -0.13969221464E+02  0.21182497369E+03 -0.20270731143E+03  0.30707762592E+03  0.90230014985E+02 0.  0.
        254    2    1    2    0    0  0.13969221464E+02 -0.21182497369E+03 -0.20027235616E+01  0.94317119424E+03  0.91896840649E+03 0.  0.
        -24    2    4    4    0    0 -0.30175786199E+03 -0.35411591383E+03 -0.22622524969E+03  0.52314850374E+03  0.77785639220E+02 0.  0.
         24    2    4    4    0    0  0.31572708346E+03  0.14229094014E+03  0.22422252613E+03  0.42002269050E+03  0.78822689860E+02 0.  0.
         13    1    3    3    0    0  0.55970178870E+01  0.17759006768E+03 -0.11701675869E+03  0.21274980743E+03  0.00000000000E+00 0. -1.
        -13    1    3    3    0    0 -0.19566239351E+02  0.34234906017E+02 -0.85690552740E+02  0.94327818491E+02  0.00000000000E+00 0.  1.
          2    1    6    6  502    0  0.15716917927E+03  0.28491209642E+02  0.10903085062E+03  0.19339500078E+03  0.00000000000E+00 0. -1.
          3    1    5    5  503    0 -0.17779082589E+03 -0.14921748125E+03 -0.10559538450E+03  0.25500160727E+03  0.00000000000E+00 0. -1.
         -4    1    5    5    0  503 -0.12396703611E+03 -0.20489843258E+03 -0.12062986519E+03  0.26814689648E+03  0.00000000000E+00 0.  1.
         -1    1    6    6    0  502  0.15855790418E+03  0.11379973050E+03  0.11519167550E+03  0.22662768971E+03  0.00000000000E+00 0.  1.
<mgrwt>
<rscale>  0 0.12333758E+04</rscale>
<asrwt>0</asrwt>
<pdfrwt beam="1">  1        4 0.11191991E+00 0.12333758E+04</pdfrwt>
<pdfrwt beam="2">  1       -4 0.80426060E-01 0.12333758E+04</pdfrwt>
<totfact> 0.16929486E+00</totfact>
</mgrwt>
</event>
<event>
12    1  0.1114484E-007  0.2709425E+04  0.7818608E-02  0.8331953E-01
         -2   -1    0    0    0  501 -0.00000000000E+00  0.00000000000E+00  0.72130057596E+03  0.72130057596E+03  0.00000000000E+00 0.  1.
          2   -1    0    0  501    0  0.00000000000E+00 -0.00000000000E+00 -0.25443575776E+04  0.25443575776E+04  0.00000000000E+00 0. -1.
         23    2    1    2    0    0 -0.10361007052E+04  0.34379506744E+03 -0.20350341334E+03  0.11141387177E+04  0.90508138802E+02 0.  0.
        254    2    1    2    0    0  0.10361007052E+04 -0.34379506744E+03 -0.16195535883E+04  0.21515194359E+04  0.90243134802E+03 0.  0.
        -24    2    4    4    0    0  0.51256833262E+02 -0.72927310706E+02 -0.87933432957E+03  0.88742544933E+03  0.79683181106E+02 0.  0.
         24    2    4    4    0    0  0.98484387196E+03 -0.27086775673E+03 -0.74021925871E+03  0.12640939865E+04  0.81989402298E+02 0.  0.
         13    1    3    3    0    0 -0.34206116598E+03  0.14951559991E+03 -0.43141598760E+02  0.37579509501E+03  0.00000000000E+00 0. -1.
        -13    1    3    3    0    0 -0.69403953924E+03  0.19427946752E+03 -0.16036181458E+03  0.73834362265E+03  0.00000000000E+00 0.  1.
          2    1    6    6  502    0  0.71253073867E+03 -0.15888204119E+03 -0.51530724440E+03  0.89357994197E+03  0.00000000000E+00 0. -1.
          3    1    5    5  503    0  0.12532250959E+02 -0.76992729016E+02 -0.49290295352E+03  0.49903733250E+03  0.00000000000E+00 0. -1.
         -4    1    5    5    0  503  0.38724582304E+02  0.40654183097E+01 -0.38643137605E+03  0.38838811683E+03  0.00000000000E+00 0.  1.
         -1    1    6    6    0  502  0.27231313329E+03 -0.11198571554E+03 -0.22491201431E+03  0.37051404458E+03  0.00000000000E+00 0.  1.
<mgrwt>
<rscale>  0 0.27094255E+04</rscale>
<asrwt>0</asrwt>
<pdfrwt beam="1">  1        2 0.39143962E+00 0.27094255E+04</pdfrwt>
<pdfrwt beam="2">  1       -2 0.11096932E+00 0.27094255E+04</pdfrwt>
<totfact> 0.18490476E+00</totfact>
</mgrwt>
</event>
<event>
12    1  0.1114484E-007  0.1414533E+04  0.7818608E-02  0.8943365E-01
         -1   -1    0    0    0  501 -0.00000000000E+00  0.00000000000E+00  0.47902308409E+03  0.47902308409E+03  0.00000000000E+00 0. -1.
          1   -1    0    0  501    0  0.00000000000E+00 -0.00000000000E+00 -0.10442632393E+04  0.10442632393E+04  0.00000000000E+00 0.  1.
         23    2    1    2    0    0  0.23558144870E+03 -0.46771232854E+02  0.20364570386E+03  0.32752811061E+03  0.90093969541E+02 0.  0.
        254    2    1    2    0    0 -0.23558144870E+03  0.46771232854E+02 -0.76888585908E+03  0.11957582128E+04  0.88372284794E+03 0.  0.
        -24    2    4    4    0    0 -0.21112394837E+02 -0.16432374068E+02 -0.91460072305E+03  0.91795797308E+03  0.73733314069E+02 0.  0.
         24    2    4    4    0    0 -0.21446905386E+03  0.63203606922E+02  0.14571486397E+03  0.27780023971E+03  0.77126393749E+02 0.  0.
         13    1    3    3    0    0  0.15097707259E+03 -0.25368457463E+02  0.18159250729E+03  0.23751520749E+03  0.00000000000E+00 0. -1.
        -13    1    3    3    0    0  0.84604376103E+02 -0.21402775390E+02  0.22053196569E+02  0.90012903126E+02  0.00000000000E+00 0.  1.
          4    1    6    6  502    0 -0.12722663957E+03  0.76193800178E+02  0.92885928428E+02  0.17498545283E+03  0.00000000000E+00 0. -1.
          1    1    5    5  503    0 -0.27082017094E+02 -0.35933926377E+02 -0.81755697074E+03  0.81879428620E+03  0.00000000000E+00 0. -1.
         -2    1    5    5    0  503  0.59696222564E+01  0.19501552309E+02 -0.97043752308E+02  0.99163686874E+02  0.00000000000E+00 0.  1.
         -3    1    6    6    0  502 -0.87242414292E+02 -0.12990193256E+02  0.52828935539E+02  0.10281478689E+03  0.00000000000E+00 0.  1.
<mgrwt>
<rscale>  0 0.14145334E+04</rscale>
<asrwt>0</asrwt>
<pdfrwt beam="1">  1        1 0.16065588E+00 0.14145334E+04</pdfrwt>
<pdfrwt beam="2">  1       -1 0.73695860E-01 0.14145334E+04</pdfrwt>
<totfact> 0.25257995E+01</totfact>
</mgrwt>
</event>
<event>
12    1  0.1114484E-007  0.2248811E+04  0.7818608E-02  0.8498382E-01
          4   -1    0    0  501    0  0.00000000000E+00  0.00000000000E+00  0.17330633171E+04  0.17330633171E+04  0.00000000000E+00 0. -1.
         -4   -1    0    0    0  501 -0.00000000000E+00 -0.00000000000E+00 -0.72951061070E+03  0.72951061070E+03  0.00000000000E+00 0.  1.
         23    2    1    2    0    0  0.28111602516E+03  0.60383939228E+03 -0.29571916645E+03  0.73475465632E+03  0.93628779296E+02 0.  0.
        254    2    1    2    0    0 -0.28111602516E+03 -0.60383939228E+03  0.12992718729E+04  0.17278192715E+04  0.92390681565E+03 0.  0.
        -24    2    4    4    0    0 -0.34908209152E+03 -0.76091880279E+03  0.68280839823E+03  0.10832116422E+04  0.79148101613E+02 0.  0.
         24    2    4    4    0    0  0.67966066362E+02  0.15707941051E+03  0.61646347462E+03  0.64460762929E+03  0.78730253537E+02 0.  0.
         13    1    3    3    0    0  0.19826187984E+03  0.37295064829E+03 -0.22936885387E+03  0.48063502805E+03  0.00000000000E+00 0. -1.
        -13    1    3    3    0    0  0.82854145321E+02  0.23088874398E+03 -0.66350312584E+02  0.25411962828E+03  0.00000000000E+00 0.  1.
          2    1    6    6  502    0  0.53170071755E+02  0.10937680062E+03  0.53817096824E+03  0.55174118217E+03  0.00000000000E+00 0. -1.
          3    1    5    5  503    0 -0.31200418493E+03 -0.67996794352E+03  0.63946440832E+03  0.98418379642E+03  0.00000000000E+00 0. -1.
         -4    1    5    5    0  503 -0.37077906586E+02 -0.80950859266E+02  0.43343989915E+02  0.99027845753E+02  0.00000000000E+00 0.  1.
         -1    1    6    6    0  502  0.14795994607E+02  0.47702609887E+02  0.78292506375E+02  0.92866447121E+02  0.00000000000E+00 0.  1.
<mgrwt>
<rscale>  0 0.22488113E+04</rscale>
<asrwt>0</asrwt>
<pdfrwt beam="1">  1        4 0.26662512E+00 0.22488113E+04</pdfrwt>
<pdfrwt beam="2">  1       -4 0.11223240E+00 0.22488113E+04</pdfrwt>
<totfact> 0.56573399E-02</totfact>
</mgrwt>
</event>
<event>
12    1  0.1114484E-007  0.3498653E+04  0.7818608E-02  0.8114109E-01
          2   -1    0    0  501    0  0.00000000000E+00  0.00000000000E+00  0.39021580000E+04  0.39021580000E+04  0.00000000000E+00 0.  1.
         -2   -1    0    0    0  501 -0.00000000000E+00 -0.00000000000E+00 -0.78421825385E+03  0.78421825385E+03  0.00000000000E+00 0. -1.
         23    2    1    2    0    0  0.10298011409E+04 -0.73607600138E+03  0.28258692170E+04  0.30976496419E+04  0.87167672560E+02 0.  0.
        254    2    1    2    0    0 -0.10298011409E+04  0.73607600138E+03  0.29207052916E+03  0.15887266119E+04  0.91457573970E+03 0.  0.
        -24    2    4    4    0    0 -0.46284570814E+03  0.21102548952E+03  0.56582873396E+03  0.76508202369E+03  0.80190024567E+02 0.  0.
         24    2    4    4    0    0 -0.56695543279E+03  0.52505051186E+03 -0.27375820480E+03  0.82364458819E+03  0.79563497830E+02 0.  0.
         13    1    3    3    0    0  0.98945118007E+03 -0.72090742021E+03  0.26992752887E+04  0.29639177165E+04  0.00000000000E+00 0.  1.
        -13    1    3    3    0    0  0.40349960854E+02 -0.15168581174E+02  0.12659392827E+03  0.13373192540E+03  0.00000000000E+00 0. -1.
          2    1    6    6  502    0 -0.14951970833E+02  0.19558857704E+02  0.46561054190E+01  0.25055731164E+02  0.00000000000E+00 0. -1.
          3    1    5    5  503    0 -0.71147036752E+02  0.30939437763E+01  0.69758653708E+02  0.99688229465E+02  0.00000000000E+00 0. -1.
         -4    1    5    5    0  503 -0.39169867139E+03  0.20793154574E+03  0.49607008025E+03  0.66539379423E+03  0.00000000000E+00 0.  1.
         -1    1    6    6    0  502 -0.55200346195E+03  0.50549165416E+03 -0.27841431022E+03  0.79858885703E+03  0.00000000000E+00 0.  1.
<mgrwt>
<rscale>  0 0.34986532E+04</rscale>
<asrwt>0</asrwt>
<pdfrwt beam="1">  1        2 0.60033199E+00 0.34986532E+04</pdfrwt>
<pdfrwt beam="2">  1       -2 0.12064896E+00 0.34986532E+04</pdfrwt>
<totfact> 0.17587182E-01</totfact>
</mgrwt>
</event>
<event>
12    1  0.1114484E-007  0.1422856E+04  0.7818608E-02  0.8937439E-01
         -2   -1    0    0    0  501 -0.00000000000E+00  0.00000000000E+00  0.29324696910E+04  0.29324696910E+04  0.00000000000E+00 0.  1.
          2   -1    0    0  501    0  0.00000000000E+00 -0.00000000000E+00 -0.17259499111E+03  0.17259499111E+03  0.00000000000E+00 0. -1.
         23    2    1    2    0    0  0.86991879249E+02  0.38559130669E+03  0.11356334356E+04  0.12058726075E+04  0.90648786108E+02 0.  0.
        254    2    1    2    0    0 -0.86991879249E+02 -0.38559130669E+03  0.16242412642E+04  0.18991920746E+04  0.90140036002E+03 0.  0.
        -24    2    4    4    0    0  0.34540318194E+03 -0.28286876222E+02  0.32321132038E+03  0.48014989101E+03  0.77297184658E+02 0.  0.
         24    2    4    4    0    0 -0.43239506119E+03 -0.35730443047E+03  0.13010299438E+04  0.14190421836E+04  0.79811397133E+02 0.  0.
         13    1    3    3    0    0  0.61217194040E+02  0.26463714402E+03  0.89514408022E+03  0.93544817451E+03  0.00000000000E+00 0. -1.
        -13    1    3    3    0    0  0.25774685209E+02  0.12095416267E+03  0.24048935543E+03  0.27042443296E+03  0.00000000000E+00 0.  1.
          2    1    6    6  502    0 -0.19770770452E+03 -0.20308773104E+03  0.71760766941E+03  0.77155280450E+03  0.00000000000E+00 0. -1.
          1    1    5    5  503    0  0.18893453714E+03 -0.60269342015E+01  0.12490876161E+03  0.22657180316E+03  0.00000000000E+00 0. -1.
         -2    1    5    5    0  503  0.15646864480E+03 -0.22259942021E+02  0.19830255877E+03  0.25357808785E+03  0.00000000000E+00 0.  1.
         -1    1    6    6    0  502 -0.23468735667E+03 -0.15421669942E+03  0.58342227442E+03  0.64748937911E+03  0.00000000000E+00 0.  1.
<mgrwt>
<rscale>  0 0.14228557E+04</rscale>
<asrwt>0</asrwt>
<pdfrwt beam="1">  1        2 0.26553078E-01 0.14228557E+04</pdfrwt>
<pdfrwt beam="2">  1       -2 0.45114915E+00 0.14228557E+04</pdfrwt>
<totfact> 0.68581388E-01</totfact>
</mgrwt>
</event>
<event>
12    1  0.1114484E-007  0.1340851E+04  0.7818608E-02  0.8997782E-01
          1   -1    0    0  501    0  0.00000000000E+00  0.00000000000E+00  0.69267580368E+03  0.69267580368E+03  0.00000000000E+00 0. -1.
         -1   -1    0    0    0  501 -0.00000000000E+00 -0.00000000000E+00 -0.64889034078E+03  0.64889034078E+03  0.00000000000E+00 0.  1.
         23    2    1    2    0    0  0.46117217747E+02 -0.24360491053E+03 -0.25244792140E+03  0.36550434426E+03  0.91615077618E+02 0.  0.
        254    2    1    2    0    0 -0.46117217747E+02  0.24360491053E+03  0.29623338431E+03  0.97606180020E+03  0.89636614708E+03 0.  0.
        -24    2    4    4    0    0 -0.20977016941E+03  0.15366531209E+03  0.57244372578E+03  0.63356569991E+03  0.78084087985E+02 0.  0.
         24    2    4    4    0    0  0.16365295167E+03  0.89939598447E+02 -0.27621034148E+03  0.34249610029E+03  0.78358190502E+02 0.  0.
         11    1    3    3    0    0 -0.21020986892E+02 -0.81994237131E+02 -0.11597652004E+03  0.14358095282E+03  0.00000000000E+00 0. -1.
        -11    1    3    3    0    0  0.67138204640E+02 -0.16161067340E+03 -0.13647140137E+03  0.22192339144E+03  0.00000000000E+00 0.  1.
          2    1    6    6  502    0  0.13151894327E+03  0.61448365413E+02 -0.25760874201E+03  0.29569477170E+03  0.00000000000E+00 0. -1.
          1    1    5    5  503    0 -0.21607504639E+03  0.14521678540E+03  0.54056217099E+03  0.59998650080E+03  0.00000000000E+00 0. -1.
         -2    1    5    5    0  503  0.63048769751E+01  0.84485266834E+01  0.31881554793E+02  0.33579199109E+02  0.00000000000E+00 0.  1.
         -1    1    6    6    0  502  0.32134008399E+02  0.28491233035E+02 -0.18601599472E+02  0.46801328598E+02  0.00000000000E+00 0.  1.
<mgrwt>
<rscale>  0 0.13408514E+04</rscale>
<asrwt>0</asrwt>
<pdfrwt beam="1">  1        1 0.10656551E+00 0.13408514E+04</pdfrwt>
<pdfrwt beam="2">  1       -1 0.99829283E-01 0.13408514E+04</pdfrwt>
<totfact> 0.25958869E+01</totfact>
</mgrwt>
</event>
<event>
12    1  0.1114484E-007  0.2113692E+04  0.7818608E-02  0.8555236E-01
          2   -1    0    0  501    0  0.00000000000E+00  0.00000000000E+00  0.55567290806E+03  0.55567290806E+03  0.00000000000E+00 0. -1.
         -2   -1    0    0    0  501 -0.00000000000E+00 -0.00000000000E+00 -0.20100380625E+04  0.20100380625E+04  0.00000000000E+00 0.  1.
         23    2    1    2    0    0 -0.29314286707E+03 -0.80091927374E+03 -0.49291244608E+03  0.98971980897E+03  0.95802908155E+02 0.  0.
        254    2    1    2    0    0  0.29314286707E+03  0.80091927374E+03 -0.96145270841E+03  0.15759911616E+04  0.91211425133E+03 0.  0.
        -24    2    4    4    0    0 -0.15888751426E+03  0.70887370119E+02 -0.61926805718E+03  0.64830429086E+03  0.80840988828E+02 0.  0.
         24    2    4    4    0    0  0.45203038133E+03  0.73003190362E+03 -0.34218465123E+03  0.92768687077E+03  0.78959158575E+02 0.  0.
         13    1    3    3    0    0 -0.23312377303E+02 -0.23357796149E+02 -0.33975997845E+02  0.47364776005E+02  0.00000000000E+00 0.  1.
        -13    1    3    3    0    0 -0.26983048976E+03 -0.77756147759E+03 -0.45893644823E+03  0.94235503296E+03  0.00000000000E+00 0. -1.
          2    1    6    6  502    0  0.97261721520E+02  0.16653447158E+03 -0.11272647066E+03  0.22338493657E+03  0.00000000000E+00 0. -1.
          1    1    5    5  503    0 -0.27061866618E+02  0.30099430846E+02 -0.60801000390E+02  0.73041645727E+02  0.00000000000E+00 0. -1.
         -2    1    5    5    0  503 -0.13182564764E+03  0.40787939274E+02 -0.55846705679E+03  0.57526264514E+03  0.00000000000E+00 0.  1.
         -1    1    6    6    0  502  0.35476865981E+03  0.56349743203E+03 -0.22945818057E+03  0.70430193420E+03  0.00000000000E+00 0.  1.
<mgrwt>
<rscale>  0 0.21136922E+04</rscale>
<asrwt>0</asrwt>
<pdfrwt beam="1">  1        2 0.85488140E-01 0.21136922E+04</pdfrwt>
<pdfrwt beam="2">  1       -2 0.30923662E+00 0.21136922E+04</pdfrwt>
<totfact> 0.13978159E+00</totfact>
</mgrwt>
</event>
<event>
12    1  0.1114484E-007  0.1362477E+04  0.7818608E-02  0.8981437E-01
          2   -1    0    0  501    0  0.00000000000E+00  0.00000000000E+00  0.19991011030E+04  0.19991011030E+04  0.00000000000E+00 0.  1.
         -2   -1    0    0    0  501 -0.00000000000E+00 -0.00000000000E+00 -0.23214713303E+03  0.23214713303E+03  0.00000000000E+00 0. -1.
         23    2    1    2    0    0 -0.18354511581E+03 -0.52976580543E+02  0.10381431998E+04  0.10595356861E+04  0.91538184559E+02 0.  0.
        254    2    1    2    0    0  0.18354511581E+03  0.52976580543E+02  0.72881077016E+03  0.11717125499E+04  0.89735713809E+03 0.  0.
        -24    2    4    4    0    0  0.15349993676E+03 -0.36847348510E+03  0.11581536395E+03  0.42309542070E+03  0.79130251353E+02 0.  0.
         24    2    4    4    0    0  0.30045179055E+02  0.42145006564E+03  0.61299540621E+03  0.74861712921E+03  0.78366877546E+02 0.  0.
         11    1    3    3    0    0 -0.58798545948E+01 -0.31413443746E+02  0.12510941295E+03  0.12912684595E+03  0.00000000000E+00 0. -1.
        -11    1    3    3    0    0 -0.17766526122E+03 -0.21563136797E+02  0.91303378685E+03  0.93040884016E+03  0.00000000000E+00 0.  1.
          4    1    6    6  502    0  0.52174494134E+02  0.32787021004E+03  0.44737222553E+03  0.55710228921E+03  0.00000000000E+00 0. -1.
          3    1    5    5  503    0  0.84805383270E+02 -0.24464153743E+03  0.38548185905E+02  0.26177738157E+03  0.00000000000E+00 0. -1.
         -4    1    5    5    0  503  0.68694553488E+02 -0.12383194767E+03  0.77267178042E+02  0.16131803912E+03  0.00000000000E+00 0.  1.
         -3    1    6    6    0  502 -0.22129315079E+02  0.93579855604E+02  0.16562318069E+03  0.19151484000E+03  0.00000000000E+00 0.  1.
<mgrwt>
<rscale>  0 0.13624766E+04</rscale>
<asrwt>0</asrwt>
<pdfrwt beam="1">  1        2 0.30755400E+00 0.13624766E+04</pdfrwt>
<pdfrwt beam="2">  1       -2 0.35714945E-01 0.13624766E+04</pdfrwt>
<totfact> 0.48138985E+01</totfact>
</mgrwt>
</event>
<event>
12    1  0.1114484E-007  0.1797162E+04  0.7818608E-02  0.8707810E-01
          1   -1    0    0  501    0  0.00000000000E+00  0.00000000000E+00  0.12870168714E+04  0.12870168714E+04  0.00000000000E+00 0. -1.
         -1   -1    0    0    0  501 -0.00000000000E+00 -0.00000000000E+00 -0.62737902630E+03  0.62737902630E+03  0.00000000000E+00 0.  1.
         23    2    1    2    0    0  0.46701193187E+03 -0.43360228305E+03  0.37432263393E+02  0.64485141230E+03  0.91219982617E+02 0.  0.
        254    2    1    2    0    0 -0.46701193187E+03  0.43360228305E+03  0.62220558172E+03  0.12695444854E+04  0.90470565938E+03 0.  0.
        -24    2    4    4    0    0  0.15955055530E+02 -0.21796563459E+03 -0.17608444911E+02  0.23351054630E+03  0.80333904675E+02 0.  0.
         24    2    4    4    0    0 -0.48296698740E+03  0.65156791765E+03  0.63981402664E+03  0.10360339391E+04  0.78781165774E+02 0.  0.
         13    1    3    3    0    0  0.63767746395E+02 -0.53222604683E+02  0.35954196976E+02  0.90507874849E+02  0.00000000000E+00 0.  1.
        -13    1    3    3    0    0  0.40324418547E+03 -0.38037967837E+03  0.14780664173E+01  0.55434353745E+03  0.00000000000E+00 0. -1.
          2    1    6    6  502    0 -0.35161009749E+02  0.89749014954E+02  0.78249268270E+02  0.12415365591E+03  0.00000000000E+00 0. -1.
          1    1    5    5  503    0 -0.22611727692E+02 -0.45794668523E+02 -0.25113525871E+02  0.56913364652E+02  0.00000000000E+00 0. -1.
         -2    1    5    5    0  503  0.38566783222E+02 -0.17217096607E+03  0.75050809598E+01  0.17659718165E+03  0.00000000000E+00 0.  1.
         -1    1    6    6    0  502 -0.44780597765E+03  0.56181890269E+03  0.56156475837E+03  0.91188028319E+03  0.00000000000E+00 0.  1.
<mgrwt>
<rscale>  0 0.17971615E+04</rscale>
<asrwt>0</asrwt>
<pdfrwt beam="1">  1        1 0.19800259E+00 0.17971615E+04</pdfrwt>
<pdfrwt beam="2">  1       -1 0.96519850E-01 0.17971615E+04</pdfrwt>
<totfact> 0.90118240E+00</totfact>
</mgrwt>
</event>
<event>
12    1  0.1114484E-007  0.1888061E+04  0.7818608E-02  0.8660822E-01
          2   -1    0    0  501    0  0.00000000000E+00  0.00000000000E+00  0.22707133868E+04  0.22707133868E+04  0.00000000000E+00 0. -1.
         -2   -1    0    0    0  501 -0.00000000000E+00 -0.00000000000E+00 -0.39247296003E+03  0.39247296003E+03  0.00000000000E+00 0.  1.
         23    2    1    2    0    0  0.19050724190E+03 -0.46041783300E+02  0.17158153934E+04  0.17293526098E+04  0.90692500963E+02 0.  0.
        254    2    1    2    0    0 -0.19050724190E+03  0.46041783300E+02  0.16242503334E+03  0.93383373701E+03  0.89847131389E+03 0.  0.
        -24    2    4    4    0    0 -0.52881243771E+03  0.13544282479E+03  0.16219809830E+03  0.57501820525E+03  0.79689147373E+02 0.  0.
         24    2    4    4    0    0  0.33830519581E+03 -0.89401041491E+02  0.22693504650E+00  0.35881553176E+03  0.79407698615E+02 0.  0.
         11    1    3    3    0    0  0.13326914958E+03 -0.13930813797E+02  0.14218586478E+04  0.14281585165E+04  0.00000000000E+00 0. -1.
        -11    1    3    3    0    0  0.57238092325E+02 -0.32110969503E+02  0.29395674562E+03  0.30119409335E+03  0.00000000000E+00 0.  1.
          2    1    6    6  502    0  0.84434904254E+02 -0.16925225639E+02 -0.34019347094E+02  0.92590670675E+02  0.00000000000E+00 0. -1.
          1    1    5    5  503    0 -0.30766440174E+03  0.47311119229E+02  0.11795256196E+03  0.33287915671E+03  0.00000000000E+00 0. -1.
         -2    1    5    5    0  503 -0.22114803598E+03  0.88131705563E+02  0.44245536334E+02  0.24213904854E+03  0.00000000000E+00 0.  1.
         -1    1    6    6    0  502  0.25387029156E+03 -0.72475815853E+02  0.34246282140E+02  0.26622486108E+03  0.00000000000E+00 0.  1.
<mgrwt>
<rscale>  0 0.18880610E+04</rscale>
<asrwt>0</asrwt>
<pdfrwt beam="1">  1        2 0.34934051E+00 0.18880610E+04</pdfrwt>
<pdfrwt beam="2">  1       -2 0.60380457E-01 0.18880610E+04</pdfrwt>
<totfact> 0.11287423E+01</totfact>
</mgrwt>
</event>
<event>
12    1  0.1114484E-007  0.1331303E+04  0.7818608E-02  0.9005103E-01
         -1   -1    0    0    0  501 -0.00000000000E+00  0.00000000000E+00  0.87476859445E+03  0.87476859445E+03  0.00000000000E+00 0.  1.
          1   -1    0    0  501    0  0.00000000000E+00 -0.00000000000E+00 -0.50652484095E+03  0.50652484095E+03  0.00000000000E+00 0. -1.
         23    2    1    2    0    0  0.11799451359E+02  0.67860145783E+02  0.45270402954E+03  0.46661274285E+03  0.89678799003E+02 0.  0.
        254    2    1    2    0    0 -0.11799451359E+02 -0.67860145783E+02 -0.84460276051E+02  0.91468069254E+03  0.90816463521E+03 0.  0.
        -24    2    4    4    0    0  0.19072224552E+03 -0.30306927258E+03 -0.34341657668E+03  0.50273264524E+03  0.81112320476E+02 0.  0.
         24    2    4    4    0    0 -0.20252169688E+03  0.23520912680E+03  0.25895630063E+03  0.41194804730E+03  0.79400610840E+02 0.  0.
         11    1    3    3    0    0 -0.28419342323E+02  0.51546437813E+02  0.15570807285E+03  0.16646230270E+03  0.00000000000E+00 0. -1.
        -11    1    3    3    0    0  0.40218793682E+02  0.16313707970E+02  0.29699595669E+03  0.30015044015E+03  0.00000000000E+00 0.  1.
          2    1    6    6  502    0 -0.13221693285E+03  0.95029097024E+02  0.14581549934E+03  0.21857265717E+03  0.00000000000E+00 0. -1.
          3    1    5    5  503    0 -0.66259016397E+01 -0.25173563110E+02 -0.29707459327E+02  0.39498658102E+02  0.00000000000E+00 0. -1.
         -4    1    5    5    0  503  0.19734814716E+03 -0.27789570947E+03 -0.31370911736E+03  0.46323398714E+03  0.00000000000E+00 0.  1.
         -1    1    6    6    0  502 -0.70304764036E+02  0.14018002977E+03  0.11314080129E+03  0.19337539013E+03  0.00000000000E+00 0.  1.
<mgrwt>
<rscale>  0 0.13313032E+04</rscale>
<asrwt>0</asrwt>
<pdfrwt beam="1">  1        1 0.77926899E-01 0.13313032E+04</pdfrwt>
<pdfrwt beam="2">  1       -1 0.13457978E+00 0.13313032E+04</pdfrwt>
<totfact> 0.19818970E+01</totfact>
</mgrwt>
</event>
<event>
12    1  0.1114484E-007  0.1506528E+04  0.7818608E-02  0.8880123E-01
         -2   -1    0    0    0  501 -0.00000000000E+00  0.00000000000E+00  0.69457875578E+03  0.69457875578E+03  0.00000000000E+00 0.  1.
          2   -1    0    0  501    0  0.00000000000E+00 -0.00000000000E+00 -0.81690795275E+03  0.81690795275E+03  0.00000000000E+00 0. -1.
         23    2    1    2    0    0 -0.63970292823E+01  0.24454233634E+03 -0.45008513944E+03  0.52073662571E+03  0.93531408416E+02 0.  0.
        254    2    1    2    0    0  0.63970292823E+01 -0.24454233634E+03  0.32775594247E+03  0.99075008283E+03  0.90239674897E+03 0.  0.
        -24    2    4    4    0    0 -0.59296560957E+02 -0.57696281009E+03  0.18992235096E+03  0.61524160165E+03  0.77778934393E+02 0.  0.
         24    2    4    4    0    0  0.65693590239E+02  0.33242047375E+03  0.13783359151E+03  0.37550848118E+03  0.84790927144E+02 0.  0.
         11    1    3    3    0    0 -0.35838419414E+01  0.51925747246E+02 -0.33857266321E+02  0.62092202673E+02  0.00000000000E+00 0.  1.
        -11    1    3    3    0    0 -0.28131873408E+01  0.19261658910E+03 -0.41622787312E+03  0.45864442303E+03  0.00000000000E+00 0. -1.
          2    1    6    6  502    0  0.30531005226E+02  0.42820414947E+02  0.45434463145E+02  0.69498350035E+02  0.00000000000E+00 0. -1.
          3    1    5    5  503    0 -0.91013795720E+01 -0.86836596195E+02  0.27616968634E+00  0.87312689905E+02  0.00000000000E+00 0. -1.
         -4    1    5    5    0  503 -0.50195181385E+02 -0.49012621389E+03  0.18964618127E+03  0.52792891174E+03  0.00000000000E+00 0.  1.
         -1    1    6    6    0  502  0.35162585014E+02  0.28960005880E+03  0.92399128369E+02  0.30601013115E+03  0.00000000000E+00 0.  1.
<mgrwt>
<rscale>  0 0.15065283E+04</rscale>
<asrwt>0</asrwt>
<pdfrwt beam="1">  1        2 0.12567815E+00 0.15065283E+04</pdfrwt>
<pdfrwt beam="2">  1       -2 0.10685827E+00 0.15065283E+04</pdfrwt>
<totfact> 0.22797675E+01</totfact>
</mgrwt>
</event>
<event>
12    1  0.1114484E-007  0.1495984E+04  0.7818608E-02  0.8887128E-01
         -1   -1    0    0    0  501 -0.00000000000E+00  0.00000000000E+00  0.36194717305E+03  0.36194717305E+03  0.00000000000E+00 0.  1.
          1   -1    0    0  501    0  0.00000000000E+00 -0.00000000000E+00 -0.15457846513E+04  0.15457846513E+04  0.00000000000E+00 0. -1.
         23    2    1    2    0    0 -0.33554218998E+03 -0.15986204840E+03 -0.74773897818E+03  0.83975009420E+03  0.89006771965E+02 0.  0.
        254    2    1    2    0    0  0.33554218998E+03  0.15986204840E+03 -0.43609850009E+03  0.10679817302E+04  0.90125392561E+03 0.  0.
        -24    2    4    4    0    0  0.84415946804E+02 -0.19889895286E+03 -0.56060429741E+03  0.60596566904E+03  0.78932681824E+02 0.  0.
         24    2    4    4    0    0  0.25112624317E+03  0.35876100126E+03  0.12450579732E+03  0.46201606113E+03  0.78633969371E+02 0.  0.
         11    1    3    3    0    0 -0.20909438580E+03 -0.10175645984E+03 -0.36798632361E+03  0.43530308253E+03  0.00000000000E+00 0. -1.
        -11    1    3    3    0    0 -0.12644780417E+03 -0.58105588551E+02 -0.37975265456E+03  0.40444701167E+03  0.00000000000E+00 0.  1.
          2    1    6    6  502    0 -0.12085122045E+01  0.14447761000E+02  0.15944251287E+02  0.21550346836E+02  0.00000000000E+00 0. -1.
          1    1    5    5  503    0  0.68758119385E+02 -0.12794275035E+03 -0.27197244759E+03  0.30832781029E+03  0.00000000000E+00 0. -1.
         -2    1    5    5    0  503  0.15657827418E+02 -0.70956202513E+02 -0.28863184982E+03  0.29763785875E+03  0.00000000000E+00 0.  1.
         -1    1    6    6    0  502  0.25233475538E+03  0.34431324026E+03  0.10856154603E+03  0.44046571429E+03  0.00000000000E+00 0.  1.
<mgrwt>
<rscale>  0 0.14959845E+04</rscale>
<asrwt>0</asrwt>
<pdfrwt beam="1">  1        1 0.23781302E+00 0.14959845E+04</pdfrwt>
<pdfrwt beam="2">  1       -1 0.55684181E-01 0.14959845E+04</pdfrwt>
<totfact> 0.19192725E+01</totfact>
</mgrwt>
</event>
<event>
12    1  0.1114484E-007  0.3130969E+04  0.7818608E-02  0.8207290E-01
         -1   -1    0    0    0  501 -0.00000000000E+00  0.00000000000E+00  0.81316904571E+03  0.81316904571E+03  0.00000000000E+00 0.  1.
          1   -1    0    0  501    0  0.00000000000E+00 -0.00000000000E+00 -0.30138157933E+04  0.30138157933E+04  0.00000000000E+00 0. -1.
         23    2    1    2    0    0 -0.23491804448E+02  0.24984506556E+03  0.71658954686E+03  0.76442643132E+03  0.88728623113E+02 0.  0.
        254    2    1    2    0    0  0.23491804448E+02 -0.24984506556E+03 -0.29172362944E+04  0.30625584076E+04  0.89778726942E+03 0.  0.
        -24    2    4    4    0    0 -0.35937671061E+02 -0.67184372342E+02  0.25567734651E+02  0.11241962696E+03  0.78607934597E+02 0.  0.
         24    2    4    4    0    0  0.59429475509E+02 -0.18266069321E+03 -0.29428040291E+04  0.29501387807E+04  0.79539175513E+02 0.  0.
         11    1    3    3    0    0 -0.18083298398E+02  0.17859332426E+03  0.37904970751E+03  0.41940584392E+03  0.00000000000E+00 0.  1.
        -11    1    3    3    0    0 -0.54085060496E+01  0.71251741299E+02  0.33753983936E+03  0.34502058740E+03  0.00000000000E+00 0. -1.
          4    1    6    6  502    0  0.30222579283E+02 -0.10704075803E+02 -0.59622449677E+03  0.59708595034E+03  0.00000000000E+00 0. -1.
          3    1    5    5  503    0 -0.71522141140E+01  0.16218131434E+02  0.15628729569E+02  0.23631316973E+02  0.00000000000E+00 0. -1.
         -4    1    5    5    0  503 -0.28785456947E+02 -0.83402503776E+02  0.99390050826E+01  0.88788309984E+02  0.00000000000E+00 0.  1.
         -3    1    6    6    0  502  0.29206896225E+02 -0.17195661741E+03 -0.23465795323E+04  0.23530528304E+04  0.00000000000E+00 0.  1.
<mgrwt>
<rscale>  0 0.31309690E+04</rscale>
<asrwt>0</asrwt>
<pdfrwt beam="1">  1        1 0.46366396E+00 0.31309690E+04</pdfrwt>
<pdfrwt beam="2">  1       -1 0.12510293E+00 0.31309690E+04</pdfrwt>
<totfact> 0.27426322E-01</totfact>
</mgrwt>
</event>
<event>
12    1  0.1114484E-007  0.1483010E+04  0.7818608E-02  0.8895830E-01
         -2   -1    0    0    0  501 -0.00000000000E+00  0.00000000000E+00  0.69514609845E+03  0.69514609845E+03  0.00000000000E+00 0.  1.
          2   -1    0    0  501    0  0.00000000000E+00 -0.00000000000E+00 -0.79095535300E+03  0.79095535300E+03  0.00000000000E+00 0. -1.
         23    2    1    2    0    0  0.35619306351E+03  0.29494034185E+03 -0.12299908248E+00  0.47139130083E+03  0.91358850849E+02 0.  0.
        254    2    1    2    0    0 -0.35619306351E+03 -0.29494034185E+03 -0.95686255474E+02  0.10147101506E+04  0.89811888219E+03 0.  0.
        -24    2    4    4    0    0 -0.43904761964E+03 -0.40303016394E+03  0.23674701156E+03  0.64624330898E+03  0.79907080765E+02 0.  0.
         24    2    4    4    0    0  0.82854556126E+02  0.10808982209E+03 -0.33243326704E+03  0.36846684164E+03  0.81900239613E+02 0.  0.
         11    1    3    3    0    0  0.97755704863E+02  0.11719017136E+03 -0.32593022813E+02  0.15605133525E+03  0.00000000000E+00 0. -1.
        -11    1    3    3    0    0  0.25843735865E+03  0.17775017049E+03  0.32470023731E+02  0.31533996559E+03  0.00000000000E+00 0.  1.
          4    1    6    6  502    0  0.42396729196E+02  0.10624256337E+03 -0.27804429805E+03  0.30065527868E+03  0.00000000000E+00 0. -1.
          1    1    5    5  503    0 -0.36434228059E+03 -0.36592847173E+03  0.21934706528E+03  0.56103661102E+03  0.00000000000E+00 0. -1.
         -2    1    5    5    0  503 -0.74705339045E+02 -0.37101692203E+02  0.17399946280E+02  0.85206697957E+02  0.00000000000E+00 0.  1.
         -3    1    6    6    0  502  0.40457826929E+02  0.18472587194E+01 -0.54388968983E+02  0.67811562965E+02  0.00000000000E+00 0.  1.
<mgrwt>
<rscale>  0 0.14830098E+04</rscale>
<asrwt>0</asrwt>
<pdfrwt beam="1">  1        2 0.12168544E+00 0.14830098E+04</pdfrwt>
<pdfrwt beam="2">  1       -2 0.10694555E+00 0.14830098E+04</pdfrwt>
<totfact> 0.23797166E+01</totfact>
</mgrwt>
</event>
<event>
12    1  0.1114484E-007  0.2959369E+04  0.7818608E-02  0.8255429E-01
          1   -1    0    0  501    0  0.00000000000E+00  0.00000000000E+00  0.21674153618E+04  0.21674153618E+04  0.00000000000E+00 0. -1.
         -1   -1    0    0    0  501 -0.00000000000E+00 -0.00000000000E+00 -0.10101741063E+04  0.10101741063E+04  0.00000000000E+00 0.  1.
         23    2    1    2    0    0  0.80026487084E+03 -0.50770061185E+03 -0.48595598008E+03  0.10685716964E+04  0.86651492149E+02 0.  0.
        254    2    1    2    0    0 -0.80026487084E+03  0.50770061185E+03  0.16431972356E+04  0.21090177717E+04  0.92177818998E+03 0.  0.
        -24    2    4    4    0    0 -0.52591299899E+02 -0.16880069696E+03  0.69869721941E+03  0.72513210552E+03  0.79870181736E+02 0.  0.
         24    2    4    4    0    0 -0.74767357094E+03  0.67650130881E+03  0.94450001615E+03  0.13838856662E+04  0.79934141553E+02 0.  0.
         11    1    3    3    0    0  0.80849067966E+02 -0.22617533933E+02 -0.45928556539E+02  0.95695124944E+02  0.00000000000E+00 0. -1.
        -11    1    3    3    0    0  0.71941580287E+03 -0.48508307791E+03 -0.44002742354E+03  0.97287657150E+03  0.00000000000E+00 0.  1.
          4    1    6    6  502    0 -0.63775539131E+03  0.55200131418E+03  0.75629682443E+03  0.11328822872E+04  0.00000000000E+00 0. -1.
          1    1    5    5  503    0 -0.14745089451E+02 -0.89074351211E+02  0.49457317773E+03  0.50274674125E+03  0.00000000000E+00 0. -1.
         -2    1    5    5    0  503 -0.37846210448E+02 -0.79726345748E+02  0.20412404168E+03  0.22238536427E+03  0.00000000000E+00 0.  1.
         -3    1    6    6    0  502 -0.10991817962E+03  0.12449999462E+03  0.18820319172E+03  0.25100337895E+03  0.00000000000E+00 0.  1.
<mgrwt>
<rscale>  0 0.29593694E+04</rscale>
<asrwt>0</asrwt>
<pdfrwt beam="1">  1        1 0.33344852E+00 0.29593694E+04</pdfrwt>
<pdfrwt beam="2">  1       -1 0.15541140E+00 0.29593694E+04</pdfrwt>
<totfact> 0.62027793E-01</totfact>
</mgrwt>
</event>
<event>
12    1  0.1114484E-007  0.2541815E+04  0.7818608E-02  0.8388238E-01
          2   -1    0    0  501    0  0.00000000000E+00  0.00000000000E+00  0.22478312681E+04  0.22478312681E+04  0.00000000000E+00 0.  1.
         -2   -1    0    0    0  501 -0.00000000000E+00 -0.00000000000E+00 -0.71856179676E+03  0.71856179676E+03  0.00000000000E+00 0. -1.
         23    2    1    2    0    0  0.35645622090E+03  0.51989061584E+03 -0.39215299449E+03  0.74854227962E+03  0.95834667187E+02 0.  0.
        254    2    1    2    0    0 -0.35645622090E+03 -0.51989061584E+03  0.19214224658E+04  0.22178507852E+04  0.91085153757E+03 0.  0.
        -24    2    4    4    0    0 -0.31049235473E+03  0.19553733079E+03  0.51644933742E+03  0.63845869560E+03  0.79178518470E+02 0.  0.
         24    2    4    4    0    0 -0.45963866173E+02 -0.71542794663E+03  0.14049731284E+04  0.15793920896E+04  0.81117553067E+02 0.  0.
         13    1    3    3    0    0  0.28377154236E+03  0.45638249690E+03 -0.35983047656E+03  0.64675284583E+03  0.00000000000E+00 0. -1.
        -13    1    3    3    0    0  0.72684678540E+02  0.63508118938E+02 -0.32322517932E+02  0.10178943379E+03  0.00000000000E+00 0.  1.
          4    1    6    6  502    0 -0.48679541865E+02 -0.50510046731E+03  0.10629886461E+04  0.11778968723E+04  0.00000000000E+00 0. -1.
          1    1    5    5  503    0 -0.70250393016E+02  0.51570631737E+02  0.71618954496E+02  0.11280036534E+03  0.00000000000E+00 0. -1.
         -2    1    5    5    0  503 -0.24024196172E+03  0.14396669905E+03  0.44483038292E+03  0.52565833026E+03  0.00000000000E+00 0.  1.
         -3    1    6    6    0  502  0.27156756920E+01 -0.21032747932E+03  0.34198448227E+03  0.40149521736E+03  0.00000000000E+00 0.  1.
<mgrwt>
<rscale>  0 0.25418148E+04</rscale>
<asrwt>0</asrwt>
<pdfrwt beam="1">  1        2 0.34582019E+00 0.25418148E+04</pdfrwt>
<pdfrwt beam="2">  1       -2 0.11054797E+00 0.25418148E+04</pdfrwt>
<totfact> 0.27995580E+00</totfact>
</mgrwt>
</event>
<event>
12    1  0.1114484E-007  0.2312272E+04  0.7818608E-02  0.8473098E-01
         -2   -1    0    0    0  501 -0.00000000000E+00  0.00000000000E+00  0.10634926642E+04  0.10634926642E+04  0.00000000000E+00 0.  1.
          2   -1    0    0  501    0  0.00000000000E+00 -0.00000000000E+00 -0.12568500165E+04  0.12568500165E+04  0.00000000000E+00 0. -1.
         23    2    1    2    0    0  0.86917764767E+03  0.27565901518E+03  0.27219719692E+03  0.95602436278E+03  0.91834592365E+02 0.  0.
        254    2    1    2    0    0 -0.86917764767E+03 -0.27565901518E+03 -0.46555454920E+03  0.13643183179E+04  0.90175703964E+03 0.  0.
        -24    2    4    4    0    0 -0.19646058724E+03  0.30537770664E+03 -0.24265342047E+03  0.44350258166E+03  0.77211083572E+02 0.  0.
         24    2    4    4    0    0 -0.67271706043E+03 -0.58103672182E+03 -0.22290112873E+03  0.92081573628E+03  0.89804184217E+02 0.  0.
         13    1    3    3    0    0  0.19849290078E+03  0.80573793873E+02  0.10115935781E+03  0.23690669807E+03  0.00000000000E+00 0. -1.
        -13    1    3    3    0    0  0.67068474689E+03  0.19508522131E+03  0.17103783911E+03  0.71911766471E+03  0.00000000000E+00 0.  1.
          2    1    6    6  502    0 -0.54050648626E+03 -0.45361593600E+03 -0.14015962989E+03  0.71941601381E+03  0.00000000000E+00 0. -1.
          1    1    5    5  503    0 -0.83283909021E+02  0.15810656967E+03 -0.16130038268E+03  0.24073161472E+03  0.00000000000E+00 0. -1.
         -2    1    5    5    0  503 -0.11317667822E+03  0.14727113697E+03 -0.81353037794E+02  0.20277096694E+03  0.00000000000E+00 0.  1.
         -1    1    6    6    0  502 -0.13221057418E+03 -0.12742078582E+03 -0.82741498833E+02  0.20139972247E+03  0.00000000000E+00 0.  1.
<mgrwt>
<rscale>  0 0.23122723E+04</rscale>
<asrwt>0</asrwt>
<pdfrwt beam="1">  1        2 0.19336154E+00 0.23122723E+04</pdfrwt>
<pdfrwt beam="2">  1       -2 0.16361426E+00 0.23122723E+04</pdfrwt>
<totfact> 0.37610976E+00</totfact>
</mgrwt>
</event>
<event>
12    1  0.1159196E-007  0.1342316E+04  0.7818608E-02  0.8996665E-01
          2   -1    0    0  501    0  0.00000000000E+00  0.00000000000E+00  0.18033511805E+04  0.18033511805E+04  0.00000000000E+00 0. -1.
         -2   -1    0    0    0  501 -0.00000000000E+00 -0.00000000000E+00 -0.24978658491E+03  0.24978658491E+03  0.00000000000E+00 0.  1.
         23    2    1    2    0    0  0.32124874380E+01  0.28059216927E+03  0.77790703938E+03  0.83126661739E+03  0.84395152326E+02 0.  0.
        254    2    1    2    0    0 -0.32124874380E+01 -0.28059216927E+03  0.77565755618E+03  0.12218711480E+04  0.90143339872E+03 0.  0.
        -24    2    4    4    0    0  0.32673005213E+03  0.17176966321E+03  0.29880013977E+03  0.48163688914E+03  0.80219855961E+02 0.  0.
         24    2    4    4    0    0 -0.32994253957E+03 -0.45236183248E+03  0.47685741641E+03  0.74023425886E+03  0.84026516665E+02 0.  0.
         11    1    3    3    0    0  0.80421624492E+01  0.62981132090E+01  0.55288885154E+01  0.11615128715E+02  0.00000000000E+00 0.  1.
        -11    1    3    3    0    0 -0.48296750112E+01  0.27429405606E+03  0.77237815087E+03  0.81965148868E+03  0.00000000000E+00 0. -1.
          4    1    6    6  502    0 -0.32853390389E+03 -0.45436290331E+03  0.46588354854E+03  0.72899084679E+03  0.00000000000E+00 0. -1.
          1    1    5    5  503    0  0.23389585726E+03  0.11760001347E+03  0.25534450192E+03  0.36570185927E+03  0.00000000000E+00 0. -1.
         -2    1    5    5    0  503  0.92834194876E+02  0.54169649745E+02  0.43455637849E+02  0.11593502988E+03  0.00000000000E+00 0.  1.
         -3    1    6    6    0  502 -0.14086356826E+01  0.20010708290E+01  0.10973867864E+02  0.11243412064E+02  0.00000000000E+00 0.  1.
<mgrwt>
<rscale>  0 0.13423158E+04</rscale>
<asrwt>0</asrwt>
<pdfrwt beam="1">  1        2 0.27743863E+00 0.13423158E+04</pdfrwt>
<pdfrwt beam="2">  1       -2 0.38428707E-01 0.13423158E+04</pdfrwt>
<totfact> 0.53709578E+01</totfact>
</mgrwt>
</event>
<event>
12    1  0.1114484E-007  0.1281421E+04  0.7818608E-02  0.9044430E-01
          1   -1    0    0  501    0  0.00000000000E+00  0.00000000000E+00  0.99855455419E+03  0.99855455419E+03  0.00000000000E+00 0. -1.
         -1   -1    0    0    0  501 -0.00000000000E+00 -0.00000000000E+00 -0.41110401130E+03  0.41110401130E+03  0.00000000000E+00 0.  1.
         23    2    1    2    0    0 -0.30525135269E+03 -0.65012183812E+02  0.26740192745E+03  0.42025614419E+03  0.87786465730E+02 0.  0.
        254    2    1    2    0    0  0.30525135269E+03  0.65012183812E+02  0.32004861544E+03  0.98940242130E+03  0.88265568749E+03 0.  0.
        -24    2    4    4    0    0 -0.15182076003E+03 -0.73519182274E+02 -0.20378664797E+03  0.27613535523E+03  0.79165163933E+02 0.  0.
         24    2    4    4    0    0  0.45707211272E+03  0.13853136609E+03  0.52383526341E+03  0.71326706606E+03  0.78997903289E+02 0.  0.
         11    1    3    3    0    0 -0.15927526456E+03 -0.19982759452E+02  0.19085856946E+03  0.24938908179E+03  0.00000000000E+00 0. -1.
        -11    1    3    3    0    0 -0.14597608813E+03 -0.45029424360E+02  0.76543357983E+02  0.17086706241E+03  0.00000000000E+00 0.  1.
          4    1    6    6  502    0  0.40140023622E+03  0.14575408485E+03  0.47627274913E+03  0.63968909202E+03  0.00000000000E+00 0. -1.
          1    1    5    5  503    0 -0.11030328691E+03 -0.79572398342E+02 -0.11568821043E+03  0.17855627604E+03  0.00000000000E+00 0. -1.
         -2    1    5    5    0  503 -0.41517473128E+02  0.60532160683E+01 -0.88098437544E+02  0.97579079199E+02  0.00000000000E+00 0.  1.
         -3    1    6    6    0  502  0.55671876502E+02 -0.72227187650E+01  0.47562514275E+02  0.73577974039E+02  0.00000000000E+00 0.  1.
<mgrwt>
<rscale>  0 0.12814207E+04</rscale>
<asrwt>0</asrwt>
<pdfrwt beam="1">  1        1 0.15362378E+00 0.12814207E+04</pdfrwt>
<pdfrwt beam="2">  1       -1 0.63246771E-01 0.12814207E+04</pdfrwt>
<totfact> 0.37847514E+01</totfact>
</mgrwt>
</event>
<event>
12    1  0.1114484E-007  0.2910624E+04  0.7818608E-02  0.8269724E-01
          2   -1    0    0  501    0  0.00000000000E+00  0.00000000000E+00  0.44898500726E+04  0.44898500726E+04  0.00000000000E+00 0. -1.
         -2   -1    0    0    0  501 -0.00000000000E+00 -0.00000000000E+00 -0.47171567240E+03  0.47171567240E+03  0.00000000000E+00 0.  1.
         23    2    1    2    0    0  0.12124036603E+04 -0.47937449740E+03  0.21242619219E+04  0.24941127078E+04  0.91580248372E+02 0.  0.
        254    2    1    2    0    0 -0.12124036603E+04  0.47937449740E+03  0.18938724783E+04  0.24674530372E+04  0.89546020717E+03 0.  0.
        -24    2    4    4    0    0 -0.10244277608E+04  0.23592646746E+03  0.78537535347E+03  0.13142795085E+04  0.73502689514E+02 0.  0.
         24    2    4    4    0    0 -0.18797589949E+03  0.24344802994E+03  0.11084971248E+04  0.11531735288E+04  0.80258517499E+02 0.  0.
         13    1    3    3    0    0  0.39017515009E+03 -0.16175445239E+03  0.60921804908E+03  0.74131490066E+03  0.00000000000E+00 0. -1.
        -13    1    3    3    0    0  0.82222851022E+03 -0.31762004500E+03  0.15150438728E+04  0.17527978071E+04  0.00000000000E+00 0.  1.
          2    1    6    6  502    0 -0.13278641873E+03  0.16435627721E+03  0.88279900257E+03  0.90773305426E+03  0.00000000000E+00 0. -1.
          1    1    5    5  503    0 -0.10155768582E+04  0.23156100551E+03  0.78515190267E+03  0.13044080513E+04  0.00000000000E+00 0. -1.
         -2    1    5    5    0  503 -0.88509026525E+01  0.43654619483E+01  0.22345080100E+00  0.98714571390E+01  0.00000000000E+00 0.  1.
         -3    1    6    6    0  502 -0.55189480758E+02  0.79091752726E+02  0.22569812224E+03  0.24544047449E+03  0.00000000000E+00 0.  1.
<mgrwt>
<rscale>  0 0.29106237E+04</rscale>
<asrwt>0</asrwt>
<pdfrwt beam="1">  1        2 0.69074613E+00 0.29106237E+04</pdfrwt>
<pdfrwt beam="2">  1       -2 0.72571645E-01 0.29106237E+04</pdfrwt>
<totfact> 0.18651212E-01</totfact>
</mgrwt>
</event>
<event>
12    1  0.1114484E-007  0.1390020E+04  0.7818608E-02  0.8961075E-01
         -2   -1    0    0    0  501 -0.00000000000E+00  0.00000000000E+00  0.56462236742E+03  0.56462236742E+03  0.00000000000E+00 0. -1.
          2   -1    0    0  501    0  0.00000000000E+00 -0.00000000000E+00 -0.85550741320E+03  0.85550741320E+03  0.00000000000E+00 0.  1.
         23    2    1    2    0    0  0.63717341533E+02 -0.33063383190E+03  0.12513263170E+03  0.37017793729E+03  0.89414200943E+02 0.  0.
        254    2    1    2    0    0 -0.63717341533E+02  0.33063383190E+03 -0.41601767748E+03  0.10499518433E+04  0.90329924994E+03 0.  0.
        -24    2    4    4    0    0  0.44965676996E+01  0.50166575190E+03 -0.59384626634E+03  0.78163101605E+03  0.81270606395E+02 0.  0.
         24    2    4    4    0    0 -0.68213909232E+02 -0.17103191999E+03  0.17782858885E+03  0.26832082728E+03  0.80423903602E+02 0.  0.
         13    1    3    3    0    0  0.19064044164E+02 -0.27649424422E+03  0.88029278515E+02  0.29079487400E+03  0.00000000000E+00 0. -1.
        -13    1    3    3    0    0  0.44653297369E+02 -0.54139587683E+02  0.37103353190E+02  0.79383063296E+02  0.00000000000E+00 0.  1.
          4    1    6    6  502    0 -0.33728740204E+02 -0.55201172401E+02  0.11539749186E+03  0.13229277561E+03  0.00000000000E+00 0. -1.
          1    1    5    5  503    0  0.21531464544E+02  0.39388359615E+02 -0.65299971647E+02  0.79240981416E+02  0.00000000000E+00 0. -1.
         -2    1    5    5    0  503 -0.17034896844E+02  0.46227739228E+03 -0.52854629469E+03  0.70239003464E+03  0.00000000000E+00 0.  1.
         -1    1    6    6    0  502 -0.34485169029E+02 -0.11583074759E+03  0.62431096993E+02  0.13602805168E+03  0.00000000000E+00 0.  1.
<mgrwt>
<rscale>  0 0.13900196E+04</rscale>
<asrwt>0</asrwt>
<pdfrwt beam="1">  1        2 0.13161653E+00 0.13900196E+04</pdfrwt>
<pdfrwt beam="2">  1       -2 0.86864979E-01 0.13900196E+04</pdfrwt>
<totfact> 0.35145266E+01</totfact>
</mgrwt>
</event>
<event>
12    1  0.1114484E-007  0.1227769E+04  0.7818608E-02  0.9088891E-01
         -1   -1    0    0    0  501 -0.00000000000E+00  0.00000000000E+00  0.25907291334E+03  0.25907291334E+03  0.00000000000E+00 0.  1.
          1   -1    0    0  501    0  0.00000000000E+00 -0.00000000000E+00 -0.14546270962E+04  0.14546270962E+04  0.00000000000E+00 0. -1.
         23    2    1    2    0    0  0.24718056840E+03 -0.31196820540E+02 -0.40865810615E+03  0.48637136050E+03  0.86511141396E+02 0.  0.
        254    2    1    2    0    0 -0.24718056840E+03  0.31196820540E+02 -0.78689607670E+03  0.12273286490E+04  0.90832742014E+03 0.  0.
        -24    2    4    4    0    0 -0.53076783576E+03  0.80420410089E+02 -0.75265312212E+03  0.92789091534E+03  0.79453701627E+02 0.  0.
         24    2    4    4    0    0  0.28358726736E+03 -0.49223589549E+02 -0.34242954582E+02  0.29943773368E+03  0.75137716478E+02 0.  0.
         13    1    3    3    0    0  0.88271653125E+02 -0.11036990680E+02 -0.22900800731E+03  0.24567939946E+03  0.00000000000E+00 0. -1.
        -13    1    3    3    0    0  0.15890891528E+03 -0.20159829860E+02 -0.17965009884E+03  0.24069196104E+03  0.00000000000E+00 0.  1.
          4    1    6    6  502    0  0.15523657508E+03 -0.64647943560E+02 -0.21770619081E+02  0.16956329410E+03  0.00000000000E+00 0. -1.
          3    1    5    5  503    0 -0.83236972566E+02  0.39069156817E+02 -0.10498667161E+03  0.13956000084E+03  0.00000000000E+00 0. -1.
         -2    1    5    5    0  503 -0.44753086319E+03  0.41351253273E+02 -0.64766645051E+03  0.78833091451E+03  0.00000000000E+00 0.  1.
         -3    1    6    6    0  502  0.12835069228E+03  0.15424354011E+02 -0.12472335501E+02  0.12987443959E+03  0.00000000000E+00 0.  1.
<mgrwt>
<rscale>  0 0.12277695E+04</rscale>
<asrwt>0</asrwt>
<pdfrwt beam="1">  1        1 0.22378878E+00 0.12277695E+04</pdfrwt>
<pdfrwt beam="2">  1       -1 0.39857372E-01 0.12277695E+04</pdfrwt>
<totfact> 0.42591148E+01</totfact>
</mgrwt>
</event>
<event>
12    1  0.1114484E-007  0.2566540E+04  0.7818608E-02  0.8379656E-01
          2   -1    0    0  501    0  0.00000000000E+00  0.00000000000E+00  0.14508633243E+04  0.14508633243E+04  0.00000000000E+00 0. -1.
         -2   -1    0    0    0  501 -0.00000000000E+00 -0.00000000000E+00 -0.11350360164E+04  0.11350360164E+04  0.00000000000E+00 0.  1.
         23    2    1    2    0    0 -0.87305986460E+03 -0.62420607662E+03 -0.18591799524E+03  0.10929117515E+04  0.89575902819E+02 0.  0.
        254    2    1    2    0    0  0.87305986460E+03  0.62420607662E+03  0.50174530316E+03  0.14929875892E+04  0.90851353257E+03 0.  0.
        -24    2    4    4    0    0  0.80144843693E+03  0.50407412072E+03  0.74044955197E+03  0.12048805129E+04  0.84030917206E+02 0.  0.
         24    2    4    4    0    0  0.71611427673E+02  0.12013195590E+03 -0.23870424882E+03  0.28810707628E+03  0.80411974221E+02 0.  0.
         11    1    3    3    0    0 -0.33094318388E+03 -0.25751623423E+03 -0.11357931973E+03  0.43444017277E+03  0.00000000000E+00 0. -1.
        -11    1    3    3    0    0 -0.54211668072E+03 -0.36668984239E+03 -0.72338675508E+02  0.65847157874E+03  0.00000000000E+00 0.  1.
          2    1    6    6  502    0 -0.49432939830E+00  0.65616569829E+02 -0.13785497164E+03  0.15267538048E+03  0.00000000000E+00 0. -1.
          3    1    5    5  503    0  0.45940137242E+03  0.23951099856E+03  0.40356816384E+03  0.65672094704E+03  0.00000000000E+00 0. -1.
         -4    1    5    5    0  503  0.34204706451E+03  0.26456312216E+03  0.33688138814E+03  0.54815956584E+03  0.00000000000E+00 0.  1.
         -1    1    6    6    0  502  0.72105757071E+02  0.54515386070E+02 -0.10084927717E+03  0.13543169580E+03  0.00000000000E+00 0.  1.
<mgrwt>
<rscale>  0 0.25665402E+04</rscale>
<asrwt>0</asrwt>
<pdfrwt beam="1">  1        2 0.22320974E+00 0.25665402E+04</pdfrwt>
<pdfrwt beam="2">  1       -2 0.17462093E+00 0.25665402E+04</pdfrwt>
<totfact> 0.23736549E+00</totfact>
</mgrwt>
</event>
<event>
12    1  0.1114484E-007  0.2066705E+04  0.7818608E-02  0.8576053E-01
         -2   -1    0    0    0  501 -0.00000000000E+00  0.00000000000E+00  0.86312401548E+03  0.86312401548E+03  0.00000000000E+00 0. -1.
          2   -1    0    0  501    0  0.00000000000E+00 -0.00000000000E+00 -0.12371546574E+04  0.12371546574E+04  0.00000000000E+00 0.  1.
         23    2    1    2    0    0 -0.28166464654E+03 -0.74783592224E+03  0.86751542352E+02  0.80865171136E+03  0.88307533508E+02 0.  0.
        254    2    1    2    0    0  0.28166464654E+03  0.74783592224E+03 -0.46078218423E+03  0.12916269615E+04  0.90409426867E+03 0.  0.
        -24    2    4    4    0    0  0.28522108784E+03  0.71696236686E+03  0.46858732531E+02  0.77698281002E+03  0.78233252633E+02 0.  0.
         24    2    4    4    0    0 -0.35564413080E+01  0.30873555386E+02 -0.50764091677E+03  0.51464415147E+03  0.78698650381E+02 0.  0.
         13    1    3    3    0    0 -0.17361836281E+03 -0.51209752365E+03  0.21047175059E+02  0.54113786895E+03  0.00000000000E+00 0.  1.
        -13    1    3    3    0    0 -0.10804628372E+03 -0.23573839860E+03  0.65704367293E+02  0.26751384241E+03  0.00000000000E+00 0. -1.
          4    1    6    6  502    0 -0.21795148903E+02  0.44887472511E+02 -0.19949024726E+03  0.20563626250E+03  0.00000000000E+00 0. -1.
          1    1    5    5  503    0  0.13143573073E+03  0.23353214144E+03  0.61262053399E+01  0.26804876942E+03  0.00000000000E+00 0. -1.
         -2    1    5    5    0  503  0.15378535712E+03  0.48343022542E+03  0.40732527191E+02  0.50893404060E+03  0.00000000000E+00 0.  1.
         -3    1    6    6    0  502  0.18238707595E+02 -0.14013917126E+02 -0.30815066951E+03  0.30900788897E+03  0.00000000000E+00 0.  1.
<mgrwt>
<rscale>  0 0.20667055E+04</rscale>
<asrwt>0</asrwt>
<pdfrwt beam="1">  1        2 0.19033149E+00 0.20667055E+04</pdfrwt>
<pdfrwt beam="2">  1       -2 0.13278831E+00 0.20667055E+04</pdfrwt>
<totfact> 0.68454851E+00</totfact>
</mgrwt>
</event>
<event>
12    1  0.1114484E-007  0.2274357E+04  0.7818608E-02  0.8488101E-01
          1   -1    0    0  501    0  0.00000000000E+00  0.00000000000E+00  0.21109419105E+04  0.21109419105E+04  0.00000000000E+00 0. -1.
         -1   -1    0    0    0  501 -0.00000000000E+00 -0.00000000000E+00 -0.61260548392E+03  0.61260548392E+03  0.00000000000E+00 0.  1.
         23    2    1    2    0    0  0.43474266408E+03 -0.90980602707E+02  0.16409815511E+04  0.17025127425E+04  0.91926781385E+02 0.  0.
        254    2    1    2    0    0 -0.43474266408E+03  0.90980602707E+02 -0.14264512454E+03  0.10210346519E+04  0.90823206002E+03 0.  0.
        -24    2    4    4    0    0 -0.56542721874E+03 -0.95016785734E+02  0.19075606917E+03  0.60949638911E+03  0.79761150654E+02 0.  0.
         24    2    4    4    0    0  0.13068455465E+03  0.18599738844E+03 -0.33340119371E+03  0.41153826282E+03  0.80832570573E+02 0.  0.
         11    1    3    3    0    0  0.41736237511E+03 -0.92835127603E+02  0.16185739537E+04  0.16740941899E+04  0.00000000000E+00 0. -1.
        -11    1    3    3    0    0  0.17380288978E+02  0.18545248960E+01  0.22407597351E+02  0.28418552508E+02  0.00000000000E+00 0.  1.
          2    1    6    6  502    0  0.87783330839E+02  0.10606288260E+03 -0.13238984992E+03  0.19100345703E+03  0.00000000000E+00 0. -1.
          3    1    5    5  503    0 -0.45766726523E+03 -0.52224570291E+02  0.13017292783E+03  0.47867705454E+03  0.00000000000E+00 0. -1.
         -4    1    5    5    0  503 -0.10775995351E+03 -0.42792215443E+02  0.60583141342E+02  0.13081933457E+03  0.00000000000E+00 0.  1.
         -1    1    6    6    0  502  0.42901223815E+02  0.79934505844E+02 -0.20101134380E+03  0.22053480579E+03  0.00000000000E+00 0.  1.
<mgrwt>
<rscale>  0 0.22743567E+04</rscale>
<asrwt>0</asrwt>
<pdfrwt beam="1">  1        1 0.32476029E+00 0.22743567E+04</pdfrwt>
<pdfrwt beam="2">  1       -1 0.94246998E-01 0.22743567E+04</pdfrwt>
<totfact> 0.24732962E+00</totfact>
</mgrwt>
</event>
<event>
12    1  0.1114484E-007  0.2094222E+04  0.7818608E-02  0.8563793E-01
          1   -1    0    0  501    0  0.00000000000E+00  0.00000000000E+00  0.13587362417E+04  0.13587362417E+04  0.00000000000E+00 0. -1.
         -1   -1    0    0    0  501 -0.00000000000E+00 -0.00000000000E+00 -0.80695703108E+03  0.80695703108E+03  0.00000000000E+00 0.  1.
         23    2    1    2    0    0 -0.51154008184E+03  0.65924164856E+03  0.52624438846E+03  0.99084229285E+03  0.92533703985E+02 0.  0.
        254    2    1    2    0    0  0.51154008184E+03 -0.65924164856E+03  0.25534822114E+02  0.11748509799E+04  0.82664986016E+03 0.  0.
        -24    2    4    4    0    0 -0.67708288543E+02 -0.53134581284E+03 -0.12880848520E+03  0.55662986498E+03  0.79576350594E+02 0.  0.
         24    2    4    4    0    0  0.57924837038E+03 -0.12789583573E+03  0.15434330731E+03  0.61822111492E+03  0.80557253106E+02 0.  0.
         11    1    3    3    0    0 -0.46235612741E+03  0.60525810873E+03  0.44722607997E+03  0.88324500188E+03  0.00000000000E+00 0. -1.
        -11    1    3    3    0    0 -0.49183954427E+02  0.53983539829E+02  0.79018308492E+02  0.10759729096E+03  0.00000000000E+00 0.  1.
          4    1    6    6  502    0  0.62711908307E+01  0.72364823690E+01  0.53249119599E+01  0.10956696532E+02  0.00000000000E+00 0. -1.
          1    1    5    5  503    0 -0.74104429510E+02 -0.37956574566E+03 -0.66377844910E+02  0.39238710484E+03  0.00000000000E+00 0. -1.
         -2    1    5    5    0  503  0.63961409676E+01 -0.15178006718E+03 -0.62430640288E+02  0.16424276014E+03  0.00000000000E+00 0.  1.
         -3    1    6    6    0  502  0.57297717955E+03 -0.13513231810E+03  0.14901839535E+03  0.60726441839E+03  0.00000000000E+00 0.  1.
<mgrwt>
<rscale>  0 0.20942223E+04</rscale>
<asrwt>0</asrwt>
<pdfrwt beam="1">  1        1 0.20903635E+00 0.20942223E+04</pdfrwt>
<pdfrwt beam="2">  1       -1 0.12414724E+00 0.20942223E+04</pdfrwt>
<totfact> 0.43033733E+00</totfact>
</mgrwt>
</event>
<event>
12    1  0.1114484E-007  0.2095186E+04  0.7818608E-02  0.8563367E-01
         -1   -1    0    0    0  501 -0.00000000000E+00  0.00000000000E+00  0.14390244399E+04  0.14390244399E+04  0.00000000000E+00 0.  1.
          1   -1    0    0  501    0  0.00000000000E+00 -0.00000000000E+00 -0.76263569877E+03  0.76263569877E+03  0.00000000000E+00 0. -1.
         23    2    1    2    0    0 -0.17500987877E+03  0.50393449321E+03  0.96280026453E+03  0.11045657173E+04  0.92209778959E+02 0.  0.
        254    2    1    2    0    0  0.17500987877E+03 -0.50393449321E+03 -0.28641152344E+03  0.10970944213E+04  0.91488041701E+03 0.  0.
        -24    2    4    4    0    0 -0.32086678042E+03 -0.12359597525E+03  0.88753356105E+02  0.36385823129E+03  0.79272936021E+02 0.  0.
         24    2    4    4    0    0  0.49587665919E+03 -0.38033851796E+03 -0.37516487955E+03  0.73323619003E+03  0.79596320029E+02 0.  0.
         13    1    3    3    0    0 -0.16487585385E+02  0.17653246322E+02  0.17709536330E+02  0.29951715386E+02  0.00000000000E+00 0. -1.
        -13    1    3    3    0    0 -0.15852229338E+03  0.48628124689E+03  0.94509072820E+03  0.10746140019E+04  0.00000000000E+00 0.  1.
          2    1    6    6  502    0  0.48978354935E+03 -0.38442867741E+03 -0.37021394065E+03  0.72438366567E+03  0.00000000000E+00 0. -1.
          1    1    5    5  503    0 -0.30156789847E+03 -0.92427852445E+02  0.71873400726E+02  0.32349944517E+03  0.00000000000E+00 0. -1.
         -2    1    5    5    0  503 -0.19298881953E+02 -0.31168122805E+02  0.16879955379E+02  0.40358786124E+02  0.00000000000E+00 0.  1.
         -1    1    6    6    0  502  0.60931098315E+01  0.40901594491E+01 -0.49509388957E+01  0.88525243680E+01  0.00000000000E+00 0.  1.
<mgrwt>
<rscale>  0 0.20951863E+04</rscale>
<asrwt>0</asrwt>
<pdfrwt beam="1">  1        1 0.11732857E+00 0.20951863E+04</pdfrwt>
<pdfrwt beam="2">  1       -1 0.22138838E+00 0.20951863E+04</pdfrwt>
<totfact> 0.23643243E+00</totfact>
</mgrwt>
</event>
<event>
12    1  0.1114484E-007  0.1648789E+04  0.7818608E-02  0.8791123E-01
          2   -1    0    0  501    0  0.00000000000E+00  0.00000000000E+00  0.11300549851E+04  0.11300549851E+04  0.00000000000E+00 0.  1.
         -2   -1    0    0    0  501 -0.00000000000E+00 -0.00000000000E+00 -0.60141017092E+03  0.60141017092E+03  0.00000000000E+00 0. -1.
         23    2    1    2    0    0 -0.44055391064E+03  0.23600660465E+03  0.49283985461E+03  0.70678266961E+03  0.82847776980E+02 0.  0.
        254    2    1    2    0    0  0.44055391064E+03 -0.23600660465E+03  0.35804959534E+02  0.10246824864E+04  0.89381504639E+03 0.  0.
        -24    2    4    4    0    0  0.64862095221E+03 -0.23832593148E+03 -0.17567370804E+03  0.71736806012E+03  0.79039817311E+02 0.  0.
         24    2    4    4    0    0 -0.20806704158E+03  0.23193268249E+01  0.21147866757E+03  0.30731442626E+03  0.80135239959E+02 0.  0.
         13    1    3    3    0    0 -0.78402073500E+02  0.80376462985E+02  0.11646308629E+03  0.16177426062E+03  0.00000000000E+00 0. -1.
        -13    1    3    3    0    0 -0.36215183714E+03  0.15563014167E+03  0.37637676832E+03  0.54500840899E+03  0.00000000000E+00 0.  1.
          4    1    6    6  502    0 -0.38826603628E+02 -0.31796254941E+02  0.52382818787E+02  0.72542860997E+02  0.00000000000E+00 0. -1.
          3    1    5    5  503    0  0.21781944480E+03 -0.92923638177E+02 -0.23842329521E+02  0.23800960010E+03  0.00000000000E+00 0. -1.
         -4    1    5    5    0  503  0.43080150742E+03 -0.14540229330E+03 -0.15183137851E+03  0.47935846002E+03  0.00000000000E+00 0.  1.
         -3    1    6    6    0  502 -0.16924043795E+03  0.34115581766E+02  0.15909584878E+03  0.23477156526E+03  0.00000000000E+00 0.  1.
<mgrwt>
<rscale>  0 0.16487893E+04</rscale>
<asrwt>0</asrwt>
<pdfrwt beam="1">  1        2 0.17385461E+00 0.16487893E+04</pdfrwt>
<pdfrwt beam="2">  1       -2 0.92524642E-01 0.16487893E+04</pdfrwt>
<totfact> 0.19774358E+01</totfact>
</mgrwt>
</event>
<event>
12    1  0.1114484E-007  0.1454293E+04  0.7818608E-02  0.8915429E-01
         -1   -1    0    0    0  501 -0.00000000000E+00  0.00000000000E+00  0.23497410104E+03  0.23497410104E+03  0.00000000000E+00 0.  1.
          1   -1    0    0  501    0  0.00000000000E+00 -0.00000000000E+00 -0.22502153866E+04  0.22502153866E+04  0.00000000000E+00 0. -1.
         23    2    1    2    0    0 -0.17918565209E+03 -0.40922304579E+03 -0.61368288608E+03  0.76444969450E+03  0.90585051941E+02 0.  0.
        254    2    1    2    0    0  0.17918565209E+03  0.40922304579E+03 -0.14015583995E+04  0.17207397931E+04  0.89275331945E+03 0.  0.
        -24    2    4    4    0    0  0.48326210372E+03  0.99361126702E+01 -0.64177508752E+03  0.80686881566E+03  0.74303670784E+02 0.  0.
         24    2    4    4    0    0 -0.30407645163E+03  0.39928693312E+03 -0.75978331194E+03  0.91387097746E+03  0.77439905354E+02 0.  0.
         11    1    3    3    0    0 -0.56900269743E+02 -0.79720814326E+02 -0.19171037202E+03  0.21528101559E+03  0.00000000000E+00 0.  1.
        -11    1    3    3    0    0 -0.12228538235E+03 -0.32950223146E+03 -0.42197251407E+03  0.54916867892E+03  0.00000000000E+00 0. -1.
          2    1    6    6  502    0 -0.97847221463E+02  0.19149561269E+03 -0.32612096719E+03  0.39063990281E+03  0.00000000000E+00 0. -1.
          3    1    5    5  503    0  0.26977814393E+03  0.13264830489E+02 -0.29807147279E+03  0.40224719460E+03  0.00000000000E+00 0. -1.
         -4    1    5    5    0  503  0.21348395979E+03 -0.33287178190E+01 -0.34370361474E+03  0.40462162106E+03  0.00000000000E+00 0.  1.
         -1    1    6    6    0  502 -0.20622923017E+03  0.20779132042E+03 -0.43366234475E+03  0.52323107464E+03  0.00000000000E+00 0.  1.
<mgrwt>
<rscale>  0 0.14542934E+04</rscale>
<asrwt>0</asrwt>
<pdfrwt beam="1">  1        1 0.34618698E+00 0.14542934E+04</pdfrwt>
<pdfrwt beam="2">  1       -1 0.36149862E-01 0.14542934E+04</pdfrwt>
<totfact> 0.14333943E+01</totfact>
</mgrwt>
</event>
<event>
12    1  0.1114484E-007  0.1951817E+04  0.7818608E-02  0.8629485E-01
          2   -1    0    0  501    0  0.00000000000E+00  0.00000000000E+00  0.15755423021E+04  0.15755423021E+04  0.00000000000E+00 0. -1.
         -2   -1    0    0    0  501 -0.00000000000E+00 -0.00000000000E+00 -0.60448837320E+03  0.60448837320E+03  0.00000000000E+00 0.  1.
         23    2    1    2    0    0  0.12839918323E+03 -0.50934398370E+03  0.10156799214E+04  0.11470060240E+04  0.89997068287E+02 0.  0.
        254    2    1    2    0    0 -0.12839918323E+03  0.50934398370E+03 -0.44625992530E+02  0.10330246513E+04  0.88838663150E+03 0.  0.
        -24    2    4    4    0    0 -0.34528972745E+03 -0.73515898367E+02 -0.15951100654E+03  0.39561982235E+03  0.80260198311E+02 0.  0.
         24    2    4    4    0    0  0.21689054422E+03  0.58285988206E+03  0.11488501401E+03  0.63740482896E+03  0.79493391260E+02 0.  0.
         13    1    3    3    0    0  0.29651231556E+02 -0.27926631818E+03  0.58277880433E+03  0.64691576483E+03  0.00000000000E+00 0.  1.
        -13    1    3    3    0    0  0.98747951675E+02 -0.23007766552E+03  0.43290111711E+03  0.50009025918E+03  0.00000000000E+00 0. -1.
          4    1    6    6  502    0  0.72214602120E+02  0.10344878406E+03  0.25989853466E+02  0.12881021763E+03  0.00000000000E+00 0. -1.
          1    1    5    5  503    0 -0.40714556649E+02 -0.36377644670E+02 -0.32503639334E+02  0.63541283625E+02  0.00000000000E+00 0. -1.
         -2    1    5    5    0  503 -0.30457517080E+03 -0.37138253697E+02 -0.12700736721E+03  0.33207853872E+03  0.00000000000E+00 0.  1.
         -3    1    6    6    0  502  0.14467594210E+03  0.47941109800E+03  0.88895160543E+02  0.50859461133E+03  0.00000000000E+00 0.  1.
<mgrwt>
<rscale>  0 0.19518166E+04</rscale>
<asrwt>0</asrwt>
<pdfrwt beam="1">  1        2 0.24239112E+00 0.19518166E+04</pdfrwt>
<pdfrwt beam="2">  1       -2 0.92998212E-01 0.19518166E+04</pdfrwt>
<totfact> 0.10515021E+01</totfact>
</mgrwt>
</event>
<event>
12    1  0.1114484E-007  0.1427011E+04  0.7818608E-02  0.8934495E-01
          2   -1    0    0  501    0  0.00000000000E+00  0.00000000000E+00  0.17497482848E+04  0.17497482848E+04  0.00000000000E+00 0. -1.
         -2   -1    0    0    0  501 -0.00000000000E+00 -0.00000000000E+00 -0.29095067180E+03  0.29095067180E+03  0.00000000000E+00 0.  1.
         23    2    1    2    0    0  0.14536832271E+03  0.25801054484E+03  0.86616119403E+03  0.92013806400E+03  0.93367297677E+02 0.  0.
        254    2    1    2    0    0 -0.14536832271E+03 -0.25801054484E+03  0.59263641897E+03  0.11205608926E+04  0.90373524799E+03 0.  0.
        -24    2    4    4    0    0  0.64080966147E+02  0.23489648650E+03 -0.68542309695E+02  0.26560524568E+03  0.81026962923E+02 0.  0.
         24    2    4    4    0    0 -0.20944928886E+03 -0.49290703134E+03  0.66117872866E+03  0.85495564693E+03  0.83459576060E+02 0.  0.
         13    1    3    3    0    0  0.17116164423E+02  0.11535341473E+03  0.27747880534E+03  0.30098814061E+03  0.00000000000E+00 0.  1.
        -13    1    3    3    0    0  0.12825215829E+03  0.14265713011E+03  0.58868238869E+03  0.61914992338E+03  0.00000000000E+00 0. -1.
          2    1    6    6  502    0 -0.32840453955E+02 -0.13776901179E+03  0.13173784625E+03  0.19342610000E+03  0.00000000000E+00 0. -1.
          3    1    5    5  503    0 -0.59941778444E+01  0.16466490323E+02  0.13351338519E+02  0.22030290780E+02  0.00000000000E+00 0. -1.
         -4    1    5    5    0  503  0.70075143991E+02  0.21842999618E+03 -0.81893648214E+02  0.24357495490E+03  0.00000000000E+00 0.  1.
         -1    1    6    6    0  502 -0.17660883490E+03 -0.35513801955E+03  0.52944088241E+03  0.66152954693E+03  0.00000000000E+00 0.  1.
<mgrwt>
<rscale>  0 0.14270115E+04</rscale>
<asrwt>0</asrwt>
<pdfrwt beam="1">  1        2 0.26919204E+00 0.14270115E+04</pdfrwt>
<pdfrwt beam="2">  1       -2 0.44761643E-01 0.14270115E+04</pdfrwt>
<totfact> 0.42305369E+01</totfact>
</mgrwt>
</event>
<event>
12    1  0.1114484E-007  0.1460534E+04  0.7818608E-02  0.8911130E-01
         -2   -1    0    0    0  501 -0.00000000000E+00  0.00000000000E+00  0.48655202820E+03  0.48655202820E+03  0.00000000000E+00 0.  1.
          2   -1    0    0  501    0  0.00000000000E+00 -0.00000000000E+00 -0.10960599444E+04  0.10960599444E+04  0.00000000000E+00 0. -1.
         23    2    1    2    0    0 -0.27595735509E+01 -0.43255898737E+02 -0.67157077979E+03  0.67912481551E+03  0.91238778817E+02 0.  0.
        254    2    1    2    0    0  0.27595735509E+01  0.43255898737E+02  0.62062863586E+02  0.90348715708E+03  0.90031025539E+03 0.  0.
        -24    2    4    4    0    0 -0.41020557181E+03 -0.82345997757E+02  0.15713996219E+03  0.45452881244E+03  0.82788882937E+02 0.  0.
         24    2    4    4    0    0  0.41296514536E+03  0.12560189649E+03 -0.95077098601E+02  0.44895834464E+03  0.78790182514E+02 0.  0.
         11    1    3    3    0    0 -0.32681529386E+02 -0.57813368346E+02 -0.49626520287E+03  0.50068914458E+03  0.00000000000E+00 0. -1.
        -11    1    3    3    0    0  0.29921955835E+02  0.14557469609E+02 -0.17530557692E+03  0.17843567093E+03  0.00000000000E+00 0.  1.
          2    1    6    6  502    0  0.39568095931E+03  0.10135895956E+03 -0.82865505129E+02  0.41677782113E+03  0.00000000000E+00 0. -1.
          3    1    5    5  503    0 -0.18658471346E+03  0.38080371149E+01  0.76289465290E+02  0.20161458022E+03  0.00000000000E+00 0. -1.
         -4    1    5    5    0  503 -0.22362085835E+03 -0.86154034872E+02  0.80850496897E+02  0.25291423223E+03  0.00000000000E+00 0.  1.
         -1    1    6    6    0  502  0.17284186047E+02  0.24242936931E+02 -0.12211593472E+02  0.32180523511E+02  0.00000000000E+00 0.  1.
<mgrwt>
<rscale>  0 0.14605344E+04</rscale>
<asrwt>0</asrwt>
<pdfrwt beam="1">  1        2 0.16862460E+00 0.14605344E+04</pdfrwt>
<pdfrwt beam="2">  1       -2 0.74854159E-01 0.14605344E+04</pdfrwt>
<totfact> 0.34053418E+01</totfact>
</mgrwt>
</event>
<event>
12    1  0.1114484E-007  0.2389144E+04  0.7818608E-02  0.8443579E-01
          1   -1    0    0  501    0  0.00000000000E+00  0.00000000000E+00  0.11537365619E+04  0.11537365619E+04  0.00000000000E+00 0. -1.
         -1   -1    0    0    0  501 -0.00000000000E+00 -0.00000000000E+00 -0.12368527122E+04  0.12368527122E+04  0.00000000000E+00 0.  1.
         23    2    1    2    0    0 -0.10229501980E+04  0.81342350447E+02  0.27093736054E+02  0.10305112892E+04  0.90419915636E+02 0.  0.
        254    2    1    2    0    0  0.10229501980E+04 -0.81342350447E+02 -0.11020988632E+03  0.13600779849E+04  0.88578903832E+03 0.  0.
        -24    2    4    4    0    0  0.63809697119E+03 -0.28117574184E+03  0.29472911308E+03  0.76135316022E+03  0.81029883539E+02 0.  0.
         24    2    4    4    0    0  0.38485322681E+03  0.19983339139E+03 -0.40493899940E+03  0.59872482468E+03  0.80314581237E+02 0.  0.
         11    1    3    3    0    0 -0.84774690808E+03  0.54466398371E+02  0.54087624820E+02  0.85121494340E+03  0.00000000000E+00 0. -1.
        -11    1    3    3    0    0 -0.17520328992E+03  0.26875952076E+02 -0.26993888766E+02  0.17929634583E+03  0.00000000000E+00 0.  1.
          2    1    6    6  502    0  0.68127581990E+02  0.56017081355E+02 -0.12082931656E+03  0.14959613823E+03  0.00000000000E+00 0. -1.
          1    1    5    5  503    0  0.33852660334E+03 -0.14388335348E+03  0.11179174425E+03  0.38444775283E+03  0.00000000000E+00 0. -1.
         -2    1    5    5    0  503  0.29957036785E+03 -0.13729238836E+03  0.18293736883E+03  0.37690540738E+03  0.00000000000E+00 0.  1.
         -1    1    6    6    0  502  0.31672564482E+03  0.14381631004E+03 -0.28410968284E+03  0.44912868646E+03  0.00000000000E+00 0.  1.
<mgrwt>
<rscale>  0 0.23891439E+04</rscale>
<asrwt>0</asrwt>
<pdfrwt beam="1">  1        1 0.17749793E+00 0.23891439E+04</pdfrwt>
<pdfrwt beam="2">  1       -1 0.19028503E+00 0.23891439E+04</pdfrwt>
<totfact> 0.18235250E+00</totfact>
</mgrwt>
</event>
<event>
12    1  0.1114484E-007  0.4550412E+04  0.7818608E-02  0.7901870E-01
         -2   -1    0    0    0  501 -0.00000000000E+00  0.00000000000E+00  0.18425206996E+04  0.18425206996E+04  0.00000000000E+00 0. -1.
          2   -1    0    0  501    0  0.00000000000E+00 -0.00000000000E+00 -0.28095002958E+04  0.28095002958E+04  0.00000000000E+00 0.  1.
         23    2    1    2    0    0  0.15691136237E+04 -0.59498694145E+02  0.10902077779E+04  0.19137468804E+04  0.90644714673E+02 0.  0.
        254    2    1    2    0    0 -0.15691136237E+04  0.59498694145E+02 -0.20571873741E+04  0.27382741151E+04  0.89468853718E+03 0.  0.
        -24    2    4    4    0    0 -0.16569431988E+04  0.13095327082E+03 -0.18714990434E+04  0.25042918330E+04  0.79745795435E+02 0.  0.
         24    2    4    4    0    0  0.87829575111E+02 -0.71454576680E+02 -0.18568833069E+03  0.23398228214E+03  0.86300413728E+02 0.  0.
         11    1    3    3    0    0  0.14890426063E+04 -0.76443899107E+02  0.10347818386E+04  0.18149008255E+04  0.00000000000E+00 0. -1.
        -11    1    3    3    0    0  0.80071017452E+02  0.16945204962E+02  0.55425939374E+02  0.98846054866E+02  0.00000000000E+00 0.  1.
          2    1    6    6  502    0  0.17900839460E+02 -0.11336825468E+01  0.53662117262E+01  0.18722219894E+02  0.00000000000E+00 0. -1.
          3    1    5    5  503    0 -0.10171398835E+02 -0.55767629251E+01 -0.12941940938E+02  0.17379628138E+02  0.00000000000E+00 0. -1.
         -4    1    5    5    0  503 -0.16467718000E+04  0.13653003375E+03 -0.18585571025E+04  0.24869122048E+04  0.00000000000E+00 0.  1.
         -1    1    6    6    0  502  0.69928735652E+02 -0.70320894133E+02 -0.19105454241E+03  0.21526006225E+03  0.00000000000E+00 0.  1.
<mgrwt>
<rscale>  0 0.45504120E+04</rscale>
<asrwt>0</asrwt>
<pdfrwt beam="1">  1        2 0.43223081E+00 0.45504120E+04</pdfrwt>
<pdfrwt beam="2">  1       -2 0.28346472E+00 0.45504120E+04</pdfrwt>
<totfact> 0.69059013E-02</totfact>
</mgrwt>
</event>
<event>
12    1  0.1114484E-007  0.1869404E+04  0.7818608E-02  0.8670238E-01
         -2   -1    0    0    0  501 -0.00000000000E+00  0.00000000000E+00  0.49252647569E+03  0.49252647569E+03  0.00000000000E+00 0.  1.
          2   -1    0    0  501    0  0.00000000000E+00 -0.00000000000E+00 -0.17738495762E+04  0.17738495762E+04  0.00000000000E+00 0. -1.
         23    2    1    2    0    0 -0.49460999760E+03 -0.13702382532E+03  0.10809926709E+03  0.53229218910E+03  0.90746595524E+02 0.  0.
        254    2    1    2    0    0  0.49460999760E+03  0.13702382532E+03 -0.13894223676E+04  0.17340838628E+04  0.90174150905E+03 0.  0.
        -24    2    4    4    0    0  0.64816529379E+03  0.32332261975E+03 -0.12443721074E+04  0.14419106100E+04  0.77385404978E+02 0.  0.
         24    2    4    4    0    0 -0.15355529619E+03 -0.18629879443E+03 -0.14505026014E+03  0.29217325278E+03  0.77712044636E+02 0.  0.
         13    1    3    3    0    0 -0.43431186045E+03 -0.97861259322E+02  0.69207348012E+02  0.45054775021E+03  0.00000000000E+00 0.  1.
        -13    1    3    3    0    0 -0.60298137157E+02 -0.39162565994E+02  0.38891919082E+02  0.81744438892E+02  0.00000000000E+00 0. -1.
          4    1    6    6  502    0 -0.38876978721E+02 -0.28476417548E+02  0.14356583325E+01  0.48211896309E+02  0.00000000000E+00 0. -1.
          1    1    5    5  503    0  0.38112248294E+03  0.18234572686E+03 -0.65029842147E+03  0.77549490525E+03  0.00000000000E+00 0. -1.
         -2    1    5    5    0  503  0.26704281085E+03  0.14097689289E+03 -0.59407368595E+03  0.66641570472E+03  0.00000000000E+00 0.  1.
         -3    1    6    6    0  502 -0.11467831747E+03 -0.15782237688E+03 -0.14648591847E+03  0.24396135648E+03  0.00000000000E+00 0.  1.
<mgrwt>
<rscale>  0 0.18694041E+04</rscale>
<asrwt>0</asrwt>
<pdfrwt beam="1">  1        2 0.27289993E+00 0.18694041E+04</pdfrwt>
<pdfrwt beam="2">  1       -2 0.75773305E-01 0.18694041E+04</pdfrwt>
<totfact> 0.13073229E+01</totfact>
</mgrwt>
</event>
<event>
12    1  0.1114484E-007  0.2123252E+04  0.7818608E-02  0.8551069E-01
         -2   -1    0    0    0  501 -0.00000000000E+00  0.00000000000E+00  0.74741001983E+03  0.74741001983E+03  0.00000000000E+00 0.  1.
          2   -1    0    0  501    0  0.00000000000E+00 -0.00000000000E+00 -0.15079409249E+04  0.15079409249E+04  0.00000000000E+00 0. -1.
         23    2    1    2    0    0 -0.34432248626E+03  0.79650231354E+03 -0.30428488681E+03  0.92425286549E+03  0.93167360278E+02 0.  0.
        254    2    1    2    0    0  0.34432248626E+03 -0.79650231354E+03 -0.45624601828E+03  0.13310980792E+04  0.90038200635E+03 0.  0.
        -24    2    4    4    0    0  0.25468247906E+02  0.16859049943E+03 -0.20889938679E+03  0.28207630582E+03  0.82805195210E+02 0.  0.
         24    2    4    4    0    0  0.31885423836E+03 -0.96509281297E+03 -0.24734663148E+03  0.10490217734E+04  0.78702998937E+02 0.  0.
         11    1    3    3    0    0 -0.21521658416E+03  0.39665954066E+03 -0.13260802459E+03  0.47036353757E+03  0.00000000000E+00 0. -1.
        -11    1    3    3    0    0 -0.12910590210E+03  0.39984277288E+03 -0.17167686222E+03  0.45388932792E+03  0.00000000000E+00 0.  1.
          2    1    6    6  502    0  0.31944181428E+03 -0.95257609310E+03 -0.25169536607E+03  0.10357581007E+04  0.00000000000E+00 0. -1.
          1    1    5    5  503    0  0.83366993583E+01  0.63405811900E+02 -0.23313841533E+02  0.68068588541E+02  0.00000000000E+00 0. -1.
         -2    1    5    5    0  503  0.17131548547E+02  0.10518468753E+03 -0.18558554526E+03  0.21400771728E+03  0.00000000000E+00 0.  1.
         -1    1    6    6    0  502 -0.58757591612E+00 -0.12516719864E+02  0.43487345843E+01  0.13263672723E+02  0.00000000000E+00 0.  1.
<mgrwt>
<rscale>  0 0.21232524E+04</rscale>
<asrwt>0</asrwt>
<pdfrwt beam="1">  1        2 0.23199091E+00 0.21232524E+04</pdfrwt>
<pdfrwt beam="2">  1       -2 0.11498616E+00 0.21232524E+04</pdfrwt>
<totfact> 0.68169255E+00</totfact>
</mgrwt>
</event>
<event>
12    1  0.1114484E-007  0.1632729E+04  0.7818608E-02  0.8800690E-01
          1   -1    0    0  501    0  0.00000000000E+00  0.00000000000E+00  0.15666053975E+04  0.15666053975E+04  0.00000000000E+00 0. -1.
         -1   -1    0    0    0  501 -0.00000000000E+00 -0.00000000000E+00 -0.42541091607E+03  0.42541091607E+03  0.00000000000E+00 0.  1.
         23    2    1    2    0    0  0.14745095074E+03  0.43132856354E+03  0.80534371912E+03  0.92975055614E+03  0.89841405430E+02 0.  0.
        254    2    1    2    0    0 -0.14745095074E+03 -0.43132856354E+03  0.33585076227E+03  0.10622657574E+04  0.89879179580E+03 0.  0.
        -24    2    4    4    0    0  0.18526885579E+03  0.17818015701E+03 -0.31712681792E+02  0.27246575777E+03  0.84611924067E+02 0.  0.
         24    2    4    4    0    0 -0.33271980653E+03 -0.60950872055E+03  0.36756344406E+03  0.78979999961E+03  0.80484805343E+02 0.  0.
         13    1    3    3    0    0  0.10965517252E+02  0.15901383208E+03  0.29958976559E+03  0.33935183660E+03  0.00000000000E+00 0. -1.
        -13    1    3    3    0    0  0.13648543349E+03  0.27231473146E+03  0.50575395353E+03  0.59039871954E+03  0.00000000000E+00 0.  1.
          4    1    6    6  502    0 -0.96260968800E+01 -0.38528915075E+02  0.40564414205E+02  0.56768043279E+02  0.00000000000E+00 0. -1.
          3    1    5    5  503    0  0.24208838504E+02  0.74965465864E+02 -0.14396205519E+01  0.78790617724E+02  0.00000000000E+00 0. -1.
         -4    1    5    5    0  503  0.16106001728E+03  0.10321469115E+03 -0.30273061240E+02  0.19367514005E+03  0.00000000000E+00 0.  1.
         -3    1    6    6    0  502 -0.32309370965E+03 -0.57097980548E+03  0.32699902985E+03  0.73303195633E+03  0.00000000000E+00 0.  1.
<mgrwt>
<rscale>  0 0.16327290E+04</rscale>
<asrwt>0</asrwt>
<pdfrwt beam="1">  1        1 0.24101621E+00 0.16327290E+04</pdfrwt>
<pdfrwt beam="2">  1       -1 0.65447834E-01 0.16327290E+04</pdfrwt>
<totfact> 0.13323730E+01</totfact>
</mgrwt>
</event>
<event>
12    1  0.1114484E-007  0.1671390E+04  0.7818608E-02  0.8777852E-01
          3   -1    0    0  501    0  0.00000000000E+00  0.00000000000E+00  0.23210255923E+04  0.23210255923E+04  0.00000000000E+00 0. -1.
         -3   -1    0    0    0  501 -0.00000000000E+00 -0.00000000000E+00 -0.30089536927E+03  0.30089536927E+03  0.00000000000E+00 0.  1.
         23    2    1    2    0    0 -0.37318949997E+03  0.34856994252E+03  0.26863812760E+03  0.58400753699E+03  0.90149608666E+02 0.  0.
        254    2    1    2    0    0  0.37318949997E+03 -0.34856994252E+03  0.17514920955E+04  0.20379134246E+04  0.90807222071E+03 0.  0.
        -24    2    4    4    0    0 -0.28716015180E+02  0.23991939687E+03  0.83842748759E+03  0.87626984619E+03  0.80636622477E+02 0.  0.
         24    2    4    4    0    0  0.40190551515E+03 -0.58848933939E+03  0.91306460789E+03  0.11616435784E+04  0.88775443897E+02 0.  0.
         11    1    3    3    0    0 -0.97058929139E+02  0.48915265671E+02  0.34418892072E+02  0.11400789040E+03  0.00000000000E+00 0. -1.
        -11    1    3    3    0    0 -0.27613057083E+03  0.29965467685E+03  0.23421923553E+03  0.46999964660E+03  0.00000000000E+00 0.  1.
          4    1    6    6  502    0  0.46790036040E+02 -0.27993518236E+02  0.64427540228E+02  0.84402917460E+02  0.00000000000E+00 0. -1.
          1    1    5    5  503    0 -0.14126909569E+01  0.10781614313E+02  0.59368316626E+01  0.12388901208E+02  0.00000000000E+00 0. -1.
         -2    1    5    5    0  503 -0.27303324223E+02  0.22913778256E+03  0.83249065592E+03  0.86388094499E+03  0.00000000000E+00 0.  1.
         -1    1    6    6    0  502  0.35511547911E+03 -0.56049582116E+03  0.84863706766E+03  0.10772406610E+04  0.00000000000E+00 0.  1.
<mgrwt>
<rscale>  0 0.16713897E+04</rscale>
<asrwt>0</asrwt>
<pdfrwt beam="1">  1        3 0.35708085E+00 0.16713897E+04</pdfrwt>
<pdfrwt beam="2">  1       -3 0.46291597E-01 0.16713897E+04</pdfrwt>
<totfact> 0.22003206E-01</totfact>
</mgrwt>
</event>
<event>
12    1  0.1114484E-007  0.1600620E+04  0.7818608E-02  0.8820167E-01
         -2   -1    0    0    0  501 -0.00000000000E+00  0.00000000000E+00  0.57840916278E+03  0.57840916278E+03  0.00000000000E+00 0.  1.
          2   -1    0    0  501    0  0.00000000000E+00 -0.00000000000E+00 -0.11073412403E+04  0.11073412403E+04  0.00000000000E+00 0. -1.
         23    2    1    2    0    0 -0.20297333486E+03  0.30633711305E+03  0.24528689818E+03  0.45038161484E+03  0.87391847869E+02 0.  0.
        254    2    1    2    0    0  0.20297333486E+03 -0.30633711305E+03 -0.77421897571E+03  0.12353687882E+04  0.88976424918E+03 0.  0.
        -24    2    4    4    0    0 -0.98209913494E+02  0.23164449999E+03 -0.29478915125E+02  0.26534929528E+03  0.78973923439E+02 0.  0.
         24    2    4    4    0    0  0.30118324835E+03 -0.53798161304E+03 -0.74474006058E+03  0.97001949296E+03  0.78514290560E+02 0.  0.
         11    1    3    3    0    0 -0.11504404835E+03  0.22889493173E+03  0.13546982640E+03  0.28979319643E+03  0.00000000000E+00 0.  1.
        -11    1    3    3    0    0 -0.87929286508E+02  0.77442181320E+02  0.10981707179E+03  0.16058841842E+03  0.00000000000E+00 0. -1.
          2    1    6    6  502    0  0.11537450733E+03 -0.26763895655E+03 -0.31129665119E+03  0.42643580179E+03  0.00000000000E+00 0. -1.
          1    1    5    5  503    0 -0.30475516132E+02  0.10330568463E+02 -0.14554169509E+01  0.32211736476E+02  0.00000000000E+00 0. -1.
         -2    1    5    5    0  503 -0.67734397362E+02  0.22131393153E+03 -0.28023498174E+02  0.23313755881E+03  0.00000000000E+00 0.  1.
         -1    1    6    6    0  502  0.18580874102E+03 -0.27034265649E+03 -0.43344340940E+03  0.54358369117E+03  0.00000000000E+00 0.  1.
<mgrwt>
<rscale>  0 0.16006203E+04</rscale>
<asrwt>0</asrwt>
<pdfrwt beam="1">  1        2 0.17036019E+00 0.16006203E+04</pdfrwt>
<pdfrwt beam="2">  1       -2 0.88986025E-01 0.16006203E+04</pdfrwt>
<totfact> 0.22430953E+01</totfact>
</mgrwt>
</event>
<event>
12    1  0.1114484E-007  0.1611239E+04  0.7818608E-02  0.8813673E-01
         -2   -1    0    0    0  501 -0.00000000000E+00  0.00000000000E+00  0.35162881513E+03  0.35162881513E+03  0.00000000000E+00 0. -1.
          2   -1    0    0  501    0  0.00000000000E+00 -0.00000000000E+00 -0.18457614313E+04  0.18457614313E+04  0.00000000000E+00 0.  1.
         23    2    1    2    0    0 -0.24738893195E+03  0.29098953175E+03  0.21683944756E+02  0.39360852153E+03  0.92635217497E+02 0.  0.
        254    2    1    2    0    0  0.24738893195E+03 -0.29098953175E+03 -0.15158165609E+04  0.18037817249E+04  0.90002915146E+03 0.  0.
        -24    2    4    4    0    0  0.97899414780E+02 -0.10906079849E+03 -0.15443726670E+04  0.15533700863E+04  0.79957096562E+02 0.  0.
         24    2    4    4    0    0  0.14948951717E+03 -0.18192873326E+03  0.28556106109E+02  0.25041163856E+03  0.80282985741E+02 0.  0.
         11    1    3    3    0    0 -0.15117095930E+03  0.11311977908E+03 -0.92229793085E+01  0.18903387713E+03  0.00000000000E+00 0.  1.
        -11    1    3    3    0    0 -0.96217972646E+02  0.17786975267E+03  0.30906924065E+02  0.20457464440E+03  0.00000000000E+00 0. -1.
          4    1    6    6  502    0  0.15294656502E+03 -0.15175374840E+03  0.37617122316E+02  0.21871648268E+03  0.00000000000E+00 0. -1.
          3    1    5    5  503    0  0.10788851737E+03 -0.10710284623E+03 -0.13126312499E+04  0.13214052179E+04  0.00000000000E+00 0. -1.
         -4    1    5    5    0  503 -0.99891025901E+01 -0.19579522612E+01 -0.23174141717E+03  0.23196486842E+03  0.00000000000E+00 0.  1.
         -3    1    6    6    0  502 -0.34570478541E+01 -0.30174984859E+02 -0.90610162072E+01  0.31695155873E+02  0.00000000000E+00 0.  1.
<mgrwt>
<rscale>  0 0.16112392E+04</rscale>
<asrwt>0</asrwt>
<pdfrwt beam="1">  1        2 0.28396329E+00 0.16112392E+04</pdfrwt>
<pdfrwt beam="2">  1       -2 0.54096742E-01 0.16112392E+04</pdfrwt>
<totfact> 0.25090891E+01</totfact>
</mgrwt>
</event>
<event>
12    1  0.1114484E-007  0.2844122E+04  0.7818608E-02  0.8289700E-01
          1   -1    0    0  501    0  0.00000000000E+00  0.00000000000E+00  0.22327059694E+04  0.22327059694E+04  0.00000000000E+00 0. -1.
         -1   -1    0    0    0  501 -0.00000000000E+00 -0.00000000000E+00 -0.90574310976E+03  0.90574310976E+03  0.00000000000E+00 0.  1.
         23    2    1    2    0    0 -0.65869648349E+03  0.94706603374E+03 -0.23353604402E+01  0.11589652534E+04  0.11126488730E+03 0.  0.
        254    2    1    2    0    0  0.65869648349E+03 -0.94706603374E+03  0.13292982201E+04  0.19794838257E+04  0.90581859593E+03 0.  0.
        -24    2    4    4    0    0  0.35412855741E+03 -0.29350071633E+03  0.20583267522E+01  0.46672028670E+03  0.79207850941E+02 0.  0.
         24    2    4    4    0    0  0.30456792608E+03 -0.65356531741E+03  0.13272398933E+04  0.15127635390E+04  0.83537684971E+02 0.  0.
         11    1    3    3    0    0 -0.22473285952E+02  0.55531569627E+02  0.20906657893E+02  0.63449918448E+02  0.00000000000E+00 0. -1.
        -11    1    3    3    0    0 -0.63622319753E+03  0.89153446411E+03 -0.23242018333E+02  0.10955153350E+04  0.00000000000E+00 0.  1.
          4    1    6    6  502    0  0.76279635787E+00 -0.44558273768E+02  0.99043994447E+02  0.10860816938E+03  0.00000000000E+00 0. -1.
          1    1    5    5  503    0  0.66064406886E+02 -0.20504031384E+02  0.92055790315E+01  0.69782976760E+02  0.00000000000E+00 0. -1.
         -4    1    5    5    0  503  0.28806415052E+03 -0.27299668495E+03 -0.71472522793E+01  0.39693730994E+03  0.00000000000E+00 0.  1.
         -3    1    6    6    0  502  0.30380512972E+03 -0.60900704364E+03  0.12281958989E+04  0.14041553696E+04  0.00000000000E+00 0.  1.
<mgrwt>
<rscale>  0 0.28441224E+04</rscale>
<asrwt>0</asrwt>
<pdfrwt beam="1">  1        1 0.34349322E+00 0.28441224E+04</pdfrwt>
<pdfrwt beam="2">  1       -1 0.13934509E+00 0.28441224E+04</pdfrwt>
<totfact> 0.75715244E-01</totfact>
</mgrwt>
</event>
<event>
12    1  0.1247599E-007  0.1988492E+04  0.7818608E-02  0.8612020E-01
          2   -1    0    0  501    0  0.00000000000E+00  0.00000000000E+00  0.20704214850E+04  0.20704214850E+04  0.00000000000E+00 0. -1.
         -2   -1    0    0    0  501 -0.00000000000E+00 -0.00000000000E+00 -0.47745136441E+03  0.47745136441E+03  0.00000000000E+00 0.  1.
         23    2    1    2    0    0  0.52745856777E+03 -0.84528620235E+02  0.13562550410E+04  0.14604995128E+04  0.90958575559E+02 0.  0.
        254    2    1    2    0    0 -0.52745856777E+03  0.84528620235E+02  0.23671507957E+03  0.10873733365E+04  0.91705458712E+03 0.  0.
        -24    2    4    4    0    0 -0.31895208377E+03  0.48686255433E+03  0.21869272883E+03  0.62675262439E+03  0.78909847221E+02 0.  0.
         24    2    4    4    0    0 -0.20850648400E+03 -0.40233393410E+03  0.18022350740E+02  0.46062071214E+03  0.80616914638E+02 0.  0.
         11    1    3    3    0    0  0.24055423889E+03 -0.39914774790E+02  0.49867714099E+03  0.55510217261E+03  0.00000000000E+00 0. -1.
        -11    1    3    3    0    0  0.28690432888E+03 -0.44613845446E+02  0.85757789999E+03  0.90539734023E+03  0.00000000000E+00 0.  1.
          4    1    6    6  502    0 -0.26048968564E+02 -0.18181799656E+02 -0.12746153980E+02  0.34228512139E+02  0.00000000000E+00 0. -1.
          1    1    5    5  503    0 -0.13835705830E+02  0.45764103769E+02  0.73787539537E+00  0.47815524777E+02  0.00000000000E+00 0. -1.
         -2    1    5    5    0  503 -0.30511637794E+03  0.44109845057E+03  0.21795485343E+03  0.57893709962E+03  0.00000000000E+00 0.  1.
         -1    1    6    6    0  502 -0.18245751544E+03 -0.38415213444E+03  0.30768504720E+02  0.42639220000E+03  0.00000000000E+00 0.  1.
<mgrwt>
<rscale>  0 0.19884925E+04</rscale>
<asrwt>0</asrwt>
<pdfrwt beam="1">  1        2 0.31852638E+00 0.19884925E+04</pdfrwt>
<pdfrwt beam="2">  1       -2 0.73454057E-01 0.19884925E+04</pdfrwt>
<totfact> 0.94908679E+00</totfact>
</mgrwt>
</event>
<event>
12    1  0.1114484E-007  0.1323145E+04  0.7818608E-02  0.9011409E-01
         -1   -1    0    0    0  501 -0.00000000000E+00  0.00000000000E+00  0.26995865229E+03  0.26995865229E+03  0.00000000000E+00 0.  1.
          1   -1    0    0  501    0  0.00000000000E+00 -0.00000000000E+00 -0.16212792085E+04  0.16212792085E+04  0.00000000000E+00 0. -1.
         23    2    1    2    0    0 -0.27127893960E+03  0.10428678387E+03 -0.62935338069E+03  0.69958676012E+03  0.94169850730E+02 0.  0.
        254    2    1    2    0    0  0.27127893960E+03 -0.10428678387E+03 -0.72196717554E+03  0.11916511007E+04  0.90240110087E+03 0.  0.
        -24    2    4    4    0    0  0.29717650803E+03  0.26640314912E+03 -0.70156783006E+03  0.81108152312E+03  0.79820437204E+02 0.  0.
         24    2    4    4    0    0 -0.25897568432E+02 -0.37068993299E+03 -0.20399345480E+02  0.38056957756E+03  0.79594972191E+02 0.  0.
         11    1    3    3    0    0 -0.43144793826E+02  0.20320877457E+00 -0.38896063465E+02  0.58089743339E+02  0.00000000000E+00 0.  1.
        -11    1    3    3    0    0 -0.22813414577E+03  0.10408357510E+03 -0.59045731722E+03  0.64149701678E+03  0.00000000000E+00 0. -1.
          2    1    6    6  502    0 -0.22486310266E+02 -0.52062409081E+02 -0.24792695800E+02  0.61893508171E+02  0.00000000000E+00 0. -1.
          1    1    5    5  503    0  0.17247818774E+03  0.10201221594E+03 -0.36085818671E+03  0.41276367132E+03  0.00000000000E+00 0. -1.
         -2    1    5    5    0  503  0.12469832029E+03  0.16439093318E+03 -0.34070964335E+03  0.39831785180E+03  0.00000000000E+00 0.  1.
         -1    1    6    6    0  502 -0.34112581659E+01 -0.31862752391E+03  0.43933503194E+01  0.31867606939E+03  0.00000000000E+00 0.  1.
<mgrwt>
<rscale>  0 0.13231453E+04</rscale>
<asrwt>0</asrwt>
<pdfrwt beam="1">  1        1 0.24942757E+00 0.13231453E+04</pdfrwt>
<pdfrwt beam="2">  1       -1 0.41532101E-01 0.13231453E+04</pdfrwt>
<totfact> 0.30081055E+01</totfact>
</mgrwt>
</event>
<event>
12    1  0.1114484E-007  0.1374649E+04  0.7818608E-02  0.8972376E-01
          2   -1    0    0  501    0  0.00000000000E+00  0.00000000000E+00  0.10078351164E+04  0.10078351164E+04  0.00000000000E+00 0. -1.
         -2   -1    0    0    0  501 -0.00000000000E+00 -0.00000000000E+00 -0.46874229952E+03  0.46874229952E+03  0.00000000000E+00 0.  1.
         23    2    1    2    0    0  0.45809313504E+02  0.33327175370E+02 -0.25175096997E+03  0.27405285617E+03  0.92288803628E+02 0.  0.
        254    2    1    2    0    0 -0.45809313504E+02 -0.33327175370E+02  0.79084378686E+03  0.12025245598E+04  0.90411405686E+03 0.  0.
        -24    2    4    4    0    0  0.36670591322E+03  0.19978140217E+03  0.37404497813E+03  0.56618411667E+03  0.79176845480E+02 0.  0.
         24    2    4    4    0    0 -0.41251522672E+03 -0.23310857754E+03  0.41679880873E+03  0.63634044310E+03  0.81850420685E+02 0.  0.
         13    1    3    3    0    0  0.25157617310E+02 -0.10866256378E+02 -0.12930612900E+02  0.30301517889E+02  0.00000000000E+00 0. -1.
        -13    1    3    3    0    0  0.20651696194E+02  0.44193431748E+02 -0.23882035707E+03  0.24375133828E+03  0.00000000000E+00 0.  1.
          2    1    6    6  502    0 -0.32900189607E+02  0.14294004310E+01  0.16298504370E+02  0.36743800926E+02  0.00000000000E+00 0. -1.
          1    1    5    5  503    0  0.18720255973E+02  0.48693554657E+01  0.45489669565E+02  0.49431453989E+02  0.00000000000E+00 0. -1.
         -2    1    5    5    0  503  0.34798565724E+03  0.19491204671E+03  0.32855530856E+03  0.51675266268E+03  0.00000000000E+00 0.  1.
         -1    1    6    6    0  502 -0.37961503711E+03 -0.23453797797E+03  0.40050030437E+03  0.59959664218E+03  0.00000000000E+00 0.  1.
<mgrwt>
<rscale>  0 0.13746490E+04</rscale>
<asrwt>0</asrwt>
<pdfrwt beam="1">  1        2 0.15505156E+00 0.13746490E+04</pdfrwt>
<pdfrwt beam="2">  1       -2 0.72114200E-01 0.13746490E+04</pdfrwt>
<totfact> 0.42288537E+01</totfact>
</mgrwt>
</event>
<event>
12    1  0.1114484E-007  0.1724863E+04  0.7818608E-02  0.8747310E-01
          1   -1    0    0  501    0  0.00000000000E+00  0.00000000000E+00  0.22793900851E+04  0.22793900851E+04  0.00000000000E+00 0. -1.
         -1   -1    0    0    0  501 -0.00000000000E+00 -0.00000000000E+00 -0.32631021948E+03  0.32631021948E+03  0.00000000000E+00 0.  1.
         23    2    1    2    0    0 -0.61092687162E+03  0.14714651095E+03  0.87044459701E+03  0.10773911300E+04  0.90631740716E+02 0.  0.
        254    2    1    2    0    0  0.61092687162E+03 -0.14714651095E+03  0.10826352686E+04  0.15283091746E+04  0.87678165473E+03 0.  0.
        -24    2    4    4    0    0  0.40476608934E+03 -0.24089006705E+03  0.64895391514E+02  0.48251685681E+03  0.82143129864E+02 0.  0.
         24    2    4    4    0    0  0.20616078229E+03  0.93743556100E+02  0.10177398771E+04  0.10457923178E+04  0.81221868931E+02 0.  0.
         13    1    3    3    0    0 -0.23608311919E+03  0.66552940850E+02  0.41479572652E+03  0.48189213299E+03  0.00000000000E+00 0.  1.
        -13    1    3    3    0    0 -0.37484375243E+03  0.80593570096E+02  0.45564887049E+03  0.59549899703E+03  0.00000000000E+00 0. -1.
          2    1    6    6  502    0  0.11137087738E+03  0.65933954045E+02  0.73460925681E+03  0.74592326603E+03  0.00000000000E+00 0. -1.
          3    1    5    5  503    0  0.25034645074E+03 -0.10666223194E+03  0.18700534533E+02  0.27276342700E+03  0.00000000000E+00 0. -1.
         -4    1    5    5    0  503  0.15441963860E+03 -0.13422783511E+03  0.46194856980E+02  0.20975342980E+03  0.00000000000E+00 0.  1.
         -1    1    6    6    0  502  0.94789904901E+02  0.27809602055E+02  0.28313062029E+03  0.29986905172E+03  0.00000000000E+00 0.  1.
<mgrwt>
<rscale>  0 0.17248632E+04</rscale>
<asrwt>0</asrwt>
<pdfrwt beam="1">  1        1 0.35067539E+00 0.17248632E+04</pdfrwt>
<pdfrwt beam="2">  1       -1 0.50201574E-01 0.17248632E+04</pdfrwt>
<totfact> 0.72781547E+00</totfact>
</mgrwt>
</event>
<event>
12    1  0.1114484E-007  0.1674852E+04  0.7818608E-02  0.8775839E-01
          2   -1    0    0  501    0  0.00000000000E+00  0.00000000000E+00  0.28601459648E+03  0.28601459648E+03  0.00000000000E+00 0. -1.
         -2   -1    0    0    0  501 -0.00000000000E+00 -0.00000000000E+00 -0.24519111161E+04  0.24519111161E+04  0.00000000000E+00 0.  1.
         23    2    1    2    0    0 -0.44700321038E+03  0.26315952956E+03 -0.32559791774E+03  0.61947332247E+03  0.93104162761E+02 0.  0.
        254    2    1    2    0    0  0.44700321038E+03 -0.26315952956E+03 -0.18402986019E+04  0.21184523902E+04  0.91218242532E+03 0.  0.
        -24    2    4    4    0    0 -0.36622427936E+02 -0.44567879595E+03 -0.12510286275E+04  0.13309615018E+04  0.80094325052E+02 0.  0.
         24    2    4    4    0    0  0.48362563832E+03  0.18251926639E+03 -0.58926997438E+03  0.78749088838E+03  0.75470232128E+02 0.  0.
         11    1    3    3    0    0 -0.35339328713E+03  0.23197065351E+03 -0.29738163403E+03  0.51684914215E+03  0.00000000000E+00 0. -1.
        -11    1    3    3    0    0 -0.93609923250E+02  0.31188876051E+02 -0.28216283709E+02  0.10262418032E+03  0.00000000000E+00 0.  1.
          2    1    6    6  502    0  0.13094617618E+03  0.83819047781E+02 -0.15734052020E+03  0.22119804050E+03  0.00000000000E+00 0. -1.
          1    1    5    5  503    0  0.10887554272E+02 -0.11907232108E+03 -0.42317401235E+03  0.43974197118E+03  0.00000000000E+00 0. -1.
         -2    1    5    5    0  503 -0.47509982208E+02 -0.32660647487E+03 -0.82785461519E+03  0.89121953060E+03  0.00000000000E+00 0.  1.
         -1    1    6    6    0  502  0.35267946214E+03  0.98700218611E+02 -0.43192945417E+03  0.56629284787E+03  0.00000000000E+00 0.  1.
<mgrwt>
<rscale>  0 0.16748521E+04</rscale>
<asrwt>0</asrwt>
<pdfrwt beam="1">  1        2 0.44002244E-01 0.16748521E+04</pdfrwt>
<pdfrwt beam="2">  1       -2 0.37721711E+00 0.16748521E+04</pdfrwt>
<totfact> 0.11588939E+00</totfact>
</mgrwt>
</event>
<event>
12    1  0.1114484E-007  0.1553072E+04  0.7818608E-02  0.8849908E-01
         -2   -1    0    0    0  501 -0.00000000000E+00  0.00000000000E+00  0.33380551773E+03  0.33380551773E+03  0.00000000000E+00 0.  1.
          2   -1    0    0  501    0  0.00000000000E+00 -0.00000000000E+00 -0.18064651667E+04  0.18064651667E+04  0.00000000000E+00 0. -1.
         23    2    1    2    0    0  0.33984995483E+03 -0.25271107674E+02 -0.10876840848E+04  0.11434212378E+04  0.90657807138E+02 0.  0.
        254    2    1    2    0    0 -0.33984995483E+03  0.25271107674E+02 -0.38497556411E+03  0.99684944659E+03  0.85402928143E+03 0.  0.
        -24    2    4    4    0    0  0.14586810610E+03  0.49942195385E+02  0.17785335389E+03  0.24881638729E+03  0.80660100663E+02 0.  0.
         24    2    4    4    0    0 -0.48571806093E+03 -0.24671087710E+02 -0.56282891800E+03  0.74803305930E+03  0.79033977441E+02 0.  0.
         11    1    3    3    0    0  0.24379291829E+03 -0.39690463906E+02 -0.65642585545E+03  0.70135955375E+03  0.00000000000E+00 0. -1.
        -11    1    3    3    0    0  0.96057036535E+02  0.14419356232E+02 -0.43125822938E+03  0.44206168405E+03  0.00000000000E+00 0.  1.
          4    1    6    6  502    0 -0.36381777213E+03  0.13278931084E+02 -0.39532880893E+03  0.53742401184E+03  0.00000000000E+00 0. -1.
          3    1    5    5  503    0  0.14545262322E+03  0.64653929269E+02  0.16520141680E+03  0.22940816089E+03  0.00000000000E+00 0. -1.
         -4    1    5    5    0  503  0.41548288121E+00 -0.14711733885E+02  0.12651937089E+02  0.19408226401E+02  0.00000000000E+00 0.  1.
         -3    1    6    6    0  502 -0.12190028880E+03 -0.37950018795E+02 -0.16750010907E+03  0.21060904746E+03  0.00000000000E+00 0.  1.
<mgrwt>
<rscale>  0 0.15530718E+04</rscale>
<asrwt>0</asrwt>
<pdfrwt beam="1">  1        2 0.27791771E+00 0.15530718E+04</pdfrwt>
<pdfrwt beam="2">  1       -2 0.51354696E-01 0.15530718E+04</pdfrwt>
<totfact> 0.29503482E+01</totfact>
</mgrwt>
</event>
<event>
12    1  0.1114484E-007  0.2016591E+04  0.7818608E-02  0.8598903E-01
          2   -1    0    0  501    0  0.00000000000E+00  0.00000000000E+00  0.11154310999E+04  0.11154310999E+04  0.00000000000E+00 0. -1.
         -2   -1    0    0    0  501 -0.00000000000E+00 -0.00000000000E+00 -0.91144996142E+03  0.91144996142E+03  0.00000000000E+00 0.  1.
         23    2    1    2    0    0 -0.43040282205E+03 -0.53297444947E+03 -0.34112308899E+03  0.77071944264E+03  0.91297012026E+02 0.  0.
        254    2    1    2    0    0  0.43040282205E+03  0.53297444947E+03  0.54510422745E+03  0.12561616187E+04  0.90083019509E+03 0.  0.
        -24    2    4    4    0    0  0.55002735150E+03  0.66236946977E+03  0.24322077736E+03  0.89806753493E+03  0.78138011737E+02 0.  0.
         24    2    4    4    0    0 -0.11962452945E+03 -0.12939502030E+03  0.30188345010E+03  0.35809408373E+03  0.77747386023E+02 0.  0.
         13    1    3    3    0    0 -0.28638629186E+03 -0.28927901063E+03 -0.22136460840E+03  0.46335919545E+03  0.00000000000E+00 0. -1.
        -13    1    3    3    0    0 -0.14401653019E+03 -0.24369543884E+03 -0.11975848059E+03  0.30736024719E+03  0.00000000000E+00 0.  1.
          2    1    6    6  502    0 -0.11118010599E+02  0.83091712618E+01  0.44964091534E+02  0.47057645651E+02  0.00000000000E+00 0. -1.
          3    1    5    5  503    0  0.30272063223E+02  0.57430975479E+02  0.24745874310E+01  0.64967979338E+02  0.00000000000E+00 0. -1.
         -4    1    5    5    0  503  0.51975528828E+03  0.60493849429E+03  0.24074618993E+03  0.83309955559E+03  0.00000000000E+00 0.  1.
         -1    1    6    6    0  502 -0.10850651885E+03 -0.13770419156E+03  0.25691935856E+03  0.31103643808E+03  0.00000000000E+00 0.  1.
<mgrwt>
<rscale>  0 0.20165908E+04</rscale>
<asrwt>0</asrwt>
<pdfrwt beam="1">  1        2 0.17160478E+00 0.20165908E+04</pdfrwt>
<pdfrwt beam="2">  1       -2 0.14022307E+00 0.20165908E+04</pdfrwt>
<totfact> 0.70736572E+00</totfact>
</mgrwt>
</event>
<event>
12    1  0.1114484E-007  0.2109657E+04  0.7818608E-02  0.8557001E-01
          2   -1    0    0  501    0  0.00000000000E+00  0.00000000000E+00  0.82214642079E+03  0.82214642079E+03  0.00000000000E+00 0.  1.
         -2   -1    0    0    0  501 -0.00000000000E+00 -0.00000000000E+00 -0.13533631553E+04  0.13533631553E+04  0.00000000000E+00 0. -1.
         23    2    1    2    0    0 -0.58251670429E+03 -0.77112134305E+01 -0.86202151872E+03  0.10443920897E+04  0.91041555125E+02 0.  0.
        254    2    1    2    0    0  0.58251670429E+03  0.77112134305E+01  0.33080478424E+03  0.11311174863E+04  0.91137796166E+03 0.  0.
        -24    2    4    4    0    0  0.85859248838E+02  0.37160223833E+03  0.32898798024E+03  0.51007327655E+03  0.80508522312E+02 0.  0.
         24    2    4    4    0    0  0.49665745545E+03 -0.36389102490E+03  0.18168040012E+01  0.62104420978E+03  0.81285322548E+02 0.  0.
         11    1    3    3    0    0  0.11142035719E+00  0.67782227432E+01 -0.85141950258E+01  0.10883392623E+02  0.00000000000E+00 0.  1.
        -11    1    3    3    0    0 -0.58262812465E+03 -0.14489436174E+02 -0.85350732369E+03  0.10335086971E+04  0.00000000000E+00 0. -1.
          4    1    6    6  502    0  0.20956023744E+03 -0.15892542621E+03 -0.39202615914E+02  0.26591282276E+03  0.00000000000E+00 0. -1.
          1    1    5    5  503    0  0.27534356256E+02  0.25095649375E+03  0.24574824885E+03  0.35232017305E+03  0.00000000000E+00 0. -1.
         -2    1    5    5    0  503  0.58324892582E+02  0.12064574458E+03  0.83239731394E+02  0.15775310350E+03  0.00000000000E+00 0.  1.
         -3    1    6    6    0  502  0.28709721801E+03 -0.20496559869E+03  0.41019419916E+02  0.35513138702E+03  0.00000000000E+00 0.  1.
<mgrwt>
<rscale>  0 0.21096565E+04</rscale>
<asrwt>0</asrwt>
<pdfrwt beam="1">  1        2 0.12648407E+00 0.21096565E+04</pdfrwt>
<pdfrwt beam="2">  1       -2 0.20820971E+00 0.21096565E+04</pdfrwt>
<totfact> 0.35942248E+00</totfact>
</mgrwt>
</event>
<event>
12    1  0.1114484E-007  0.1647183E+04  0.7818608E-02  0.8792075E-01
         -2   -1    0    0    0  501 -0.00000000000E+00  0.00000000000E+00  0.34531076744E+03  0.34531076744E+03  0.00000000000E+00 0.  1.
          2   -1    0    0  501    0  0.00000000000E+00 -0.00000000000E+00 -0.19643256091E+04  0.19643256091E+04  0.00000000000E+00 0. -1.
         23    2    1    2    0    0 -0.21314695796E+03 -0.63800824665E+02 -0.13099748709E+04  0.13336393679E+04  0.11426998826E+03 0.  0.
        254    2    1    2    0    0  0.21314695796E+03  0.63800824665E+02 -0.30903997074E+03  0.97599700865E+03  0.89864469423E+03 0.  0.
        -24    2    4    4    0    0 -0.17257314406E+03 -0.16396751893E+03  0.17793171613E+03  0.30942102462E+03  0.86109451014E+02 0.  0.
         24    2    4    4    0    0  0.38572010202E+03  0.22776834360E+03 -0.48697168688E+03  0.66657598403E+03  0.80769444869E+02 0.  0.
         11    1    3    3    0    0 -0.12747617203E+03  0.12638397712E+02 -0.84743625527E+03  0.85706365591E+03  0.00000000000E+00 0.  1.
        -11    1    3    3    0    0 -0.85670785929E+02 -0.76439222376E+02 -0.46253861563E+03  0.47657571196E+03  0.00000000000E+00 0. -1.
          2    1    6    6  502    0  0.29124610774E+03  0.19591874948E+03 -0.41542380065E+03  0.54386155023E+03  0.00000000000E+00 0. -1.
          3    1    5    5  503    0 -0.82257666949E+02 -0.11704701023E+03  0.14177991034E+03  0.20141467015E+03  0.00000000000E+00 0. -1.
         -4    1    5    5    0  503 -0.90315477115E+02 -0.46920508701E+02  0.36151805788E+02  0.10800635447E+03  0.00000000000E+00 0.  1.
         -1    1    6    6    0  502  0.94473994281E+02  0.31849594119E+02 -0.71547886229E+02  0.12271443381E+03  0.00000000000E+00 0.  1.
<mgrwt>
<rscale>  0 0.16471828E+04</rscale>
<asrwt>0</asrwt>
<pdfrwt beam="1">  1        2 0.30220393E+00 0.16471828E+04</pdfrwt>
<pdfrwt beam="2">  1       -2 0.53124735E-01 0.16471828E+04</pdfrwt>
<totfact> 0.22327163E+01</totfact>
</mgrwt>
</event>
<event>
12    1  0.1114484E-007  0.3067720E+04  0.7818608E-02  0.8224653E-01
         -2   -1    0    0    0  501 -0.00000000000E+00  0.00000000000E+00  0.19773351727E+04  0.19773351727E+04  0.00000000000E+00 0.  1.
          2   -1    0    0  501    0  0.00000000000E+00 -0.00000000000E+00 -0.11898468565E+04  0.11898468565E+04  0.00000000000E+00 0. -1.
         23    2    1    2    0    0  0.10004450722E+04 -0.96514148684E+03  0.34465989142E+03  0.14358177381E+04  0.10194951807E+03 0.  0.
        254    2    1    2    0    0 -0.10004450722E+04  0.96514148684E+03  0.44282842483E+03  0.17313642911E+04  0.93227510025E+03 0.  0.
        -24    2    4    4    0    0 -0.53751211639E+03  0.41717311512E+02  0.43122039152E+03  0.69518367732E+03  0.81668291348E+02 0.  0.
         24    2    4    4    0    0 -0.46293295578E+03  0.92342417532E+03  0.11608033316E+02  0.10361806138E+04  0.80724152294E+02 0.  0.
         13    1    3    3    0    0  0.61126243590E+03 -0.60326763510E+03  0.16266508314E+03  0.87409011799E+03  0.00000000000E+00 0.  1.
        -13    1    3    3    0    0  0.38918263627E+03 -0.36187385174E+03  0.18199480828E+03  0.56172762010E+03  0.00000000000E+00 0. -1.
          2    1    6    6  502    0 -0.15701272872E+03  0.23335538497E+03  0.56706315389E+01  0.28131812729E+03  0.00000000000E+00 0. -1.
          3    1    5    5  503    0 -0.35936207342E+03 -0.91038898947E+01  0.29914660156E+03  0.46766726403E+03  0.00000000000E+00 0. -1.
         -4    1    5    5    0  503 -0.17815004297E+03  0.50821201407E+02  0.13207378995E+03  0.22751641329E+03  0.00000000000E+00 0.  1.
         -1    1    6    6    0  502 -0.30592022705E+03  0.69006879035E+03  0.59374017769E+01  0.75486248647E+03  0.00000000000E+00 0.  1.
<mgrwt>
<rscale>  0 0.30677197E+04</rscale>
<asrwt>0</asrwt>
<pdfrwt beam="1">  1        2 0.18305336E+00 0.30677197E+04</pdfrwt>
<pdfrwt beam="2">  1       -2 0.30420541E+00 0.30677197E+04</pdfrwt>
<totfact> 0.48970949E-01</totfact>
</mgrwt>
</event>
<event>
12    1  0.1114484E-007  0.2113261E+04  0.7818608E-02  0.8555424E-01
          2   -1    0    0  501    0  0.00000000000E+00  0.00000000000E+00  0.14996870787E+04  0.14996870787E+04  0.00000000000E+00 0. -1.
         -2   -1    0    0    0  501 -0.00000000000E+00 -0.00000000000E+00 -0.74446740562E+03  0.74446740562E+03  0.00000000000E+00 0.  1.
         23    2    1    2    0    0  0.21619068228E+03 -0.77407572509E+03 -0.27381951652E+02  0.80701908753E+03  0.67811482016E+02 0.  0.
        254    2    1    2    0    0 -0.21619068228E+03  0.77407572509E+03  0.78260162471E+03  0.14371353968E+04  0.89831019494E+03 0.  0.
        -24    2    4    4    0    0  0.33647266234E+02 -0.16665011809E+03  0.37875126904E+01  0.18760852318E+03  0.79235171076E+02 0.  0.
         24    2    4    4    0    0 -0.24983794851E+03  0.94072584318E+03  0.77881411202E+03  0.12495268736E+04  0.85917833789E+02 0.  0.
         13    1    3    3    0    0  0.21919725103E+03 -0.73028888819E+03 -0.29849730922E+02  0.76305982826E+03  0.00000000000E+00 0. -1.
        -13    1    3    3    0    0 -0.30065687487E+01 -0.43786836901E+02  0.24677792698E+01  0.43959259274E+02  0.00000000000E+00 0.  1.
          4    1    6    6  502    0 -0.20070250815E+02  0.32474839702E+02  0.16021052837E+02  0.41401742903E+02  0.00000000000E+00 0. -1.
          1    1    5    5  503    0  0.47591714146E+01 -0.73739162950E+02  0.39714703022E+02  0.83889042796E+02  0.00000000000E+00 0. -1.
         -2    1    5    5    0  503  0.28888094819E+02 -0.92910955138E+02 -0.35927190332E+02  0.10371948039E+03  0.00000000000E+00 0.  1.
         -3    1    6    6    0  502 -0.22976769770E+03  0.90825100347E+03  0.76279305918E+03  0.12081251307E+04  0.00000000000E+00 0.  1.
<mgrwt>
<rscale>  0 0.21132611E+04</rscale>
<asrwt>0</asrwt>
<pdfrwt beam="1">  1        2 0.23072109E+00 0.21132611E+04</pdfrwt>
<pdfrwt beam="2">  1       -2 0.11453345E+00 0.21132611E+04</pdfrwt>
<totfact> 0.69629262E+00</totfact>
</mgrwt>
</event>
<event>
12    1  0.1114484E-007  0.1732126E+04  0.7818608E-02  0.8743251E-01
          1   -1    0    0  501    0  0.00000000000E+00  0.00000000000E+00  0.35021014643E+04  0.35021014643E+04  0.00000000000E+00 0. -1.
         -1   -1    0    0    0  501 -0.00000000000E+00 -0.00000000000E+00 -0.21417565425E+03  0.21417565425E+03  0.00000000000E+00 0.  1.
         23    2    1    2    0    0  0.53788472074E+03  0.27340916892E+03  0.16245881308E+04  0.17353847366E+04  0.90559609780E+02 0.  0.
        254    2    1    2    0    0 -0.53788472074E+03 -0.27340916892E+03  0.16633376793E+04  0.19808923819E+04  0.89060083489E+03 0.  0.
        -24    2    4    4    0    0 -0.21750889906E+03 -0.92792239108E+02 -0.25343444212E+02  0.25077624152E+03  0.79535604211E+02 0.  0.
         24    2    4    4    0    0 -0.32037582168E+03 -0.18061692981E+03  0.16886811235E+04  0.17301161404E+04  0.79967368885E+02 0.  0.
         11    1    3    3    0    0  0.15384495993E+03  0.45629578900E+02  0.51141612798E+03  0.53600073333E+03  0.00000000000E+00 0.  1.
        -11    1    3    3    0    0  0.38403976080E+03  0.22777959002E+03  0.11131720028E+04  0.11993840033E+04  0.00000000000E+00 0. -1.
          4    1    6    6  502    0 -0.29404691668E+03 -0.17352723900E+03  0.16304698523E+04  0.16658352953E+04  0.00000000000E+00 0. -1.
          3    1    5    5  503    0 -0.16339447106E+03 -0.48033991612E+02  0.12928596053E+02  0.17079861276E+03  0.00000000000E+00 0. -1.
         -4    1    5    5    0  503 -0.54114427999E+02 -0.44758247496E+02 -0.38272040265E+02  0.79977628763E+02  0.00000000000E+00 0.  1.
         -3    1    6    6    0  502 -0.26328904996E+02 -0.70896908072E+01  0.58211271220E+02  0.64280845133E+02  0.00000000000E+00 0.  1.
<mgrwt>
<rscale>  0 0.17321257E+04</rscale>
<asrwt>0</asrwt>
<pdfrwt beam="1">  1        1 0.53878480E+00 0.17321257E+04</pdfrwt>
<pdfrwt beam="2">  1       -1 0.32950103E-01 0.17321257E+04</pdfrwt>
<totfact> 0.20576620E+00</totfact>
</mgrwt>
</event>
<event>
12    1  0.1114484E-007  0.1076568E+04  0.7818608E-02  0.9228336E-01
         -1   -1    0    0    0  501 -0.00000000000E+00  0.00000000000E+00  0.53521474649E+03  0.53521474649E+03  0.00000000000E+00 0.  1.
          1   -1    0    0  501    0  0.00000000000E+00 -0.00000000000E+00 -0.54137113449E+03  0.54137113449E+03  0.00000000000E+00 0. -1.
         23    2    1    2    0    0 -0.14034139206E+02  0.80417615029E+02 -0.11571518172E+03  0.16792350618E+03  0.90246056846E+02 0.  0.
        254    2    1    2    0    0  0.14034139206E+02 -0.80417615029E+02  0.10955879372E+03  0.90866237481E+03  0.89833191652E+03 0.  0.
        -24    2    4    4    0    0 -0.53736143432E+02  0.17113984967E+03 -0.33318455027E+03  0.38884571282E+03  0.89513253662E+02 0.  0.
         24    2    4    4    0    0  0.67770282638E+02 -0.25155746470E+03  0.44274334400E+03  0.51981666199E+03  0.79458946459E+02 0.  0.
         11    1    3    3    0    0  0.23741668913E+02 -0.52929196842E+01 -0.42773379400E+02  0.49206136069E+02  0.00000000000E+00 0.  1.
        -11    1    3    3    0    0 -0.37775808119E+02  0.85710534713E+02 -0.72941802322E+02  0.11871737011E+03  0.00000000000E+00 0. -1.
          4    1    6    6  502    0  0.32785629940E+02 -0.51186858477E+02  0.55065910848E+02  0.82019793640E+02  0.00000000000E+00 0. -1.
          1    1    5    5  503    0 -0.22457493743E+02  0.22139983800E+01 -0.14556772034E+02  0.26854057907E+02  0.00000000000E+00 0. -1.
         -2    1    5    5    0  503 -0.31278649689E+02  0.16892585129E+03 -0.31862777824E+03  0.36199165491E+03  0.00000000000E+00 0.  1.
         -3    1    6    6    0  502  0.34984652698E+02 -0.20037060623E+03  0.38767743315E+03  0.43779686835E+03  0.00000000000E+00 0.  1.
<mgrwt>
<rscale>  0 0.10765683E+04</rscale>
<asrwt>0</asrwt>
<pdfrwt beam="1">  1        1 0.83287867E-01 0.10765683E+04</pdfrwt>
<pdfrwt beam="2">  1       -1 0.82340730E-01 0.10765683E+04</pdfrwt>
<totfact> 0.58086411E+01</totfact>
</mgrwt>
</event>
<event>
12    1  0.1114484E-007  0.1473724E+04  0.7818608E-02  0.8902117E-01
         -2   -1    0    0    0  501 -0.00000000000E+00  0.00000000000E+00  0.28837358345E+03  0.28837358345E+03  0.00000000000E+00 0.  1.
          2   -1    0    0  501    0  0.00000000000E+00 -0.00000000000E+00 -0.18828550228E+04  0.18828550228E+04  0.00000000000E+00 0. -1.
         23    2    1    2    0    0  0.10886797029E+03  0.18445302903E+03  0.93041048766E+02  0.25032764809E+03  0.90178377511E+02 0.  0.
        254    2    1    2    0    0 -0.10886797029E+03 -0.18445302903E+03 -0.16875224881E+04  0.19209009581E+04  0.89233020136E+03 0.  0.
        -24    2    4    4    0    0  0.76156155819E+02 -0.48790357943E+03 -0.64038807710E+03  0.81234527160E+03  0.77189948317E+02 0.  0.
         24    2    4    4    0    0 -0.18502412611E+03  0.30345055040E+03 -0.10471344110E+04  0.11085556865E+04  0.78032503917E+02 0.  0.
         11    1    3    3    0    0  0.26432369560E+02  0.54982699897E+02  0.73627683307E+02  0.95618006661E+02  0.00000000000E+00 0. -1.
        -11    1    3    3    0    0  0.82435600732E+02  0.12947032913E+03  0.19413365459E+02  0.15470964143E+03  0.00000000000E+00 0.  1.
          4    1    6    6  502    0 -0.17875054922E+03  0.25442357480E+03 -0.94961768446E+03  0.99922813256E+03  0.00000000000E+00 0. -1.
          1    1    5    5  503    0  0.44705795662E+02 -0.95779120557E+02 -0.11827268923E+03  0.15862117488E+03  0.00000000000E+00 0. -1.
         -2    1    5    5    0  503  0.31450360157E+02 -0.39212445887E+03 -0.52211538786E+03  0.65372409673E+03  0.00000000000E+00 0.  1.
         -3    1    6    6    0  502 -0.62735768952E+01  0.49026975592E+02 -0.97516726540E+02  0.10932755397E+03  0.00000000000E+00 0.  1.
<mgrwt>
<rscale>  0 0.14737241E+04</rscale>
<asrwt>0</asrwt>
<pdfrwt beam="1">  1        2 0.28967000E+00 0.14737241E+04</pdfrwt>
<pdfrwt beam="2">  1       -2 0.44365167E-01 0.14737241E+04</pdfrwt>
<totfact> 0.36208811E+01</totfact>
</mgrwt>
</event>
<event>
12    1  0.1114484E-007  0.1605159E+04  0.7818608E-02  0.8817385E-01
         -2   -1    0    0    0  501 -0.00000000000E+00  0.00000000000E+00  0.47220277522E+03  0.47220277522E+03  0.00000000000E+00 0.  1.
          2   -1    0    0  501    0  0.00000000000E+00 -0.00000000000E+00 -0.13641048636E+04  0.13641048636E+04  0.00000000000E+00 0. -1.
         23    2    1    2    0    0  0.15886328930E+03 -0.94393865636E+01  0.28923114996E+03  0.34222335734E+03  0.90197125760E+02 0.  0.
        254    2    1    2    0    0 -0.15886328930E+03  0.94393865636E+01 -0.11811332383E+04  0.14940842815E+04  0.90104687267E+03 0.  0.
        -24    2    4    4    0    0  0.15111381335E+03 -0.35755508036E+03 -0.33886963747E+03  0.52130343595E+03  0.79016587231E+02 0.  0.
         24    2    4    4    0    0 -0.30997710266E+03  0.36699446693E+03 -0.84226360083E+03  0.97278084550E+03  0.78255077543E+02 0.  0.
         13    1    3    3    0    0  0.13687340022E+03 -0.12994782812E+02  0.28889767837E+03  0.31994540259E+03  0.00000000000E+00 0.  1.
        -13    1    3    3    0    0  0.21989889089E+02  0.35553962487E+01  0.33347158334E+00  0.22277954751E+02  0.00000000000E+00 0. -1.
          4    1    6    6  502    0 -0.24379079070E+03  0.26257444139E+03 -0.68180922582E+03  0.77022276474E+03  0.00000000000E+00 0. -1.
          1    1    5    5  503    0 -0.13829308035E+01 -0.44507635647E+02 -0.18798119084E+02  0.48334370893E+02  0.00000000000E+00 0. -1.
         -2    1    5    5    0  503  0.15249674416E+03 -0.31304744471E+03 -0.32007151839E+03  0.47296906506E+03  0.00000000000E+00 0.  1.
         -3    1    6    6    0  502 -0.66186311959E+02  0.10442002554E+03 -0.16045437501E+03  0.20255808076E+03  0.00000000000E+00 0.  1.
<mgrwt>
<rscale>  0 0.16051593E+04</rscale>
<asrwt>0</asrwt>
<pdfrwt beam="1">  1        2 0.20986228E+00 0.16051593E+04</pdfrwt>
<pdfrwt beam="2">  1       -2 0.72646582E-01 0.16051593E+04</pdfrwt>
<totfact> 0.24923917E+01</totfact>
</mgrwt>
</event>
<event>
12    1  0.1114484E-007  0.1882892E+04  0.7818608E-02  0.8663419E-01
          2   -1    0    0  501    0  0.00000000000E+00  0.00000000000E+00  0.25747325887E+04  0.25747325887E+04  0.00000000000E+00 0. -1.
         -2   -1    0    0    0  501 -0.00000000000E+00 -0.00000000000E+00 -0.34423785486E+03  0.34423785486E+03  0.00000000000E+00 0.  1.
         23    2    1    2    0    0 -0.40980446376E+03  0.54285302008E+03  0.13229840170E+04  0.14903987655E+04  0.91502300272E+02 0.  0.
        254    2    1    2    0    0  0.40980446376E+03 -0.54285302008E+03  0.90751071682E+03  0.14285716781E+04  0.86868419941E+03 0.  0.
        -24    2    4    4    0    0  0.63732901289E+02 -0.69877575020E+03  0.67155496913E+03  0.97457920450E+03  0.80430824369E+02 0.  0.
         24    2    4    4    0    0  0.34607156247E+03  0.15592273012E+03  0.23595574769E+03  0.45399247357E+03  0.79728458313E+02 0.  0.
         11    1    3    3    0    0 -0.70952169197E+02  0.14888726884E+03  0.36562540061E+03  0.40110293281E+03  0.00000000000E+00 0.  1.
        -11    1    3    3    0    0 -0.33885229457E+03  0.39396575124E+03  0.95735861636E+03  0.10892958326E+04  0.00000000000E+00 0. -1.
          2    1    6    6  502    0  0.80382136253E+02  0.22954905870E+02  0.90471115758E+02  0.12317969930E+03  0.00000000000E+00 0. -1.
          3    1    5    5  503    0  0.11657367272E+02 -0.33555752380E+02  0.58565111818E+02  0.68496387143E+02  0.00000000000E+00 0. -1.
         -4    1    5    5    0  503  0.52075534017E+02 -0.66521999782E+03  0.61298985731E+03  0.90608281736E+03  0.00000000000E+00 0.  1.
         -1    1    6    6    0  502  0.26568942622E+03  0.13296782426E+03  0.14548463193E+03  0.33081277427E+03  0.00000000000E+00 0.  1.
<mgrwt>
<rscale>  0 0.18828918E+04</rscale>
<asrwt>0</asrwt>
<pdfrwt beam="1">  1        2 0.39611269E+00 0.18828918E+04</pdfrwt>
<pdfrwt beam="2">  1       -2 0.52959672E-01 0.18828918E+04</pdfrwt>
<totfact> 0.99414347E+00</totfact>
</mgrwt>
</event>
<event>
12    1  0.1114484E-007  0.1545682E+04  0.7818608E-02  0.8854630E-01
          2   -1    0    0  501    0  0.00000000000E+00  0.00000000000E+00  0.17714289353E+04  0.17714289353E+04  0.00000000000E+00 0. -1.
         -2   -1    0    0    0  501 -0.00000000000E+00 -0.00000000000E+00 -0.33717606886E+03  0.33717606886E+03  0.00000000000E+00 0.  1.
         23    2    1    2    0    0 -0.40282836711E+03  0.25783952813E+03  0.24965158751E+03  0.54587411829E+03  0.83070585954E+02 0.  0.
        254    2    1    2    0    0  0.40282836711E+03 -0.25783952813E+03  0.11846012790E+04  0.15627308859E+04  0.90005317401E+03 0.  0.
        -24    2    4    4    0    0  0.49521802897E+03 -0.19612435451E+03  0.12840142300E+04  0.13923891121E+04  0.79682105551E+02 0.  0.
         24    2    4    4    0    0 -0.92389661854E+02 -0.61715173619E+02 -0.99412951013E+02  0.17034177385E+03  0.82394009602E+02 0.  0.
         13    1    3    3    0    0 -0.36343706887E+03  0.23406438623E+03  0.25094463438E+03  0.49984582569E+03  0.00000000000E+00 0.  1.
        -13    1    3    3    0    0 -0.39391298243E+02  0.23775141897E+02 -0.12930468690E+01  0.46028292600E+02  0.00000000000E+00 0. -1.
          2    1    6    6  502    0 -0.48901666742E+02 -0.66895506578E+02 -0.95400174058E+02  0.12636287042E+03  0.00000000000E+00 0. -1.
          3    1    5    5  503    0  0.34028514789E+03 -0.97386281296E+02  0.80641808290E+03  0.88067485152E+03  0.00000000000E+00 0. -1.
         -4    1    5    5    0  503  0.15493288107E+03 -0.98738073215E+02  0.47759614708E+03  0.51171426055E+03  0.00000000000E+00 0.  1.
         -1    1    6    6    0  502 -0.43487995112E+02  0.51803329583E+01 -0.40127769553E+01  0.43978903435E+02  0.00000000000E+00 0.  1.
<mgrwt>
<rscale>  0 0.15456823E+04</rscale>
<asrwt>0</asrwt>
<pdfrwt beam="1">  1        2 0.27252752E+00 0.15456823E+04</pdfrwt>
<pdfrwt beam="2">  1       -2 0.51873242E-01 0.15456823E+04</pdfrwt>
<totfact> 0.30240312E+01</totfact>
</mgrwt>
</event>
<event>
12    1  0.1114484E-007  0.1911692E+04  0.7818608E-02  0.8649058E-01
         -2   -1    0    0    0  501 -0.00000000000E+00  0.00000000000E+00  0.51471364376E+03  0.51471364376E+03  0.00000000000E+00 0.  1.
          2   -1    0    0  501    0  0.00000000000E+00 -0.00000000000E+00 -0.17750480850E+04  0.17750480850E+04  0.00000000000E+00 0. -1.
         23    2    1    2    0    0 -0.41527636523E+03  0.60158595435E+03 -0.34552444437E+03  0.81378495100E+03  0.92188311726E+02 0.  0.
        254    2    1    2    0    0  0.41527636523E+03 -0.60158595435E+03 -0.91480999689E+03  0.14759767778E+04  0.89848205221E+03 0.  0.
        -24    2    4    4    0    0 -0.41594509906E+00  0.20825408748E+03 -0.74784752648E+02  0.23518756522E+03  0.79689984594E+02 0.  0.
         24    2    4    4    0    0  0.41569231033E+03 -0.80984004183E+03 -0.84002524424E+03  0.12407892126E+04  0.72625538287E+02 0.  0.
         11    1    3    3    0    0 -0.86475458186E+02  0.94480079026E+02 -0.95371860238E+02  0.15968807697E+03  0.00000000000E+00 0. -1.
        -11    1    3    3    0    0 -0.32880090705E+03  0.50710587532E+03 -0.25015258414E+03  0.65409687403E+03  0.00000000000E+00 0.  1.
          2    1    6    6  502    0  0.63517348359E+02 -0.86078867900E+02 -0.12095483374E+03  0.16147475607E+03  0.00000000000E+00 0. -1.
          1    1    5    5  503    0  0.25163268963E+02  0.34523350177E+02 -0.34771634769E+02  0.55082832142E+02  0.00000000000E+00 0. -1.
         -2    1    5    5    0  503 -0.25579214062E+02  0.17373073730E+03 -0.40013117879E+02  0.18010473308E+03  0.00000000000E+00 0.  1.
         -1    1    6    6    0  502  0.35217496197E+03 -0.72376117393E+03 -0.71907041050E+03  0.10793144565E+04  0.00000000000E+00 0.  1.
<mgrwt>
<rscale>  0 0.19116919E+04</rscale>
<asrwt>0</asrwt>
<pdfrwt beam="1">  1        2 0.27308432E+00 0.19116919E+04</pdfrwt>
<pdfrwt beam="2">  1       -2 0.79186714E-01 0.19116919E+04</pdfrwt>
<totfact> 0.11789153E+01</totfact>
</mgrwt>
</event>
<event>
12    1  0.1114484E-007  0.2039308E+04  0.7818608E-02  0.8588460E-01
         -1   -1    0    0    0  501 -0.00000000000E+00  0.00000000000E+00  0.41825993816E+03  0.41825993816E+03  0.00000000000E+00 0.  1.
          1   -1    0    0  501    0  0.00000000000E+00 -0.00000000000E+00 -0.24857614909E+04  0.24857614909E+04  0.00000000000E+00 0. -1.
         23    2    1    2    0    0  0.44596131778E+02 -0.79281307177E+03 -0.11512694746E+04  0.14014592504E+04  0.90140144784E+02 0.  0.
        254    2    1    2    0    0 -0.44596131778E+02  0.79281307177E+03 -0.91623207814E+03  0.15025621786E+04  0.88750802696E+03 0.  0.
        -24    2    4    4    0    0 -0.95527556171E+02  0.78222066261E+03 -0.25085201314E+03  0.83087878390E+03  0.80238033652E+02 0.  0.
         24    2    4    4    0    0  0.50931424393E+02  0.10592409159E+02 -0.66538006500E+03  0.67168339473E+03  0.75642202117E+02 0.  0.
         13    1    3    3    0    0  0.15747254354E+02 -0.20272593888E+03 -0.22960668186E+03  0.30670019673E+03  0.00000000000E+00 0. -1.
        -13    1    3    3    0    0  0.28848877424E+02 -0.59008713288E+03 -0.92166279274E+03  0.10947590537E+04  0.00000000000E+00 0.  1.
          2    1    6    6  502    0  0.27363991520E+02  0.34112054935E+02 -0.54595916633E+03  0.54770779767E+03  0.00000000000E+00 0. -1.
          1    1    5    5  503    0 -0.30877245823E+02  0.46176057432E+03 -0.11505042361E+03  0.47687821535E+03  0.00000000000E+00 0. -1.
         -2    1    5    5    0  503 -0.64650310348E+02  0.32046008829E+03 -0.13580158954E+03  0.35400056855E+03  0.00000000000E+00 0.  1.
         -1    1    6    6    0  502  0.23567432873E+02 -0.23519645775E+02 -0.11942089867E+03  0.12397559707E+03  0.00000000000E+00 0.  1.
<mgrwt>
<rscale>  0 0.20393082E+04</rscale>
<asrwt>0</asrwt>
<pdfrwt beam="1">  1        1 0.38242485E+00 0.20393082E+04</pdfrwt>
<pdfrwt beam="2">  1       -1 0.64347682E-01 0.20393082E+04</pdfrwt>
<totfact> 0.31390613E+00</totfact>
</mgrwt>
</event>
<event>
12    1  0.1114484E-007  0.1354920E+04  0.7818608E-02  0.8987112E-01
          2   -1    0    0  501    0  0.00000000000E+00  0.00000000000E+00  0.15451861461E+04  0.15451861461E+04  0.00000000000E+00 0. -1.
         -2   -1    0    0    0  501 -0.00000000000E+00 -0.00000000000E+00 -0.29702068884E+03  0.29702068884E+03  0.00000000000E+00 0.  1.
         23    2    1    2    0    0  0.12970646042E+03  0.23565137447E+03  0.67915557730E+03  0.73623120248E+03  0.91808219515E+02 0.  0.
        254    2    1    2    0    0 -0.12970646042E+03 -0.23565137447E+03  0.56900987993E+03  0.11059756324E+04  0.90942537895E+03 0.  0.
        -24    2    4    4    0    0  0.93750079233E+02 -0.23223965975E+03  0.75805118280E+03  0.80249173006E+03  0.81406659134E+02 0.  0.
         24    2    4    4    0    0 -0.22345653965E+03 -0.34117147183E+01 -0.18904130288E+03  0.30348390235E+03  0.80133637650E+02 0.  0.
         11    1    3    3    0    0  0.73557160794E+02  0.20036484927E+03  0.56822077861E+03  0.60698565220E+03  0.00000000000E+00 0. -1.
        -11    1    3    3    0    0  0.56149299627E+02  0.35286525202E+02  0.11093479869E+03  0.12924555029E+03  0.00000000000E+00 0.  1.
          4    1    6    6  502    0  0.53891183323E+01 -0.65658240731E+01 -0.80006141991E+01  0.11668867542E+02  0.00000000000E+00 0. -1.
          1    1    5    5  503    0  0.17498282786E+02 -0.12752787824E+03  0.29937134952E+03  0.32587229790E+03  0.00000000000E+00 0. -1.
         -2    1    5    5    0  503  0.76251796447E+02 -0.10471178151E+03  0.45867983328E+03  0.47661943216E+03  0.00000000000E+00 0.  1.
         -3    1    6    6    0  502 -0.22884565799E+03  0.31541093548E+01 -0.18104068868E+03  0.29181503481E+03  0.00000000000E+00 0.  1.
<mgrwt>
<rscale>  0 0.13549203E+04</rscale>
<asrwt>0</asrwt>
<pdfrwt beam="1">  1        2 0.23772094E+00 0.13549203E+04</pdfrwt>
<pdfrwt beam="2">  1       -2 0.45695491E-01 0.13549203E+04</pdfrwt>
<totfact> 0.53066134E+01</totfact>
</mgrwt>
</event>
<event>
12    1  0.1114484E-007  0.1360684E+04  0.7818608E-02  0.8982779E-01
         -2   -1    0    0    0  501 -0.00000000000E+00  0.00000000000E+00  0.25085091269E+03  0.25085091269E+03  0.00000000000E+00 0.  1.
          2   -1    0    0  501    0  0.00000000000E+00 -0.00000000000E+00 -0.18451812122E+04  0.18451812122E+04  0.00000000000E+00 0. -1.
         23    2    1    2    0    0  0.33996046883E+03 -0.12049508490E+03 -0.35129450272E+03  0.51203967908E+03  0.93191305755E+02 0.  0.
        254    2    1    2    0    0 -0.33996046883E+03  0.12049508490E+03 -0.12430357967E+04  0.15839924458E+04  0.91312753236E+03 0.  0.
        -24    2    4    4    0    0 -0.51520887410E+03 -0.18534636858E+03 -0.10169745332E+04  0.11577568832E+04  0.79814404913E+02 0.  0.
         24    2    4    4    0    0  0.17524840528E+03  0.30584145348E+03 -0.22606126358E+03  0.42623556254E+03  0.79511393274E+02 0.  0.
         13    1    3    3    0    0 -0.40822017362E+01 -0.41736955510E+01 -0.18668741221E+02  0.19560317082E+02  0.00000000000E+00 0. -1.
        -13    1    3    3    0    0  0.34404267056E+03 -0.11632138935E+03 -0.33262576150E+03  0.49247936200E+03  0.00000000000E+00 0.  1.
          4    1    6    6  502    0  0.16790982813E+03  0.30800014146E+03 -0.22795462375E+03  0.41835524141E+03  0.00000000000E+00 0. -1.
          1    1    5    5  503    0 -0.46120298344E+03 -0.16054843911E+03 -0.84705877365E+03  0.97774871990E+03  0.00000000000E+00 0. -1.
         -2    1    5    5    0  503 -0.54005890665E+02 -0.24797929465E+02 -0.16991575951E+03  0.18000816332E+03  0.00000000000E+00 0.  1.
         -3    1    6    6    0  502  0.73385771470E+01 -0.21586879866E+01  0.18933601666E+01  0.78803211284E+01  0.00000000000E+00 0.  1.
<mgrwt>
<rscale>  0 0.13606842E+04</rscale>
<asrwt>0</asrwt>
<pdfrwt beam="1">  1        2 0.28387404E+00 0.13606842E+04</pdfrwt>
<pdfrwt beam="2">  1       -2 0.38592447E-01 0.13606842E+04</pdfrwt>
<totfact> 0.50433155E+01</totfact>
</mgrwt>
</event>
<event>
12    1  0.1114484E-007  0.2431938E+04  0.7818608E-02  0.8427642E-01
         -2   -1    0    0    0  501 -0.00000000000E+00  0.00000000000E+00  0.15006975577E+04  0.15006975577E+04  0.00000000000E+00 0.  1.
          2   -1    0    0  501    0  0.00000000000E+00 -0.00000000000E+00 -0.98526212090E+03  0.98526212090E+03  0.00000000000E+00 0. -1.
         23    2    1    2    0    0 -0.21450712150E+03  0.90726684945E+03  0.71326741636E+03  0.11773748189E+04  0.91184514594E+02 0.  0.
        254    2    1    2    0    0  0.21450712150E+03 -0.90726684945E+03 -0.19783197955E+03  0.13085848597E+04  0.89672203139E+03 0.  0.
        -24    2    4    4    0    0  0.31296715567E+03 -0.10325524981E+04 -0.60667292778E+02  0.10836130362E+04  0.80147300436E+02 0.  0.
         24    2    4    4    0    0 -0.98460034162E+02  0.12528564869E+03 -0.13716468677E+03  0.22497182354E+03  0.80045599469E+02 0.  0.
         11    1    3    3    0    0  0.54748156469E+01  0.44682927158E+01  0.89229106270E+01  0.11382336325E+02  0.00000000000E+00 0. -1.
        -11    1    3    3    0    0 -0.21998193715E+03  0.90279855674E+03  0.70434450574E+03  0.11659924826E+04  0.00000000000E+00 0.  1.
          2    1    6    6  502    0 -0.96025184585E+01  0.53606753032E+01 -0.51951675219E+02  0.53102935498E+02  0.00000000000E+00 0. -1.
          3    1    5    5  503    0  0.10840827678E+03 -0.25499972351E+03 -0.33947415032E+02  0.27915880866E+03  0.00000000000E+00 0. -1.
         -4    1    5    5    0  503  0.20455887888E+03 -0.77755277463E+03 -0.26719877745E+02  0.80445422749E+03  0.00000000000E+00 0.  1.
         -1    1    6    6    0  502 -0.88857515704E+02  0.11992497338E+03 -0.85213011555E+02  0.17186888804E+03  0.00000000000E+00 0.  1.
<mgrwt>
<rscale>  0 0.24319379E+04</rscale>
<asrwt>0</asrwt>
<pdfrwt beam="1">  1        2 0.15157879E+00 0.24319379E+04</pdfrwt>
<pdfrwt beam="2">  1       -2 0.23087655E+00 0.24319379E+04</pdfrwt>
<totfact> 0.19491573E+00</totfact>
</mgrwt>
</event>
<event>
12    1  0.1347697E-007  0.2907974E+04  0.7818608E-02  0.8270509E-01
          1   -1    0    0  501    0  0.00000000000E+00  0.00000000000E+00  0.23719608310E+04  0.23719608310E+04  0.00000000000E+00 0. -1.
         -1   -1    0    0    0  501 -0.00000000000E+00 -0.00000000000E+00 -0.89127900549E+03  0.89127900549E+03  0.00000000000E+00 0.  1.
         23    2    1    2    0    0 -0.81685277004E+03 -0.37630693988E+03  0.17791516356E+04  0.19957108250E+04  0.92875150026E+02 0.  0.
        254    2    1    2    0    0  0.81685277004E+03  0.37630693988E+03 -0.29846981009E+03  0.12675290115E+04  0.84183739915E+03 0.  0.
        -24    2    4    4    0    0  0.37850258604E+03 -0.25152967571E+03 -0.13351355941E+03  0.48016177015E+03  0.78727819517E+02 0.  0.
         24    2    4    4    0    0  0.43835018400E+03  0.62783661559E+03 -0.16495625068E+03  0.78736724137E+03  0.80043166215E+02 0.  0.
         11    1    3    3    0    0 -0.65144314021E+03 -0.25891919010E+03  0.13579547942E+04  0.15282207088E+04  0.00000000000E+00 0. -1.
        -11    1    3    3    0    0 -0.16540962983E+03 -0.11738774978E+03  0.42119684146E+03  0.46749011615E+03  0.00000000000E+00 0.  1.
          4    1    6    6  502    0  0.43364429072E+03  0.62509433332E+03 -0.15558598837E+03  0.77652900538E+03  0.00000000000E+00 0. -1.
          1    1    5    5  503    0  0.27799792487E+03 -0.21466437158E+03 -0.78905394134E+02  0.35998569400E+03  0.00000000000E+00 0. -1.
         -2    1    5    5    0  503  0.10050466117E+03 -0.36865304133E+02 -0.54608165273E+02  0.12017607616E+03  0.00000000000E+00 0.  1.
         -3    1    6    6    0  502  0.47058932807E+01  0.27422822772E+01 -0.93702623150E+01  0.10838235996E+02  0.00000000000E+00 0.  1.
<mgrwt>
<rscale>  0 0.29079745E+04</rscale>
<asrwt>0</asrwt>
<pdfrwt beam="1">  1        1 0.36491705E+00 0.29079745E+04</pdfrwt>
<pdfrwt beam="2">  1       -1 0.13711985E+00 0.29079745E+04</pdfrwt>
<totfact> 0.63024971E-01</totfact>
</mgrwt>
</event>
<event>
12    1  0.1114484E-007  0.1579043E+04  0.7818608E-02  0.8833527E-01
          2   -1    0    0  501    0  0.00000000000E+00  0.00000000000E+00  0.11654872054E+04  0.11654872054E+04  0.00000000000E+00 0. -1.
         -2   -1    0    0    0  501 -0.00000000000E+00 -0.00000000000E+00 -0.53483571876E+03  0.53483571876E+03  0.00000000000E+00 0.  1.
         23    2    1    2    0    0 -0.19463835447E+03 -0.11555543014E+03 -0.30432711904E+03  0.38992785444E+03  0.90507401975E+02 0.  0.
        254    2    1    2    0    0  0.19463835447E+03  0.11555543014E+03  0.93497860564E+03  0.13103950697E+04  0.88978261344E+03 0.  0.
        -24    2    4    4    0    0 -0.31904943527E+03 -0.61294106653E+02  0.53874724313E+03  0.63397815941E+03  0.78295625515E+02 0.  0.
         24    2    4    4    0    0  0.51368778974E+03  0.17684953679E+03  0.39623136252E+03  0.67641691028E+03  0.73414166743E+02 0.  0.
         13    1    3    3    0    0 -0.11958630990E+03 -0.56969469982E+02 -0.24275138436E+03  0.27654048643E+03  0.00000000000E+00 0.  1.
        -13    1    3    3    0    0 -0.75052044568E+02 -0.58585960159E+02 -0.61575734689E+02  0.11338736801E+03  0.00000000000E+00 0. -1.
          2    1    6    6  502    0  0.11463343194E+03  0.64748409669E+02  0.12137216260E+03  0.17906530129E+03  0.00000000000E+00 0. -1.
          3    1    5    5  503    0 -0.15596587989E+03 -0.96910822008E+01  0.19383899872E+03  0.24898359422E+03  0.00000000000E+00 0. -1.
         -4    1    5    5    0  503 -0.16308355538E+03 -0.51603024452E+02  0.34490824441E+03  0.38499456519E+03  0.00000000000E+00 0.  1.
         -1    1    6    6    0  502  0.39905435780E+03  0.11210112713E+03  0.27485919991E+03  0.49735160898E+03  0.00000000000E+00 0.  1.
<mgrwt>
<rscale>  0 0.15790430E+04</rscale>
<asrwt>0</asrwt>
<pdfrwt beam="1">  1        2 0.17930572E+00 0.15790430E+04</pdfrwt>
<pdfrwt beam="2">  1       -2 0.82282419E-01 0.15790430E+04</pdfrwt>
<totfact> 0.24758444E+01</totfact>
</mgrwt>
</event>
<event>
12    1  0.1114484E-007  0.1627883E+04  0.7818608E-02  0.8803599E-01
         -2   -1    0    0    0  501 -0.00000000000E+00  0.00000000000E+00  0.35373024063E+03  0.35373024063E+03  0.00000000000E+00 0.  1.
          2   -1    0    0  501    0  0.00000000000E+00 -0.00000000000E+00 -0.18728986297E+04  0.18728986297E+04  0.00000000000E+00 0. -1.
         23    2    1    2    0    0  0.20703002390E+03  0.39169671940E+03 -0.96938159398E+03  0.10697504862E+04  0.91529652272E+02 0.  0.
        254    2    1    2    0    0 -0.20703002390E+03 -0.39169671940E+03 -0.54978679509E+03  0.11568783841E+04  0.91641383924E+03 0.  0.
        -24    2    4    4    0    0 -0.35719753865E+03 -0.61154325861E+03 -0.50837950972E+03  0.87547566482E+03  0.80203958807E+02 0.  0.
         24    2    4    4    0    0  0.15016751475E+03  0.21984653921E+03 -0.41407285369E+02  0.28140271929E+03  0.81179700990E+02 0.  0.
         11    1    3    3    0    0  0.41715608142E+02  0.69071166857E+02 -0.10495879549E+03  0.13239096195E+03  0.00000000000E+00 0.  1.
        -11    1    3    3    0    0  0.16531441576E+03  0.32262555255E+03 -0.86442279849E+03  0.93735952428E+03  0.00000000000E+00 0. -1.
          4    1    6    6  502    0  0.31555039333E+02  0.36849409402E+01 -0.52178810078E+01  0.32195117320E+02  0.00000000000E+00 0. -1.
          1    1    5    5  503    0 -0.28110775930E+03 -0.40972174650E+03 -0.34555257635E+03  0.60522728369E+03  0.00000000000E+00 0. -1.
         -2    1    5    5    0  503 -0.76089779346E+02 -0.20182151211E+03 -0.16282693338E+03  0.27024838113E+03  0.00000000000E+00 0.  1.
         -3    1    6    6    0  502  0.11861247541E+03  0.21616159827E+03 -0.36189404361E+02  0.24920760197E+03  0.00000000000E+00 0.  1.
<mgrwt>
<rscale>  0 0.16278831E+04</rscale>
<asrwt>0</asrwt>
<pdfrwt beam="1">  1        2 0.28813826E+00 0.16278831E+04</pdfrwt>
<pdfrwt beam="2">  1       -2 0.54420035E-01 0.16278831E+04</pdfrwt>
<totfact> 0.23907597E+01</totfact>
</mgrwt>
</event>
<event>
12    1  0.1156801E-007  0.1567665E+04  0.7818608E-02  0.8840662E-01
          1   -1    0    0  501    0  0.00000000000E+00  0.00000000000E+00  0.17760469786E+04  0.17760469786E+04  0.00000000000E+00 0. -1.
         -1   -1    0    0    0  501 -0.00000000000E+00 -0.00000000000E+00 -0.34593315906E+03  0.34593315906E+03  0.00000000000E+00 0.  1.
         23    2    1    2    0    0  0.68641358612E+02 -0.29565035428E+03 -0.79865014640E+02  0.32691187970E+03  0.91499663534E+02 0.  0.
        254    2    1    2    0    0 -0.68641358612E+02  0.29565035428E+03  0.15099788342E+04  0.17950682580E+04  0.92201583664E+03 0.  0.
        -24    2    4    4    0    0  0.29017595267E+02  0.44361840854E+03  0.24258193235E+03  0.51270473463E+03  0.79880146313E+02 0.  0.
         24    2    4    4    0    0 -0.97658953879E+02 -0.14796805426E+03  0.12673969018E+04  0.12823635234E+04  0.82033425439E+02 0.  0.
         11    1    3    3    0    0 -0.79514144467E+01 -0.44169155174E+01 -0.17004183398E+02  0.19284096749E+02  0.00000000000E+00 0. -1.
        -11    1    3    3    0    0  0.76592773058E+02 -0.29123343876E+03 -0.62860831242E+02  0.30762778295E+03  0.00000000000E+00 0.  1.
          2    1    6    6  502    0 -0.84945883119E+02 -0.10080294698E+03  0.66187476701E+03  0.67487424339E+03  0.00000000000E+00 0. -1.
          1    1    5    5  503    0  0.44699502469E+02  0.37084093505E+03  0.22552289469E+03  0.43632742369E+03  0.00000000000E+00 0. -1.
         -4    1    5    5    0  503 -0.15681907201E+02  0.72777473485E+02  0.17059037664E+02  0.76377310940E+02  0.00000000000E+00 0.  1.
         -3    1    6    6    0  502 -0.12713070760E+02 -0.47165107277E+02  0.60552213483E+03  0.60748927998E+03  0.00000000000E+00 0.  1.
<mgrwt>
<rscale>  0 0.15676652E+04</rscale>
<asrwt>0</asrwt>
<pdfrwt beam="1">  1        1 0.27323799E+00 0.15676652E+04</pdfrwt>
<pdfrwt beam="2">  1       -1 0.53220487E-01 0.15676652E+04</pdfrwt>
<totfact> 0.14491935E+01</totfact>
</mgrwt>
</event>
<event>
12    1  0.1114484E-007  0.1607313E+04  0.7818608E-02  0.8816068E-01
         -2   -1    0    0    0  501 -0.00000000000E+00  0.00000000000E+00  0.37908934998E+03  0.37908934998E+03  0.00000000000E+00 0.  1.
          2   -1    0    0  501    0  0.00000000000E+00 -0.00000000000E+00 -0.17037244972E+04  0.17037244972E+04  0.00000000000E+00 0. -1.
         23    2    1    2    0    0  0.35551087727E+03  0.13798096327E+03  0.40768122905E+02  0.39421862798E+03  0.91211604080E+02 0.  0.
        254    2    1    2    0    0 -0.35551087727E+03 -0.13798096327E+03 -0.13654032701E+04  0.16885952192E+04  0.91738813711E+03 0.  0.
        -24    2    4    4    0    0  0.14822012716E+03 -0.31791238335E+03 -0.21944412341E+03  0.42139420669E+03  0.79874054275E+02 0.  0.
         24    2    4    4    0    0 -0.50373100443E+03  0.17993142008E+03 -0.11459591467E+04  0.12672010125E+04  0.80347989241E+02 0.  0.
         11    1    3    3    0    0 -0.24434416871E+01  0.11959411078E+02 -0.18388400694E+01  0.12344199180E+02  0.00000000000E+00 0. -1.
        -11    1    3    3    0    0  0.35795431896E+03  0.12602155219E+03  0.42606962974E+02  0.38187442880E+03  0.00000000000E+00 0.  1.
          4    1    6    6  502    0 -0.35618704843E+03  0.92676195528E+02 -0.73763319099E+03  0.82435478717E+03  0.00000000000E+00 0. -1.
          1    1    5    5  503    0  0.15171391238E+03 -0.26756232355E+03 -0.20205201940E+03  0.36801049814E+03  0.00000000000E+00 0. -1.
         -2    1    5    5    0  503 -0.34937852130E+01 -0.50350059799E+02 -0.17392104002E+02  0.53383708549E+02  0.00000000000E+00 0.  1.
         -1    1    6    6    0  502 -0.14754395600E+03  0.87255224553E+02 -0.40832595569E+03  0.44284622529E+03  0.00000000000E+00 0.  1.
<mgrwt>
<rscale>  0 0.16073131E+04</rscale>
<asrwt>0</asrwt>
<pdfrwt beam="1">  1        2 0.26211146E+00 0.16073131E+04</pdfrwt>
<pdfrwt beam="2">  1       -2 0.58321438E-01 0.16073131E+04</pdfrwt>
<totfact> 0.25719288E+01</totfact>
</mgrwt>
</event>
<event>
12    1  0.1114484E-007  0.1166596E+04  0.7818608E-02  0.9142608E-01
          2   -1    0    0  501    0  0.00000000000E+00  0.00000000000E+00  0.79843626410E+03  0.79843626410E+03  0.00000000000E+00 0. -1.
         -2   -1    0    0    0  501 -0.00000000000E+00 -0.00000000000E+00 -0.42612864238E+03  0.42612864238E+03  0.00000000000E+00 0.  1.
         23    2    1    2    0    0  0.80422941459E+01  0.67354917845E+02  0.29753974507E+03  0.31883856110E+03  0.92340482417E+02 0.  0.
        254    2    1    2    0    0 -0.80422941459E+01 -0.67354917845E+02  0.74767876649E+02  0.90572634539E+03  0.90008255949E+03 0.  0.
        -24    2    4    4    0    0 -0.13884988930E+03  0.36578482545E+03  0.17405574689E+03  0.43501252646E+03  0.76568040723E+02 0.  0.
         24    2    4    4    0    0  0.13080759515E+03 -0.43313974329E+03 -0.99287870245E+02  0.47071381893E+03  0.83622688240E+02 0.  0.
         11    1    3    3    0    0  0.21448314687E+02  0.15921173079E+02  0.23606619567E+03  0.23757264719E+03  0.00000000000E+00 0. -1.
        -11    1    3    3    0    0 -0.13406020541E+02  0.51433744766E+02  0.61473549405E+02  0.81265913911E+02  0.00000000000E+00 0.  1.
          2    1    6    6  502    0  0.10016259237E+03 -0.25020819566E+03 -0.24149426552E+02  0.27059172361E+03  0.00000000000E+00 0. -1.
          1    1    5    5  503    0 -0.90705769548E+01  0.15390596607E+02  0.29259791878E+02  0.34282375224E+02  0.00000000000E+00 0. -1.
         -2    1    5    5    0  503 -0.12977931234E+03  0.35039422884E+03  0.14479595502E+03  0.40073015123E+03  0.00000000000E+00 0.  1.
         -1    1    6    6    0  502  0.30645002785E+02 -0.18293154763E+03 -0.75138443693E+02  0.20012209532E+03  0.00000000000E+00 0.  1.
<mgrwt>
<rscale>  0 0.11665960E+04</rscale>
<asrwt>0</asrwt>
<pdfrwt beam="1">  1        2 0.12283635E+00 0.11665960E+04</pdfrwt>
<pdfrwt beam="2">  1       -2 0.65558252E-01 0.11665960E+04</pdfrwt>
<totfact> 0.73225899E+01</totfact>
</mgrwt>
</event>
<event>
12    1  0.1114484E-007  0.2251438E+04  0.7818608E-02  0.8497318E-01
          3   -1    0    0  501    0  0.00000000000E+00  0.00000000000E+00  0.21260516759E+04  0.21260516759E+04  0.00000000000E+00 0. -1.
         -3   -1    0    0    0  501 -0.00000000000E+00 -0.00000000000E+00 -0.59605464333E+03  0.59605464333E+03  0.00000000000E+00 0.  1.
         23    2    1    2    0    0  0.39461036969E+03 -0.87854497713E+02  0.16778507836E+04  0.17282890953E+04  0.91455936979E+02 0.  0.
        254    2    1    2    0    0 -0.39461036969E+03  0.87854497713E+02 -0.14785375102E+03  0.99381722391E+03  0.89575453457E+03 0.  0.
        -24    2    4    4    0    0 -0.32281311139E+03  0.37593279594E+03 -0.36241828195E+03  0.61924794779E+03  0.81161800082E+02 0.  0.
         24    2    4    4    0    0 -0.71797258291E+02 -0.28807829823E+03  0.21456453094E+03  0.37456927612E+03  0.78232042482E+02 0.  0.
         13    1    3    3    0    0  0.30363668007E+03 -0.81370322932E+02  0.14312095247E+04  0.14653249014E+04  0.00000000000E+00 0. -1.
        -13    1    3    3    0    0  0.90973689617E+02 -0.64841747811E+01  0.24664125884E+03  0.26296419393E+03  0.00000000000E+00 0.  1.
          2    1    6    6  502    0 -0.63372720502E+02 -0.14019349118E+03  0.75432605968E+02  0.17134875172E+03  0.00000000000E+00 0. -1.
          1    1    5    5  503    0 -0.18154979690E+03  0.19067088899E+03 -0.14492679373E+03  0.30053201527E+03  0.00000000000E+00 0. -1.
         -2    1    5    5    0  503 -0.14126331449E+03  0.18526190694E+03 -0.21749148822E+03  0.31871593251E+03  0.00000000000E+00 0.  1.
         -1    1    6    6    0  502 -0.84245377887E+01 -0.14788480704E+03  0.13913192497E+03  0.20322052440E+03  0.00000000000E+00 0.  1.
<mgrwt>
<rscale>  0 0.22514377E+04</rscale>
<asrwt>0</asrwt>
<pdfrwt beam="1">  1        3 0.32708487E+00 0.22514377E+04</pdfrwt>
<pdfrwt beam="2">  1       -3 0.91700716E-01 0.22514377E+04</pdfrwt>
<totfact> 0.69744339E-02</totfact>
</mgrwt>
</event>
<event>
12    1  0.1197200E-007  0.2402614E+04  0.7818608E-02  0.8438526E-01
         -2   -1    0    0    0  501 -0.00000000000E+00  0.00000000000E+00  0.71133878630E+03  0.71133878630E+03  0.00000000000E+00 0.  1.
          2   -1    0    0  501    0  0.00000000000E+00 -0.00000000000E+00 -0.20287642579E+04  0.20287642579E+04  0.00000000000E+00 0. -1.
         23    2    1    2    0    0 -0.65111271058E+03 -0.64078013859E+03 -0.14892094128E+02  0.91803549488E+03  0.89556951177E+02 0.  0.
        254    2    1    2    0    0  0.65111271058E+03  0.64078013859E+03 -0.13025333775E+04  0.18220675494E+04  0.88813850667E+03 0.  0.
        -24    2    4    4    0    0  0.41828924604E+03 -0.11083941913E+03 -0.25225392888E+03  0.50730228847E+03  0.80450587737E+02 0.  0.
         24    2    4    4    0    0  0.23282346454E+03  0.75161955772E+03 -0.10502794486E+04  0.13147652609E+04  0.79887707796E+02 0.  0.
         11    1    3    3    0    0 -0.45828215655E+02 -0.80450019357E+02  0.76303609426E+01  0.92901309855E+02  0.00000000000E+00 0. -1.
        -11    1    3    3    0    0 -0.60528449493E+03 -0.56033011923E+03 -0.22522455071E+02  0.82513418503E+03  0.00000000000E+00 0.  1.
          4    1    6    6  502    0  0.16572783774E+03  0.58228182809E+03 -0.75396189833E+03  0.96694177056E+03  0.00000000000E+00 0. -1.
          3    1    5    5  503    0  0.39195627927E+03 -0.95357244209E+02 -0.25401648789E+03  0.47670442101E+03  0.00000000000E+00 0. -1.
         -4    1    5    5    0  503  0.26332966761E+02 -0.15482174923E+02  0.17625590167E+01  0.30597867460E+02  0.00000000000E+00 0.  1.
         -1    1    6    6    0  502  0.67095626801E+02  0.16933772963E+03 -0.29631755030E+03  0.34782349033E+03  0.00000000000E+00 0.  1.
<mgrwt>
<rscale>  0 0.24026142E+04</rscale>
<asrwt>0</asrwt>
<pdfrwt beam="1">  1        2 0.31211757E+00 0.24026142E+04</pdfrwt>
<pdfrwt beam="2">  1       -2 0.10943674E+00 0.24026142E+04</pdfrwt>
<totfact> 0.38509879E+00</totfact>
</mgrwt>
</event>
<event>
12    1  0.1114484E-007  0.1797060E+04  0.7818608E-02  0.8707864E-01
          1   -1    0    0  501    0  0.00000000000E+00  0.00000000000E+00  0.98012375722E+03  0.98012375722E+03  0.00000000000E+00 0.  1.
         -1   -1    0    0    0  501 -0.00000000000E+00 -0.00000000000E+00 -0.82372899182E+03  0.82372899182E+03  0.00000000000E+00 0. -1.
         23    2    1    2    0    0 -0.45976419837E+03  0.94017110192E+01  0.53843383194E+03  0.71403360467E+03  0.91986341092E+02 0.  0.
        254    2    1    2    0    0  0.45976419837E+03 -0.94017110192E+01 -0.38203906654E+03  0.10898191444E+04  0.91119723923E+03 0.  0.
        -24    2    4    4    0    0  0.43438912288E+03 -0.14042161088E+03  0.18676715976E+03  0.50011805898E+03  0.82607276174E+02 0.  0.
         24    2    4    4    0    0  0.25375075499E+02  0.13101989986E+03 -0.56880622631E+03  0.58970108539E+03  0.79979612464E+02 0.  0.
         11    1    3    3    0    0 -0.16926654567E+03 -0.17324635585E+02  0.26023333210E+03  0.31092232730E+03  0.00000000000E+00 0. -1.
        -11    1    3    3    0    0 -0.29049765271E+03  0.26726346605E+02  0.27820049984E+03  0.40311127737E+03  0.00000000000E+00 0.  1.
          4    1    6    6  502    0  0.37707543725E+02  0.12999390230E+03 -0.55452125225E+03  0.57080127250E+03  0.00000000000E+00 0. -1.
          3    1    5    5  503    0  0.19914623517E+03 -0.91128433134E+02  0.12413295599E+03  0.25173916078E+03  0.00000000000E+00 0. -1.
         -4    1    5    5    0  503  0.23524288770E+03 -0.49293177741E+02  0.62634203776E+02  0.24837889820E+03  0.00000000000E+00 0.  1.
         -3    1    6    6    0  502 -0.12332468226E+02  0.10259975542E+01 -0.14284974059E+02  0.18899812893E+02  0.00000000000E+00 0.  1.
<mgrwt>
<rscale>  0 0.17970602E+04</rscale>
<asrwt>0</asrwt>
<pdfrwt beam="1">  1        1 0.15078827E+00 0.17970602E+04</pdfrwt>
<pdfrwt beam="2">  1       -1 0.12672754E+00 0.17970602E+04</pdfrwt>
<totfact> 0.80070416E+00</totfact>
</mgrwt>
</event>
<event>
12    1  0.1114484E-007  0.3311665E+04  0.7818608E-02  0.8159933E-01
          1   -1    0    0  501    0  0.00000000000E+00  0.00000000000E+00  0.85288523507E+03  0.85288523507E+03  0.00000000000E+00 0. -1.
         -1   -1    0    0    0  501 -0.00000000000E+00 -0.00000000000E+00 -0.32147137766E+04  0.32147137766E+04  0.00000000000E+00 0.  1.
         23    2    1    2    0    0  0.12220922478E+04  0.19281782539E+03 -0.22162363571E+04  0.25394505825E+04  0.80109264394E+02 0.  0.
        254    2    1    2    0    0 -0.12220922478E+04 -0.19281782539E+03 -0.14559218437E+03  0.15281484292E+04  0.88507195280E+03 0.  0.
        -24    2    4    4    0    0 -0.52247070138E+03 -0.25592934112E+03  0.33246536756E+03  0.67468866034E+03  0.78715349932E+02 0.  0.
         24    2    4    4    0    0 -0.69962154638E+03  0.63111515723E+02 -0.47805755192E+03  0.85345976884E+03  0.80007390346E+02 0.  0.
         13    1    3    3    0    0  0.81288538816E+03  0.13872080180E+03 -0.15499586201E+04  0.17556758924E+04  0.00000000000E+00 0. -1.
        -13    1    3    3    0    0  0.40920685960E+03  0.54097023595E+02 -0.66627773700E+03  0.78377469003E+03  0.00000000000E+00 0.  1.
          2    1    6    6  502    0 -0.19006204961E+03  0.25341858147E+02 -0.17370592940E+03  0.25872677168E+03  0.00000000000E+00 0. -1.
          1    1    5    5  503    0 -0.35919086580E+03 -0.13447182631E+03  0.22140632831E+03  0.44285608538E+03  0.00000000000E+00 0. -1.
         -2    1    5    5    0  503 -0.16327983558E+03 -0.12145751481E+03  0.11105903925E+03  0.23183257496E+03  0.00000000000E+00 0.  1.
         -1    1    6    6    0  502 -0.50955949677E+03  0.37769657576E+02 -0.30435162252E+03  0.59473299717E+03  0.00000000000E+00 0.  1.
<mgrwt>
<rscale>  0 0.33116654E+04</rscale>
<asrwt>0</asrwt>
<pdfrwt beam="1">  1        1 0.13121311E+00 0.33116654E+04</pdfrwt>
<pdfrwt beam="2">  1       -1 0.49457134E+00 0.33116654E+04</pdfrwt>
<totfact> 0.26638308E-02</totfact>
</mgrwt>
</event>
<event>
12    1  0.1114484E-007  0.1257428E+04  0.7818608E-02  0.9064024E-01
         -2   -1    0    0    0  501 -0.00000000000E+00  0.00000000000E+00  0.13967197820E+03  0.13967197820E+03  0.00000000000E+00 0.  1.
          2   -1    0    0  501    0  0.00000000000E+00 -0.00000000000E+00 -0.28300669756E+04  0.28300669756E+04  0.00000000000E+00 0. -1.
         23    2    1    2    0    0 -0.17179160970E+03 -0.66395436745E+02 -0.13042753570E+03  0.24364333640E+03  0.91815151920E+02 0.  0.
        254    2    1    2    0    0  0.17179160970E+03  0.66395436745E+02 -0.25599674617E+04  0.27260956174E+04  0.91882707786E+03 0.  0.
        -24    2    4    4    0    0 -0.65990833421E+02 -0.38596344695E+03 -0.84484943851E+03  0.93464139140E+03  0.80382736315E+02 0.  0.
         24    2    4    4    0    0  0.23778244312E+03  0.45235888369E+03 -0.17151180232E+04  0.17914542260E+04  0.80680607498E+02 0.  0.
         13    1    3    3    0    0 -0.98648392822E+01 -0.25221621603E+02  0.62354581705E+01  0.27790757257E+02  0.00000000000E+00 0. -1.
        -13    1    3    3    0    0 -0.16192677041E+03 -0.41173815142E+02 -0.13666299387E+03  0.21585257915E+03  0.00000000000E+00 0.  1.
          2    1    6    6  502    0  0.13599719983E+03  0.28735171521E+03 -0.93341516874E+03  0.98606801177E+03  0.00000000000E+00 0. -1.
          1    1    5    5  503    0  0.65798746475E+01 -0.24797710328E+00 -0.82800059908E+01  0.10578976426E+02  0.00000000000E+00 0. -1.
         -2    1    5    5    0  503 -0.72570708069E+02 -0.38571546985E+03 -0.83656943252E+03  0.92406241497E+03  0.00000000000E+00 0.  1.
         -1    1    6    6    0  502  0.10178524328E+03  0.16500716848E+03 -0.78170285442E+03  0.80538621419E+03  0.00000000000E+00 0.  1.
<mgrwt>
<rscale>  0 0.12574276E+04</rscale>
<asrwt>0</asrwt>
<pdfrwt beam="1">  1        2 0.43539487E+00 0.12574276E+04</pdfrwt>
<pdfrwt beam="2">  1       -2 0.21487999E-01 0.12574276E+04</pdfrwt>
<totfact> 0.41442341E+01</totfact>
</mgrwt>
</event>
<event>
12    1  0.1114484E-007  0.3343379E+04  0.7818608E-02  0.8151945E-01
         -1   -1    0    0    0  501 -0.00000000000E+00  0.00000000000E+00  0.19039631832E+04  0.19039631832E+04  0.00000000000E+00 0.  1.
          1   -1    0    0  501    0  0.00000000000E+00 -0.00000000000E+00 -0.14677519106E+04  0.14677519106E+04  0.00000000000E+00 0. -1.
         23    2    1    2    0    0 -0.72990920132E+03 -0.23935791256E+03  0.15576244185E+04  0.17390812541E+04  0.90278053104E+02 0.  0.
        254    2    1    2    0    0  0.72990920132E+03  0.23935791256E+03 -0.11214131459E+04  0.16326338396E+04  0.90435952916E+03 0.  0.
        -24    2    4    4    0    0  0.85485436786E+03  0.22445294879E+03 -0.11773620280E+04  0.14742348412E+04  0.77665343154E+02 0.  0.
         24    2    4    4    0    0 -0.12494516654E+03  0.14904963773E+02  0.55948882039E+02  0.15839899847E+03  0.78272043082E+02 0.  0.
         11    1    3    3    0    0 -0.44369029117E+03 -0.13616722743E+03  0.10360094023E+04  0.11352171907E+04  0.00000000000E+00 0.  1.
        -11    1    3    3    0    0 -0.28621891014E+03 -0.10319068513E+03  0.52161501614E+03  0.60386406341E+03  0.00000000000E+00 0. -1.
          2    1    6    6  502    0  0.84699388671E+01  0.91486627602E+01 -0.23529107383E+01  0.12687556252E+02  0.00000000000E+00 0. -1.
          3    1    5    5  503    0  0.26974169154E+03  0.41854349620E+02 -0.40061420831E+03  0.48477222553E+03  0.00000000000E+00 0. -1.
         -4    1    5    5    0  503  0.58511267632E+03  0.18259859916E+03 -0.77674781966E+03  0.98946261564E+03  0.00000000000E+00 0.  1.
         -1    1    6    6    0  502 -0.13341510541E+03  0.57563010125E+01  0.58301792778E+02  0.14571144222E+03  0.00000000000E+00 0.  1.
<mgrwt>
<rscale>  0 0.33433789E+04</rscale>
<asrwt>0</asrwt>
<pdfrwt beam="1">  1        1 0.22580799E+00 0.33433789E+04</pdfrwt>
<pdfrwt beam="2">  1       -1 0.29291741E+00 0.33433789E+04</pdfrwt>
<totfact> 0.20898332E-01</totfact>
</mgrwt>
</event>
<event>
12    1  0.1114484E-007  0.1424312E+04  0.7818608E-02  0.8936406E-01
         -1   -1    0    0    0  501 -0.00000000000E+00  0.00000000000E+00  0.39265968509E+03  0.39265968509E+03  0.00000000000E+00 0.  1.
          1   -1    0    0  501    0  0.00000000000E+00 -0.00000000000E+00 -0.12916182550E+04  0.12916182550E+04  0.00000000000E+00 0. -1.
         23    2    1    2    0    0 -0.24458687870E+02  0.86591461657E+02  0.21538737960E+03  0.25039641614E+03  0.90610889432E+02 0.  0.
        254    2    1    2    0    0  0.24458687870E+02 -0.86591461657E+02 -0.11143459495E+04  0.14338815240E+04  0.89786024575E+03 0.  0.
        -24    2    4    4    0    0  0.28672244336E+03  0.30164110226E+03 -0.58218883360E+03  0.72009835444E+03  0.80004299873E+02 0.  0.
         24    2    4    4    0    0 -0.26226375549E+03 -0.38823256392E+03 -0.53215711595E+03  0.71378316954E+03  0.82391843858E+02 0.  0.
         13    1    3    3    0    0  0.84881406605E+01  0.69624883375E+02  0.19682388682E+03  0.20894811639E+03  0.00000000000E+00 0.  1.
        -13    1    3    3    0    0 -0.32946828530E+02  0.16966578282E+02  0.18563492773E+02  0.41448299757E+02  0.00000000000E+00 0. -1.
          4    1    6    6  502    0 -0.18032403458E+03 -0.23262366360E+03 -0.38402954597E+03  0.48384834245E+03  0.00000000000E+00 0. -1.
          3    1    5    5  503    0  0.56555755796E+02  0.72529984163E+02 -0.18853725772E+03  0.20977475936E+03  0.00000000000E+00 0. -1.
         -4    1    5    5    0  503  0.23016668756E+03  0.22911111810E+03 -0.39365157587E+03  0.51032359507E+03  0.00000000000E+00 0.  1.
         -3    1    6    6    0  502 -0.81939720908E+02 -0.15560890032E+03 -0.14812756998E+03  0.22993482709E+03  0.00000000000E+00 0.  1.
<mgrwt>
<rscale>  0 0.14243123E+04</rscale>
<asrwt>0</asrwt>
<pdfrwt beam="1">  1        1 0.19871050E+00 0.14243123E+04</pdfrwt>
<pdfrwt beam="2">  1       -1 0.60409182E-01 0.14243123E+04</pdfrwt>
<totfact> 0.24801780E+01</totfact>
</mgrwt>
</event>
<event>
12    1  0.1114484E-007  0.2873155E+04  0.7818608E-02  0.8280910E-01
         -1   -1    0    0    0  501 -0.00000000000E+00  0.00000000000E+00  0.95992400842E+03  0.95992400842E+03  0.00000000000E+00 0.  1.
          1   -1    0    0  501    0  0.00000000000E+00 -0.00000000000E+00 -0.21499154931E+04  0.21499154931E+04  0.00000000000E+00 0. -1.
         23    2    1    2    0    0  0.92690689346E+03 -0.58554536689E+03 -0.12845925837E+04  0.16912875813E+04  0.90861492158E+02 0.  0.
        254    2    1    2    0    0 -0.92690689346E+03  0.58554536689E+03  0.94601098999E+02  0.14185519202E+04  0.89516502201E+03 0.  0.
        -24    2    4    4    0    0 -0.10110978710E+04  0.37584917154E+03 -0.13149217446E+03  0.10896168598E+04  0.79957518107E+02 0.  0.
         24    2    4    4    0    0  0.84190977555E+02  0.20969619536E+03  0.22609327346E+03  0.32893506043E+03  0.77585376395E+02 0.  0.
         11    1    3    3    0    0  0.30539154466E+02 -0.40488602127E+01 -0.48020766918E+02  0.57052846379E+02  0.00000000000E+00 0.  1.
        -11    1    3    3    0    0  0.89636773899E+03 -0.58149650668E+03 -0.12365718167E+04  0.16342347349E+04  0.00000000000E+00 0. -1.
          2    1    6    6  502    0  0.23151365549E+02  0.50334247708E+02  0.14822272599E+02  0.57351739155E+02  0.00000000000E+00 0. -1.
          1    1    5    5  503    0 -0.95925369047E+02  0.60748660707E+02 -0.72247739343E+01  0.11377290347E+03  0.00000000000E+00 0. -1.
         -2    1    5    5    0  503 -0.91517250196E+03  0.31510051083E+03 -0.12426740053E+03  0.97584395633E+03  0.00000000000E+00 0.  1.
         -1    1    6    6    0  502  0.61039612006E+02  0.15936194765E+03  0.21127100086E+03  0.27158332128E+03  0.00000000000E+00 0.  1.
<mgrwt>
<rscale>  0 0.28731554E+04</rscale>
<asrwt>0</asrwt>
<pdfrwt beam="1">  1        1 0.33075622E+00 0.28731554E+04</pdfrwt>
<pdfrwt beam="2">  1       -1 0.14768062E+00 0.28731554E+04</pdfrwt>
<totfact> 0.73758126E-01</totfact>
</mgrwt>
</event>
<event>
12    1  0.2383791E-007  0.1905675E+04  0.7818608E-02  0.8652037E-01
         -2   -1    0    0    0  501 -0.00000000000E+00  0.00000000000E+00  0.41683489219E+03  0.41683489219E+03  0.00000000000E+00 0.  1.
          2   -1    0    0  501    0  0.00000000000E+00 -0.00000000000E+00 -0.21780795563E+04  0.21780795563E+04  0.00000000000E+00 0. -1.
         23    2    1    2    0    0  0.64406364519E+02  0.19301934971E+03  0.27764682615E+03  0.35605463617E+03  0.91008212317E+02 0.  0.
        254    2    1    2    0    0 -0.64406364519E+02 -0.19301934971E+03 -0.20388914903E+04  0.22388598123E+04  0.90222508335E+03 0.  0.
        -24    2    4    4    0    0 -0.34646925464E+03  0.21014272167E+03 -0.74086584599E+03  0.84829498221E+03  0.80754363348E+02 0.  0.
         24    2    4    4    0    0  0.28206289012E+03 -0.40316207138E+03 -0.12980256443E+04  0.13905648301E+04  0.81858681799E+02 0.  0.
         13    1    3    3    0    0  0.32222867561E+01  0.11920112244E+02  0.80534080205E+02  0.81475212687E+02  0.00000000000E+00 0. -1.
        -13    1    3    3    0    0  0.61184077763E+02  0.18109923747E+03  0.19711274595E+03  0.27457942348E+03  0.00000000000E+00 0.  1.
          2    1    6    6  502    0  0.63555915373E+01 -0.58017067277E+00 -0.38327626390E+01  0.74444752162E+01  0.00000000000E+00 0. -1.
          3    1    5    5  503    0 -0.19663371013E+02 -0.45669997498E+01 -0.57798743266E+02  0.61222547884E+02  0.00000000000E+00 0. -1.
         -4    1    5    5    0  503 -0.32680588363E+03  0.21470972142E+03 -0.68306710272E+03  0.78707243432E+03  0.00000000000E+00 0.  1.
         -1    1    6    6    0  502  0.27570729859E+03 -0.40258190071E+03 -0.12941928816E+04  0.13831203549E+04  0.00000000000E+00 0.  1.
<mgrwt>
<rscale>  0 0.19056753E+04</rscale>
<asrwt>0</asrwt>
<pdfrwt beam="1">  1        2 0.33508916E+00 0.19056753E+04</pdfrwt>
<pdfrwt beam="2">  1       -2 0.64128445E-01 0.19056753E+04</pdfrwt>
<totfact> 0.11178134E+01</totfact>
</mgrwt>
</event>
<event>
12    1  0.1114484E-007  0.1397526E+04  0.7818608E-02  0.8955611E-01
          2   -1    0    0  501    0  0.00000000000E+00  0.00000000000E+00  0.14863195954E+04  0.14863195954E+04  0.00000000000E+00 0. -1.
         -2   -1    0    0    0  501 -0.00000000000E+00 -0.00000000000E+00 -0.32850947978E+03  0.32850947978E+03  0.00000000000E+00 0.  1.
         23    2    1    2    0    0 -0.88405006360E+02  0.13934405550E+03 -0.13854305111E+03  0.23455331637E+03  0.92676157985E+02 0.  0.
        254    2    1    2    0    0  0.88405006360E+02 -0.13934405550E+03  0.12963531667E+04  0.15802757588E+04  0.88854247508E+03 0.  0.
        -24    2    4    4    0    0 -0.14195853529E+03  0.93379713488E+00  0.12872784519E+04  0.12975643606E+04  0.80214459337E+02 0.  0.
         24    2    4    4    0    0  0.23036354165E+03 -0.14027785263E+03  0.90747148199E+01  0.28271139819E+03  0.84250501205E+02 0.  0.
         11    1    3    3    0    0 -0.98006469326E+02  0.11970419471E+03 -0.14471095105E+03  0.21183866884E+03  0.00000000000E+00 0.  1.
        -11    1    3    3    0    0  0.96014629664E+01  0.19639860788E+02  0.61678999438E+01  0.22714647533E+02  0.00000000000E+00 0. -1.
          2    1    6    6  502    0  0.38677580060E+02  0.46606634771E+01  0.16441615598E+02  0.42284792855E+02  0.00000000000E+00 0. -1.
          3    1    5    5  503    0 -0.12941562361E+02  0.26893185908E+02  0.17489330192E+03  0.17742151657E+03  0.00000000000E+00 0. -1.
         -4    1    5    5    0  503 -0.12901697293E+03 -0.25959388773E+02  0.11123851499E+04  0.11201428440E+04  0.00000000000E+00 0.  1.
         -1    1    6    6    0  502  0.19168596159E+03 -0.14493851611E+03 -0.73669007778E+01  0.24042660533E+03  0.00000000000E+00 0.  1.
<mgrwt>
<rscale>  0 0.13975265E+04</rscale>
<asrwt>0</asrwt>
<pdfrwt beam="1">  1        2 0.22866455E+00 0.13975265E+04</pdfrwt>
<pdfrwt beam="2">  1       -2 0.50539921E-01 0.13975265E+04</pdfrwt>
<totfact> 0.46558566E+01</totfact>
</mgrwt>
</event>
<event>
12    1  0.1114484E-007  0.2376514E+04  0.7818608E-02  0.8448349E-01
         -2   -1    0    0    0  501 -0.00000000000E+00  0.00000000000E+00  0.10684825214E+04  0.10684825214E+04  0.00000000000E+00 0.  1.
          2   -1    0    0  501    0  0.00000000000E+00 -0.00000000000E+00 -0.13214574588E+04  0.13214574588E+04  0.00000000000E+00 0. -1.
         23    2    1    2    0    0 -0.76918223499E+03  0.21970833717E+03  0.51113592723E+03  0.95334477773E+03  0.87711259669E+02 0.  0.
        254    2    1    2    0    0  0.76918223499E+03 -0.21970833717E+03 -0.76411086462E+03  0.14365952025E+04  0.91653003141E+03 0.  0.
        -24    2    4    4    0    0 -0.98952327321E+02  0.18241378046E+03 -0.29063325618E+03  0.36609122801E+03  0.80552760639E+02 0.  0.
         24    2    4    4    0    0  0.86813456231E+03 -0.40212211763E+03 -0.47347760844E+03  0.10705039745E+04  0.80236513036E+02 0.  0.
         11    1    3    3    0    0 -0.64238626058E+03  0.15288666881E+03  0.40057473778E+03  0.77233060397E+03  0.00000000000E+00 0.  1.
        -11    1    3    3    0    0 -0.12679597441E+03  0.66821668363E+02  0.11056118945E+03  0.18101417376E+03  0.00000000000E+00 0. -1.
          4    1    6    6  502    0  0.76051473014E+03 -0.33267692384E+03 -0.43261949083E+03  0.93606421481E+03  0.00000000000E+00 0. -1.
          3    1    5    5  503    0 -0.72221057409E+02  0.71090816071E+02 -0.18175684629E+03  0.20809934271E+03  0.00000000000E+00 0. -1.
         -4    1    5    5    0  503 -0.26731269912E+02  0.11132296439E+03 -0.10887640989E+03  0.15799188530E+03  0.00000000000E+00 0.  1.
         -3    1    6    6    0  502  0.10761983218E+03 -0.69445193790E+02 -0.40858117612E+02  0.13443975972E+03  0.00000000000E+00 0.  1.
<mgrwt>
<rscale>  0 0.23765136E+04</rscale>
<asrwt>0</asrwt>
<pdfrwt beam="1">  1        2 0.20330115E+00 0.23765136E+04</pdfrwt>
<pdfrwt beam="2">  1       -2 0.16438193E+00 0.23765136E+04</pdfrwt>
<totfact> 0.33856054E+00</totfact>
</mgrwt>
</event>
<event>
12    1  0.1423862E-007  0.2525220E+04  0.7818608E-02  0.8394055E-01
          1   -1    0    0  501    0  0.00000000000E+00  0.00000000000E+00  0.14270806004E+04  0.14270806004E+04  0.00000000000E+00 0. -1.
         -1   -1    0    0    0  501 -0.00000000000E+00 -0.00000000000E+00 -0.11170947814E+04  0.11170947814E+04  0.00000000000E+00 0.  1.
         23    2    1    2    0    0 -0.64173947172E+03 -0.65147875786E+03  0.75507538571E+03  0.11894487095E+04  0.91625721449E+02 0.  0.
        254    2    1    2    0    0  0.64173947172E+03  0.65147875786E+03 -0.44508956668E+03  0.13547266723E+04  0.89494441882E+03 0.  0.
        -24    2    4    4    0    0  0.10923276126E+03  0.66216604969E+03 -0.45768137118E+03  0.81622919975E+03  0.79763372014E+02 0.  0.
         24    2    4    4    0    0  0.53250671046E+03 -0.10687291831E+02  0.12591804499E+02  0.53849747255E+03  0.78379586054E+02 0.  0.
         13    1    3    3    0    0 -0.61142912303E+03 -0.64222410345E+03  0.72052162536E+03  0.11425623765E+04  0.00000000000E+00 0. -1.
        -13    1    3    3    0    0 -0.30310348689E+02 -0.92546544072E+01  0.34553760349E+02  0.46886332977E+02  0.00000000000E+00 0.  1.
          4    1    6    6  502    0  0.20819290712E+02  0.15532942753E+01  0.16561244540E+02  0.26648272169E+02  0.00000000000E+00 0. -1.
          3    1    5    5  503    0 -0.10924429788E+02  0.22999322202E+02 -0.16258486203E+02  0.30210103634E+02  0.00000000000E+00 0. -1.
         -4    1    5    5    0  503  0.12015719104E+03  0.63916672749E+03 -0.44142288497E+03  0.78601909612E+03  0.00000000000E+00 0.  1.
         -3    1    6    6    0  502  0.51168741975E+03 -0.12240586106E+02 -0.39694400411E+01  0.51184920038E+03  0.00000000000E+00 0.  1.
<mgrwt>
<rscale>  0 0.25252202E+04</rscale>
<asrwt>0</asrwt>
<pdfrwt beam="1">  1        1 0.21955086E+00 0.25252202E+04</pdfrwt>
<pdfrwt beam="2">  1       -1 0.17186073E+00 0.25252202E+04</pdfrwt>
<totfact> 0.15545134E+00</totfact>
</mgrwt>
</event>
<event>
12    1  0.1114484E-007  0.1631492E+04  0.7818608E-02  0.8801432E-01
          2   -1    0    0  501    0  0.00000000000E+00  0.00000000000E+00  0.21941996376E+04  0.21941996376E+04  0.00000000000E+00 0.  1.
         -2   -1    0    0    0  501 -0.00000000000E+00 -0.00000000000E+00 -0.30327299791E+03  0.30327299791E+03  0.00000000000E+00 0. -1.
         23    2    1    2    0    0  0.34861675859E+03 -0.29112732328E+03  0.15433446175E+03  0.48920631661E+03  0.95994434206E+02 0.  0.
        254    2    1    2    0    0 -0.34861675859E+03  0.29112732328E+03  0.17365921779E+04  0.20082663189E+04  0.90060671350E+03 0.  0.
        -24    2    4    4    0    0 -0.10438642235E+03  0.51485799763E+03  0.15056396628E+04  0.15966304249E+04  0.79389146381E+02 0.  0.
         24    2    4    4    0    0 -0.24423033624E+03 -0.22373067435E+03  0.23095251511E+03  0.41163589399E+03  0.80007332162E+02 0.  0.
         11    1    3    3    0    0  0.22149463224E+03 -0.12392994886E+03  0.94288966789E+02  0.27075618847E+03  0.00000000000E+00 0.  1.
        -11    1    3    3    0    0  0.12712212634E+03 -0.16719737442E+03  0.60045494962E+02  0.21845012814E+03  0.00000000000E+00 0. -1.
          4    1    6    6  502    0 -0.16922399213E+02  0.30388688892E+01  0.20516949505E+01  0.17315073532E+02  0.00000000000E+00 0. -1.
          3    1    5    5  503    0 -0.35798499325E+01 -0.13394032257E+01  0.26316254766E+02  0.26592378447E+02  0.00000000000E+00 0. -1.
         -4    1    5    5    0  503 -0.10080657242E+03  0.51619740086E+03  0.14793234080E+04  0.15700380464E+04  0.00000000000E+00 0.  1.
         -3    1    6    6    0  502 -0.22730793703E+03 -0.22676954324E+03  0.22890082016E+03  0.39432082045E+03  0.00000000000E+00 0.  1.
<mgrwt>
<rscale>  0 0.16314920E+04</rscale>
<asrwt>0</asrwt>
<pdfrwt beam="1">  1        2 0.33756916E+00 0.16314920E+04</pdfrwt>
<pdfrwt beam="2">  1       -2 0.46657386E-01 0.16314920E+04</pdfrwt>
<totfact> 0.21688946E+01</totfact>
</mgrwt>
</event>
<event>
12    1  0.1114484E-007  0.3855401E+04  0.7818608E-02  0.8034369E-01
         -2   -1    0    0    0  501 -0.00000000000E+00  0.00000000000E+00  0.21455826119E+04  0.21455826119E+04  0.00000000000E+00 0.  1.
          2   -1    0    0  501    0  0.00000000000E+00 -0.00000000000E+00 -0.17319443300E+04  0.17319443300E+04  0.00000000000E+00 0. -1.
         23    2    1    2    0    0  0.16272446822E+04 -0.80462189826E+03  0.30474575678E+03  0.18430018756E+04  0.91892777008E+02 0.  0.
        254    2    1    2    0    0 -0.16272446822E+04  0.80462189826E+03  0.10889252509E+03  0.20345250663E+04  0.91219132233E+03 0.  0.
        -24    2    4    4    0    0 -0.10737131059E+03 -0.24468970104E+02  0.26107724611E+03  0.29427515752E+03  0.79430542355E+02 0.  0.
         24    2    4    4    0    0 -0.15198733716E+04  0.82909086836E+03 -0.15218472102E+03  0.17402499088E+04  0.88897817957E+02 0.  0.
         11    1    3    3    0    0  0.15228878582E+04 -0.73754075584E+03  0.26485318068E+03  0.17126882386E+04  0.00000000000E+00 0.  1.
        -11    1    3    3    0    0  0.10435682397E+03 -0.67081142418E+02  0.39892576098E+02  0.13031363706E+03  0.00000000000E+00 0. -1.
          4    1    6    6  502    0 -0.45711974435E+02  0.90739102495E+01 -0.70381072675E+01  0.47132318083E+02  0.00000000000E+00 0. -1.
          1    1    5    5  503    0  0.72590615166E+01  0.26842242793E+01 -0.12143218952E+00  0.77403992055E+01  0.00000000000E+00 0. -1.
         -2    1    5    5    0  503 -0.11463037211E+03 -0.27153194384E+02  0.26119867830E+03  0.28653475831E+03  0.00000000000E+00 0.  1.
         -3    1    6    6    0  502 -0.14741613972E+04  0.82001695811E+03 -0.14514661375E+03  0.16931175907E+04  0.00000000000E+00 0.  1.
<mgrwt>
<rscale>  0 0.38554012E+04</rscale>
<asrwt>0</asrwt>
<pdfrwt beam="1">  1        2 0.26645297E+00 0.38554012E+04</pdfrwt>
<pdfrwt beam="2">  1       -2 0.33008963E+00 0.38554012E+04</pdfrwt>
<totfact> 0.15574936E-01</totfact>
</mgrwt>
</event>
<event>
12    1  0.1114484E-007  0.2045111E+04  0.7818608E-02  0.8585816E-01
         -1   -1    0    0    0  501 -0.00000000000E+00  0.00000000000E+00  0.54902547199E+03  0.54902547199E+03  0.00000000000E+00 0.  1.
          1   -1    0    0  501    0  0.00000000000E+00 -0.00000000000E+00 -0.19045007367E+04  0.19045007367E+04  0.00000000000E+00 0. -1.
         23    2    1    2    0    0 -0.42563066212E+03 -0.57636228740E+03 -0.10337599655E+04  0.12609985451E+04  0.90015096317E+02 0.  0.
        254    2    1    2    0    0  0.42563066212E+03  0.57636228740E+03 -0.32171529917E+03  0.11925276636E+04  0.89736645122E+03 0.  0.
        -24    2    4    4    0    0  0.23764662994E+03  0.68797142445E+03  0.71320655648E+02  0.73567351768E+03  0.79676138907E+02 0.  0.
         24    2    4    4    0    0  0.18798403218E+03 -0.11160913705E+03 -0.39303595482E+03  0.45685414588E+03  0.80273613378E+02 0.  0.
         13    1    3    3    0    0 -0.41299436509E+03 -0.53413152823E+03 -0.93954385583E+03  0.11569803335E+04  0.00000000000E+00 0. -1.
        -13    1    3    3    0    0 -0.12636297027E+02 -0.42230759172E+02 -0.94216109687E+02  0.10401821161E+03  0.00000000000E+00 0.  1.
          2    1    6    6  502    0  0.19154602498E+03 -0.99696963566E+02 -0.34312982702E+03  0.40542254799E+03  0.00000000000E+00 0. -1.
          3    1    5    5  503    0  0.17988212103E+03  0.59419340415E+03  0.45140242681E+02  0.62246367003E+03  0.00000000000E+00 0. -1.
         -4    1    5    5    0  503  0.57764508911E+02  0.93778020301E+02  0.26180412967E+02  0.11320984765E+03  0.00000000000E+00 0.  1.
         -1    1    6    6    0  502 -0.35619928027E+01 -0.11912173487E+02 -0.49906127800E+02  0.51431597893E+02  0.00000000000E+00 0.  1.
<mgrwt>
<rscale>  0 0.20451107E+04</rscale>
<asrwt>0</asrwt>
<pdfrwt beam="1">  1        1 0.29300011E+00 0.20451107E+04</pdfrwt>
<pdfrwt beam="2">  1       -1 0.84465458E-01 0.20451107E+04</pdfrwt>
<totfact> 0.44366822E+00</totfact>
</mgrwt>
</event>
<event>
12    1  0.1114484E-007  0.2367649E+04  0.7818608E-02  0.8451716E-01
          2   -1    0    0  501    0  0.00000000000E+00  0.00000000000E+00  0.72718778641E+03  0.72718778641E+03  0.00000000000E+00 0. -1.
         -2   -1    0    0    0  501 -0.00000000000E+00 -0.00000000000E+00 -0.19272050610E+04  0.19272050610E+04  0.00000000000E+00 0.  1.
         23    2    1    2    0    0  0.55710920730E+03 -0.23399065609E+03  0.39413530089E+03  0.72704218687E+03  0.90141056636E+02 0.  0.
        254    2    1    2    0    0 -0.55710920730E+03  0.23399065609E+03 -0.15941525755E+04  0.19273506605E+04  0.89901937617E+03 0.  0.
        -24    2    4    4    0    0 -0.90901013321E+02 -0.10475334047E+03  0.63927180392E+02  0.17009883447E+03  0.74904422648E+02 0.  0.
         24    2    4    4    0    0 -0.46620819398E+03  0.33874399656E+03 -0.16580797559E+04  0.17572518260E+04  0.81289163054E+02 0.  0.
         13    1    3    3    0    0  0.55904779085E+03 -0.22664536347E+03  0.39063207575E+03  0.71867654187E+03  0.00000000000E+00 0. -1.
        -13    1    3    3    0    0 -0.19385835517E+01 -0.73452926203E+01  0.35032251463E+01  0.83656450015E+01  0.00000000000E+00 0.  1.
          4    1    6    6  502    0 -0.35396691086E+03  0.29748414567E+03 -0.13106319924E+04  0.13898005650E+04  0.00000000000E+00 0. -1.
          3    1    5    5  503    0 -0.46188915083E+02 -0.46380367349E+02  0.70590351081E+02  0.96268125658E+02  0.00000000000E+00 0. -1.
         -4    1    5    5    0  503 -0.44712098238E+02 -0.58372973121E+02 -0.66631706888E+01  0.73830708810E+02  0.00000000000E+00 0.  1.
         -3    1    6    6    0  502 -0.11224128312E+03  0.41259850889E+02 -0.34744776346E+03  0.36745126108E+03  0.00000000000E+00 0.  1.
<mgrwt>
<rscale>  0 0.23676486E+04</rscale>
<asrwt>0</asrwt>
<pdfrwt beam="1">  1        2 0.11187505E+00 0.23676486E+04</pdfrwt>
<pdfrwt beam="2">  1       -2 0.29649308E+00 0.23676486E+04</pdfrwt>
<totfact> 0.11753663E+00</totfact>
</mgrwt>
</event>
<event>
12    1  0.1114484E-007  0.1763286E+04  0.7818608E-02  0.8726071E-01
          1   -1    0    0  501    0  0.00000000000E+00  0.00000000000E+00  0.21438305698E+04  0.21438305698E+04  0.00000000000E+00 0. -1.
         -1   -1    0    0    0  501 -0.00000000000E+00 -0.00000000000E+00 -0.36257259180E+03  0.36257259180E+03  0.00000000000E+00 0.  1.
         23    2    1    2    0    0 -0.57255394169E+02  0.33799244634E+03 -0.11677932798E+03  0.37340680443E+03  0.90984373388E+02 0.  0.
        254    2    1    2    0    0  0.57255394169E+02 -0.33799244634E+03  0.18980373060E+04  0.21329963572E+04  0.91082971567E+03 0.  0.
        -24    2    4    4    0    0  0.18102393188E+03  0.75305875099E+02  0.29771502445E+02  0.21380500518E+03  0.79909943945E+02 0.  0.
         24    2    4    4    0    0 -0.12376853771E+03 -0.41329832144E+03  0.18682658036E+04  0.19191913520E+04  0.82122953873E+02 0.  0.
         13    1    3    3    0    0 -0.52314105599E+02  0.90624556892E+02 -0.14327799564E+02  0.10561657918E+03  0.00000000000E+00 0. -1.
        -13    1    3    3    0    0 -0.49412885706E+01  0.24736788945E+03 -0.10245152841E+03  0.26779022525E+03  0.00000000000E+00 0.  1.
          4    1    6    6  502    0 -0.11606042944E+03 -0.32555703680E+03  0.15974434325E+04  0.16344059861E+04  0.00000000000E+00 0. -1.
          3    1    5    5  503    0  0.15192692006E+03  0.48888297691E+02  0.52980664140E+02  0.16816303239E+03  0.00000000000E+00 0. -1.
         -4    1    5    5    0  503  0.29097011823E+02  0.26417577408E+02 -0.23209161694E+02  0.45641972785E+02  0.00000000000E+00 0.  1.
         -3    1    6    6    0  502 -0.77081082701E+01 -0.87741284646E+02  0.27082237110E+03  0.28478536593E+03  0.00000000000E+00 0.  1.
<mgrwt>
<rscale>  0 0.17632858E+04</rscale>
<asrwt>0</asrwt>
<pdfrwt beam="1">  1        1 0.32982008E+00 0.17632858E+04</pdfrwt>
<pdfrwt beam="2">  1       -1 0.55780400E-01 0.17632858E+04</pdfrwt>
<totfact> 0.73238440E+00</totfact>
</mgrwt>
</event>
<event>
12    1  0.1114484E-007  0.1490053E+04  0.7818608E-02  0.8891095E-01
          1   -1    0    0  501    0  0.00000000000E+00  0.00000000000E+00  0.35970725857E+03  0.35970725857E+03  0.00000000000E+00 0. -1.
         -1   -1    0    0    0  501 -0.00000000000E+00 -0.00000000000E+00 -0.15430998056E+04  0.15430998056E+04  0.00000000000E+00 0.  1.
         23    2    1    2    0    0  0.34567366267E+03  0.22616428911E+03 -0.85996487966E+02  0.43151829649E+03  0.90399543866E+02 0.  0.
        254    2    1    2    0    0 -0.34567366267E+03 -0.22616428911E+03 -0.10973960591E+04  0.14712887677E+04  0.88869115038E+03 0.  0.
        -24    2    4    4    0    0 -0.74771421850E+02  0.15821323247E+02 -0.10937154775E+04  0.10993892806E+04  0.81253706260E+02 0.  0.
         24    2    4    4    0    0 -0.27090224082E+03 -0.24198561236E+03 -0.36805815736E+01  0.37189948710E+03  0.79690784633E+02 0.  0.
         13    1    3    3    0    0  0.33355097375E+03  0.19401147807E+03 -0.91871671671E+02  0.39665742117E+03  0.00000000000E+00 0. -1.
        -13    1    3    3    0    0  0.12122688915E+02  0.32152811042E+02  0.58751837049E+01  0.34860875319E+02  0.00000000000E+00 0.  1.
          2    1    6    6  502    0 -0.77839706093E+02 -0.12145994441E+03 -0.34875857244E+01  0.14430419674E+03  0.00000000000E+00 0. -1.
          1    1    5    5  503    0 -0.17233932538E+02 -0.27962860742E+02 -0.19287838713E+03  0.19565531486E+03  0.00000000000E+00 0. -1.
         -2    1    5    5    0  503 -0.57537489312E+02  0.43784183989E+02 -0.90083709039E+03  0.90373396576E+03  0.00000000000E+00 0.  1.
         -1    1    6    6    0  502 -0.19306253472E+03 -0.12052566794E+03 -0.19299584919E+00  0.22759529036E+03  0.00000000000E+00 0.  1.
<mgrwt>
<rscale>  0 0.14900526E+04</rscale>
<asrwt>0</asrwt>
<pdfrwt beam="1">  1        1 0.55339579E-01 0.14900526E+04</pdfrwt>
<pdfrwt beam="2">  1       -1 0.23739997E+00 0.14900526E+04</pdfrwt>
<totfact> 0.56419092E+00</totfact>
</mgrwt>
</event>
<event>
12    1  0.1114484E-007  0.2685288E+04  0.7818608E-02  0.8339794E-01
          2   -1    0    0  501    0  0.00000000000E+00  0.00000000000E+00  0.27829765118E+04  0.27829765118E+04  0.00000000000E+00 0. -1.
         -2   -1    0    0    0  501 -0.00000000000E+00 -0.00000000000E+00 -0.64775698471E+03  0.64775698471E+03  0.00000000000E+00 0.  1.
         23    2    1    2    0    0 -0.10196398291E+04 -0.23197913916E+03  0.16752230599E+04  0.19768558375E+04  0.90038877655E+02 0.  0.
        254    2    1    2    0    0  0.10196398291E+04  0.23197913916E+03  0.45999646714E+03  0.14538776590E+04  0.89926847806E+03 0.  0.
        -24    2    4    4    0    0  0.10941081544E+03  0.82208732820E+02  0.50275176542E+03  0.52713608928E+03  0.79900667691E+02 0.  0.
         24    2    4    4    0    0  0.91022901364E+03  0.14977040634E+03 -0.42755298276E+02  0.92674156977E+03  0.77935163577E+02 0.  0.
         13    1    3    3    0    0 -0.10001935733E+04 -0.22542382138E+03  0.16124248092E+04  0.19107895878E+04  0.00000000000E+00 0. -1.
        -13    1    3    3    0    0 -0.19446255770E+02 -0.65553177769E+01  0.62798250721E+02  0.66066249691E+02  0.00000000000E+00 0.  1.
          2    1    6    6  502    0  0.25943516434E+01  0.35780357939E+01  0.43519356563E+01  0.62026078828E+01  0.00000000000E+00 0. -1.
          1    1    5    5  503    0  0.49896916616E+02  0.21178514283E+02  0.85272226825E+02  0.10104248821E+03  0.00000000000E+00 0. -1.
         -2    1    5    5    0  503  0.59513898820E+02  0.61030218537E+02  0.41747953859E+03  0.42609360107E+03  0.00000000000E+00 0.  1.
         -1    1    6    6    0  502  0.90763466199E+03  0.14619237054E+03 -0.47107233933E+02  0.92053896188E+03  0.00000000000E+00 0.  1.
<mgrwt>
<rscale>  0 0.26852877E+04</rscale>
<asrwt>0</asrwt>
<pdfrwt beam="1">  1        2 0.42815023E+00 0.26852877E+04</pdfrwt>
<pdfrwt beam="2">  1       -2 0.99654922E-01 0.26852877E+04</pdfrwt>
<totfact> 0.17315766E+00</totfact>
</mgrwt>
</event>
<event>
12    1  0.1114484E-007  0.1440788E+04  0.7818608E-02  0.8924812E-01
         -2   -1    0    0    0  501 -0.00000000000E+00  0.00000000000E+00  0.11662899332E+04  0.11662899332E+04  0.00000000000E+00 0.  1.
          2   -1    0    0  501    0  0.00000000000E+00 -0.00000000000E+00 -0.44497306871E+03  0.44497306871E+03  0.00000000000E+00 0. -1.
         23    2    1    2    0    0 -0.34768960552E+02  0.24455142890E+03 -0.17955560631E+03  0.31938948315E+03  0.93568927499E+02 0.  0.
        254    2    1    2    0    0  0.34768960552E+02 -0.24455142890E+03  0.90087247077E+03  0.12918735187E+04  0.89238539759E+03 0.  0.
        -24    2    4    4    0    0  0.12878797897E+03  0.27721381522E+03  0.10734676348E+03  0.33418333578E+03  0.81983726473E+02 0.  0.
         24    2    4    4    0    0 -0.94019018415E+02 -0.52176524411E+03  0.79352570729E+03  0.95769018296E+03  0.80055559568E+02 0.  0.
         11    1    3    3    0    0 -0.84271622745E+01  0.15549343082E+03 -0.57456270741E+02  0.16598327367E+03  0.00000000000E+00 0.  1.
        -11    1    3    3    0    0 -0.26341798277E+02  0.89057998079E+02 -0.12209933557E+03  0.15340620948E+03  0.00000000000E+00 0. -1.
          2    1    6    6  502    0 -0.21552150729E+02 -0.28398729266E+03  0.37467824271E+03  0.47063474495E+03  0.00000000000E+00 0. -1.
          1    1    5    5  503    0  0.10084099976E+03  0.19546317714E+03  0.11362694152E+03  0.24755977599E+03  0.00000000000E+00 0. -1.
         -2    1    5    5    0  503  0.27946979211E+02  0.81750638076E+02 -0.62801780454E+01  0.86623559781E+02  0.00000000000E+00 0.  1.
         -1    1    6    6    0  502 -0.72466867686E+02 -0.23777795145E+03  0.41884746458E+03  0.48705543801E+03  0.00000000000E+00 0.  1.
<mgrwt>
<rscale>  0 0.14407881E+04</rscale>
<asrwt>0</asrwt>
<pdfrwt beam="1">  1        2 0.68457396E-01 0.14407881E+04</pdfrwt>
<pdfrwt beam="2">  1       -2 0.17942922E+00 0.14407881E+04</pdfrwt>
<totfact> 0.12495411E+01</totfact>
</mgrwt>
</event>
<event>
12    1  0.1114484E-007  0.2606160E+04  0.7818608E-02  0.8366112E-01
         -1   -1    0    0    0  501 -0.00000000000E+00  0.00000000000E+00  0.10440543240E+04  0.10440543240E+04  0.00000000000E+00 0.  1.
          1   -1    0    0  501    0  0.00000000000E+00 -0.00000000000E+00 -0.16263688898E+04  0.16263688898E+04  0.00000000000E+00 0. -1.
         23    2    1    2    0    0 -0.14242088854E+03  0.39652269609E+03  0.83474967310E+03  0.93942384167E+03  0.90532754078E+02 0.  0.
        254    2    1    2    0    0  0.14242088854E+03 -0.39652269609E+03 -0.14170642389E+04  0.17309993722E+04  0.90042979256E+03 0.  0.
        -24    2    4    4    0    0  0.34644968341E+03 -0.36444096221E+02 -0.13590966107E+03  0.38219584956E+03  0.79035916926E+02 0.  0.
         24    2    4    4    0    0 -0.20402879487E+03 -0.36007859987E+03 -0.12811545778E+04  0.13488035226E+04  0.81422006406E+02 0.  0.
         11    1    3    3    0    0 -0.94765699810E+02  0.13783057820E+03  0.29998446785E+03  0.34346540888E+03  0.00000000000E+00 0. -1.
        -11    1    3    3    0    0 -0.47655188728E+02  0.25869211789E+03  0.53476520525E+03  0.59595843279E+03  0.00000000000E+00 0.  1.
          4    1    6    6  502    0 -0.90788625269E+02 -0.19633507783E+03 -0.78329616382E+03  0.81261486420E+03  0.00000000000E+00 0. -1.
          3    1    5    5  503    0  0.11037617611E+03 -0.15376105111E+01 -0.61484751006E+01  0.11055798589E+03  0.00000000000E+00 0. -1.
         -4    1    5    5    0  503  0.23607350730E+03 -0.34906485710E+02 -0.12976118597E+03  0.27163786367E+03  0.00000000000E+00 0.  1.
         -3    1    6    6    0  502 -0.11324016960E+03 -0.16374352204E+03 -0.49785841402E+03  0.53618865843E+03  0.00000000000E+00 0.  1.
<mgrwt>
<rscale>  0 0.26061600E+04</rscale>
<asrwt>0</asrwt>
<pdfrwt beam="1">  1        1 0.25021060E+00 0.26061600E+04</pdfrwt>
<pdfrwt beam="2">  1       -1 0.16062374E+00 0.26061600E+04</pdfrwt>
<totfact> 0.13620103E+00</totfact>
</mgrwt>
</event>
<event>
12    1  0.1114484E-007  0.2232744E+04  0.7818608E-02  0.8504921E-01
         -2   -1    0    0    0  501 -0.00000000000E+00  0.00000000000E+00  0.86506871716E+03  0.86506871716E+03  0.00000000000E+00 0.  1.
          2   -1    0    0  501    0  0.00000000000E+00 -0.00000000000E+00 -0.14406796902E+04  0.14406796902E+04  0.00000000000E+00 0. -1.
         23    2    1    2    0    0  0.29076593622E+03 -0.84058630670E+03 -0.53034575304E+03  0.10398175399E+04  0.93934710098E+02 0.  0.
        254    2    1    2    0    0 -0.29076593622E+03  0.84058630670E+03 -0.45265220043E+02  0.12659308676E+04  0.89966763452E+03 0.  0.
        -24    2    4    4    0    0 -0.11738540300E+03 -0.15455881332E+03  0.11583168136E+03  0.24052040696E+03  0.82251614837E+02 0.  0.
         24    2    4    4    0    0 -0.17338053321E+03  0.99514512002E+03 -0.16109690141E+03  0.10254104606E+04  0.71692271943E+02 0.  0.
         13    1    3    3    0    0  0.24958423372E+03 -0.72906360210E+03 -0.42004712828E+03  0.87764777423E+03  0.00000000000E+00 0. -1.
        -13    1    3    3    0    0  0.41181702502E+02 -0.11152270459E+03 -0.11029862476E+03  0.16216976563E+03  0.00000000000E+00 0.  1.
          2    1    6    6  502    0 -0.15314790768E+03  0.91201353405E+03 -0.12766811793E+03  0.93355348869E+03  0.00000000000E+00 0. -1.
          1    1    5    5  503    0 -0.72537616688E+02 -0.13620418904E+03  0.11430343438E+03  0.19203791828E+03  0.00000000000E+00 0. -1.
         -2    1    5    5    0  503 -0.44847786315E+02 -0.18354624285E+02  0.15282469858E+01  0.48482488683E+02  0.00000000000E+00 0.  1.
         -1    1    6    6    0  502 -0.20232625538E+02  0.83131585968E+02 -0.33428783477E+02  0.91856971899E+02  0.00000000000E+00 0.  1.
<mgrwt>
<rscale>  0 0.22327444E+04</rscale>
<asrwt>0</asrwt>
<pdfrwt beam="1">  1        2 0.22164303E+00 0.22327444E+04</pdfrwt>
<pdfrwt beam="2">  1       -2 0.13308750E+00 0.22327444E+04</pdfrwt>
<totfact> 0.51169500E+00</totfact>
</mgrwt>
</event>
<event>
12    1  0.1114484E-007  0.2727312E+04  0.7818608E-02  0.8326197E-01
          2   -1    0    0  501    0  0.00000000000E+00  0.00000000000E+00  0.19231751486E+04  0.19231751486E+04  0.00000000000E+00 0. -1.
         -2   -1    0    0    0  501 -0.00000000000E+00 -0.00000000000E+00 -0.96692060677E+03  0.96692060677E+03  0.00000000000E+00 0.  1.
         23    2    1    2    0    0 -0.77773129619E+03 -0.85664778850E+03  0.86405614030E+03  0.14468690105E+04  0.90141652132E+02 0.  0.
        254    2    1    2    0    0  0.77773129619E+03  0.85664778850E+03  0.92198401478E+02  0.14432267448E+04  0.85772459976E+03 0.  0.
        -24    2    4    4    0    0  0.39322073269E+03 -0.20797866313E+02  0.24287333848E+03  0.46982485903E+03  0.81809802347E+02 0.  0.
         24    2    4    4    0    0  0.38451056350E+03  0.87744565481E+03 -0.15067493700E+03  0.97340188576E+03  0.83958584887E+02 0.  0.
         11    1    3    3    0    0 -0.69248840381E+03 -0.79839899160E+03  0.79794342242E+03  0.13242714392E+04  0.00000000000E+00 0. -1.
        -11    1    3    3    0    0 -0.85242892379E+02 -0.58248796902E+02  0.66112717880E+02  0.12259757138E+03  0.00000000000E+00 0.  1.
          4    1    6    6  502    0  0.73046589547E+02  0.19721727810E+03 -0.38305094565E+00  0.21031073618E+03  0.00000000000E+00 0. -1.
          1    1    5    5  503    0  0.18256563162E+03 -0.46442500540E+02  0.93448636032E+02  0.21028495734E+03  0.00000000000E+00 0. -1.
         -2    1    5    5    0  503  0.21065510106E+03  0.25644634226E+02  0.14942470244E+03  0.25953990169E+03  0.00000000000E+00 0.  1.
         -3    1    6    6    0  502  0.31146397395E+03  0.68022837671E+03 -0.15029188605E+03  0.76309114958E+03  0.00000000000E+00 0.  1.
<mgrwt>
<rscale>  0 0.27273120E+04</rscale>
<asrwt>0</asrwt>
<pdfrwt beam="1">  1        2 0.29587310E+00 0.27273120E+04</pdfrwt>
<pdfrwt beam="2">  1       -2 0.14875702E+00 0.27273120E+04</pdfrwt>
<totfact> 0.19766808E+00</totfact>
</mgrwt>
</event>
<event>
12    1  0.1114484E-007  0.1471837E+04  0.7818608E-02  0.8903400E-01
         -2   -1    0    0    0  501 -0.00000000000E+00  0.00000000000E+00  0.19781487554E+03  0.19781487554E+03  0.00000000000E+00 0.  1.
          2   -1    0    0  501    0  0.00000000000E+00 -0.00000000000E+00 -0.27377937328E+04  0.27377937328E+04  0.00000000000E+00 0. -1.
         23    2    1    2    0    0  0.14766100512E+03  0.29515433836E+03 -0.12145136110E+03  0.36375185971E+03  0.92979172096E+02 0.  0.
        254    2    1    2    0    0 -0.14766100512E+03 -0.29515433836E+03 -0.24185274962E+04  0.25718567486E+04  0.81009384018E+03 0.  0.
        -24    2    4    4    0    0 -0.12533330642E+03  0.26334886149E+02 -0.17408114292E+02  0.14786013041E+03  0.71816514764E+02 0.  0.
         24    2    4    4    0    0 -0.22327698693E+02 -0.32148922451E+03 -0.24011193819E+04  0.24239966182E+04  0.80817520137E+02 0.  0.
         11    1    3    3    0    0  0.13049432581E+03  0.19795141572E+03 -0.51096067937E+02  0.24253729654E+03  0.00000000000E+00 0.  1.
        -11    1    3    3    0    0  0.17166679305E+02  0.97202922640E+02 -0.70355293161E+02  0.12121456317E+03  0.00000000000E+00 0. -1.
          4    1    6    6  502    0 -0.51939722121E+02 -0.22367159762E+03 -0.17165675066E+04  0.17318575932E+04  0.00000000000E+00 0. -1.
          3    1    5    5  503    0 -0.11820638160E+03  0.94215149162E+01 -0.33744550214E+02  0.12328912468E+03  0.00000000000E+00 0. -1.
         -4    1    5    5    0  503 -0.71269248223E+01  0.16913371233E+02  0.16336435922E+02  0.24571005729E+02  0.00000000000E+00 0.  1.
         -3    1    6    6    0  502  0.29612023428E+02 -0.97817626898E+02 -0.68455187531E+03  0.69213902509E+03  0.00000000000E+00 0.  1.
<mgrwt>
<rscale>  0 0.14718374E+04</rscale>
<asrwt>0</asrwt>
<pdfrwt beam="1">  1        2 0.42119904E+00 0.14718374E+04</pdfrwt>
<pdfrwt beam="2">  1       -2 0.30433057E-01 0.14718374E+04</pdfrwt>
<totfact> 0.24489422E+01</totfact>
</mgrwt>
</event>
<event>
12    1  0.1114484E-007  0.3627815E+04  0.7818608E-02  0.8084150E-01
          2   -1    0    0  501    0  0.00000000000E+00  0.00000000000E+00  0.24843138862E+04  0.24843138862E+04  0.00000000000E+00 0. -1.
         -2   -1    0    0    0  501 -0.00000000000E+00 -0.00000000000E+00 -0.13244139669E+04  0.13244139669E+04  0.00000000000E+00 0.  1.
         23    2    1    2    0    0 -0.93323610700E+03  0.12645148083E+04 -0.13285184978E+03  0.15801443902E+04  0.96329373704E+02 0.  0.
        254    2    1    2    0    0  0.93323610700E+03 -0.12645148083E+04  0.12927517691E+04  0.22285834628E+04  0.90854266956E+03 0.  0.
        -24    2    4    4    0    0  0.82640915601E+03 -0.65167001373E+03  0.11953311272E+04  0.15944304902E+04  0.75935395375E+02 0.  0.
         24    2    4    4    0    0  0.10682695100E+03 -0.61284479453E+03  0.97420641837E+02  0.63415297262E+03  0.75289252844E+02 0.  0.
         13    1    3    3    0    0 -0.32740739279E+02  0.20053808038E+02 -0.54546567851E+01  0.38779691928E+02  0.00000000000E+00 0. -1.
        -13    1    3    3    0    0 -0.90049536772E+03  0.12444610002E+04 -0.12739719299E+03  0.15413646983E+04  0.00000000000E+00 0.  1.
          4    1    6    6  502    0  0.45777346837E+02 -0.29911022165E+03  0.98451699216E+01  0.30275306365E+03  0.00000000000E+00 0. -1.
          3    1    5    5  503    0  0.37885747566E+03 -0.33703343442E+03  0.61000350917E+03  0.79323943673E+03  0.00000000000E+00 0. -1.
         -4    1    5    5    0  503  0.44755168035E+03 -0.31463657931E+03  0.58532761807E+03  0.80119105343E+03  0.00000000000E+00 0.  1.
         -3    1    6    6    0  502  0.61049604159E+02 -0.31373457287E+03  0.87575471915E+02  0.33139990897E+03  0.00000000000E+00 0.  1.
<mgrwt>
<rscale>  0 0.36278148E+04</rscale>
<asrwt>0</asrwt>
<pdfrwt beam="1">  1        2 0.38220214E+00 0.36278148E+04</pdfrwt>
<pdfrwt beam="2">  1       -2 0.20375599E+00 0.36278148E+04</pdfrwt>
<totfact> 0.36327703E-01</totfact>
</mgrwt>
</event>
<event>
12    1  0.1143021E-007  0.1447315E+04  0.7818608E-02  0.8920264E-01
         -2   -1    0    0    0  501 -0.00000000000E+00  0.00000000000E+00  0.54677760503E+03  0.54677760503E+03  0.00000000000E+00 0.  1.
          2   -1    0    0  501    0  0.00000000000E+00 -0.00000000000E+00 -0.95775778946E+03  0.95775778946E+03  0.00000000000E+00 0. -1.
         23    2    1    2    0    0 -0.38291365517E+03 -0.66161886678E+01 -0.36697194433E+03  0.53849852682E+03  0.92981794968E+02 0.  0.
        254    2    1    2    0    0  0.38291365517E+03  0.66161886678E+01 -0.44008240090E+02  0.96603686766E+03  0.88578996564E+03 0.  0.
        -24    2    4    4    0    0  0.53383302578E+03 -0.17942634683E+03  0.21138736587E+03  0.60677052270E+03  0.79462792645E+02 0.  0.
         24    2    4    4    0    0 -0.15091937061E+03  0.18604253550E+03 -0.25539560596E+03  0.35926634496E+03  0.80354898019E+02 0.  0.
         13    1    3    3    0    0 -0.74203357895E+01 -0.27172087366E+01 -0.39409081928E+02  0.40193536109E+02  0.00000000000E+00 0.  1.
        -13    1    3    3    0    0 -0.37549331938E+03 -0.38989799311E+01 -0.32756286241E+03  0.49830499071E+03  0.00000000000E+00 0. -1.
          2    1    6    6  502    0 -0.15823432719E+03  0.18667352714E+03 -0.25167708240E+03  0.35103626855E+03  0.00000000000E+00 0. -1.
          1    1    5    5  503    0  0.50924882140E+03 -0.15112168965E+03  0.19977422023E+03  0.56752256893E+03  0.00000000000E+00 0. -1.
         -2    1    5    5    0  503  0.24584204383E+02 -0.28304657181E+02  0.11613145641E+02  0.39247953768E+02  0.00000000000E+00 0.  1.
         -1    1    6    6    0  502  0.73149565779E+01 -0.63099163701E+00 -0.37185235630E+01  0.82300764074E+01  0.00000000000E+00 0.  1.
<mgrwt>
<rscale>  0 0.14473155E+04</rscale>
<asrwt>0</asrwt>
<pdfrwt beam="1">  1        2 0.14734735E+00 0.14473155E+04</pdfrwt>
<pdfrwt beam="2">  1       -2 0.84119633E-01 0.14473155E+04</pdfrwt>
<totfact> 0.32121067E+01</totfact>
</mgrwt>
</event>
<event>
12    1  0.1114484E-007  0.2078748E+04  0.7818608E-02  0.8570663E-01
         -2   -1    0    0    0  501 -0.00000000000E+00  0.00000000000E+00  0.74939926891E+03  0.74939926891E+03  0.00000000000E+00 0.  1.
          2   -1    0    0  501    0  0.00000000000E+00 -0.00000000000E+00 -0.14415520238E+04  0.14415520238E+04  0.00000000000E+00 0. -1.
         23    2    1    2    0    0 -0.44178824603E+02  0.12623139886E+03  0.59538022247E+03  0.61700842528E+03  0.91299797104E+02 0.  0.
        254    2    1    2    0    0  0.44178824603E+02 -0.12623139886E+03 -0.12875329774E+04  0.15739428674E+04  0.89535961911E+03 0.  0.
        -24    2    4    4    0    0 -0.25808302114E+03  0.10921927674E+03 -0.11044435374E+04  0.11417881144E+04  0.73136001668E+02 0.  0.
         24    2    4    4    0    0  0.30226184574E+03 -0.23545067561E+03 -0.18308944000E+03  0.43215475303E+03  0.80229318159E+02 0.  0.
         11    1    3    3    0    0 -0.91061242230E+00  0.10983314595E+03  0.33493820962E+03  0.35248794792E+03  0.00000000000E+00 0.  1.
        -11    1    3    3    0    0 -0.43268212180E+02  0.16398252910E+02  0.26044201285E+03  0.26452047736E+03  0.00000000000E+00 0. -1.
          4    1    6    6  502    0  0.16281169119E+02 -0.15640857264E+02 -0.36270278868E+02  0.42722897994E+02  0.00000000000E+00 0. -1.
          1    1    5    5  503    0 -0.10685645871E+03  0.46557878578E+02 -0.60741429573E+03  0.61849661719E+03  0.00000000000E+00 0. -1.
         -2    1    5    5    0  503 -0.15122656243E+03  0.62661398166E+02 -0.49702924165E+03  0.52329149722E+03  0.00000000000E+00 0.  1.
         -3    1    6    6    0  502  0.28598067662E+03 -0.21980981834E+03 -0.14681916113E+03  0.38943185504E+03  0.00000000000E+00 0.  1.
<mgrwt>
<rscale>  0 0.20787477E+04</rscale>
<asrwt>0</asrwt>
<pdfrwt beam="1">  1        2 0.22177724E+00 0.20787477E+04</pdfrwt>
<pdfrwt beam="2">  1       -2 0.11529219E+00 0.20787477E+04</pdfrwt>
<totfact> 0.74129952E+00</totfact>
</mgrwt>
</event>
<event>
12    1  0.1114484E-007  0.2381562E+04  0.7818608E-02  0.8446439E-01
         -3   -1    0    0    0  501 -0.00000000000E+00  0.00000000000E+00  0.95122003805E+03  0.95122003805E+03  0.00000000000E+00 0.  1.
          3   -1    0    0  501    0  0.00000000000E+00 -0.00000000000E+00 -0.14906740248E+04  0.14906740248E+04  0.00000000000E+00 0. -1.
         23    2    1    2    0    0 -0.77269426617E+03 -0.32577852875E+03  0.36943483137E+03  0.92095901715E+03  0.92170157174E+02 0.  0.
        254    2    1    2    0    0  0.77269426617E+03  0.32577852875E+03 -0.90888881810E+03  0.15209350457E+04  0.88542444667E+03 0.  0.
        -24    2    4    4    0    0  0.44915173242E+03 -0.24381576768E+03 -0.60080047750E+03  0.79269429145E+03  0.78864558780E+02 0.  0.
         24    2    4    4    0    0  0.32354253375E+03  0.56959429642E+03 -0.30808834060E+03  0.72824075423E+03  0.79364581852E+02 0.  0.
         11    1    3    3    0    0 -0.14821374341E+03 -0.73490628012E+02  0.35485968700E+02  0.16919645421E+03  0.00000000000E+00 0.  1.
        -11    1    3    3    0    0 -0.62448052276E+03 -0.25228790073E+03  0.33394886267E+03  0.75176256295E+03  0.00000000000E+00 0. -1.
          2    1    6    6  502    0  0.20566696968E+03  0.43341315263E+03 -0.22614594704E+03  0.53036577252E+03  0.00000000000E+00 0. -1.
          1    1    5    5  503    0  0.24378178186E+03 -0.16126716593E+03 -0.29590222406E+03  0.41592641437E+03  0.00000000000E+00 0. -1.
         -2    1    5    5    0  503  0.20536995057E+03 -0.82548601747E+02 -0.30489825344E+03  0.37676787708E+03  0.00000000000E+00 0.  1.
         -1    1    6    6    0  502  0.11787556407E+03  0.13618114379E+03 -0.81942393559E+02  0.19787498172E+03  0.00000000000E+00 0.  1.
<mgrwt>
<rscale>  0 0.23815617E+04</rscale>
<asrwt>0</asrwt>
<pdfrwt beam="1">  1        3 0.22933447E+00 0.23815617E+04</pdfrwt>
<pdfrwt beam="2">  1       -3 0.14634154E+00 0.23815617E+04</pdfrwt>
<totfact> 0.78715073E-02</totfact>
</mgrwt>
</event>
<event>
12    1  0.1114484E-007  0.1473082E+04  0.7818608E-02  0.8902553E-01
         -2   -1    0    0    0  501 -0.00000000000E+00  0.00000000000E+00  0.15661118542E+03  0.15661118542E+03  0.00000000000E+00 0.  1.
          2   -1    0    0  501    0  0.00000000000E+00 -0.00000000000E+00 -0.34639446321E+04  0.34639446321E+04  0.00000000000E+00 0. -1.
         23    2    1    2    0    0  0.63996192539E+02  0.15751622209E+03 -0.20684573180E+04  0.20774848713E+04  0.92308404025E+02 0.  0.
        254    2    1    2    0    0 -0.63996192539E+02 -0.15751622209E+03 -0.12388761287E+04  0.15430709462E+04  0.90407245827E+03 0.  0.
        -24    2    4    4    0    0  0.12858907494E+03  0.34344437817E+03 -0.53716725316E+03  0.65531270942E+03  0.79980611190E+02 0.  0.
         24    2    4    4    0    0 -0.19258526747E+03 -0.50096060026E+03 -0.70170887556E+03  0.88775823678E+03  0.87571300453E+02 0.  0.
         13    1    3    3    0    0  0.33232740605E+02  0.33617981034E+02 -0.24213120639E+03  0.24670246210E+03  0.00000000000E+00 0.  1.
        -13    1    3    3    0    0  0.30763451934E+02  0.12389824105E+03 -0.18263261116E+04  0.18307824092E+04  0.00000000000E+00 0. -1.
          2    1    6    6  502    0 -0.12230693089E+02 -0.93775822392E+02 -0.16666659855E+03  0.19162789408E+03  0.00000000000E+00 0. -1.
          3    1    5    5  503    0  0.77460680504E+01  0.82810432479E+02 -0.16867351234E+03  0.18806467787E+03  0.00000000000E+00 0. -1.
         -4    1    5    5    0  503  0.12084300689E+03  0.26063394569E+03 -0.36849374082E+03  0.46724803155E+03  0.00000000000E+00 0.  1.
         -1    1    6    6    0  502 -0.18035457439E+03 -0.40718477787E+03 -0.53504227701E+03  0.69613034270E+03  0.00000000000E+00 0.  1.
<mgrwt>
<rscale>  0 0.14730818E+04</rscale>
<asrwt>0</asrwt>
<pdfrwt beam="1">  1        2 0.53291461E+00 0.14730818E+04</pdfrwt>
<pdfrwt beam="2">  1       -2 0.24094026E-01 0.14730818E+04</pdfrwt>
<totfact> 0.12976645E+01</totfact>
</mgrwt>
</event>
<event>
12    1  0.1114484E-007  0.1345371E+04  0.7818608E-02  0.8994339E-01
         -4   -1    0    0    0  501 -0.00000000000E+00  0.00000000000E+00  0.79897514521E+03  0.79897514521E+03  0.00000000000E+00 0.  1.
          4   -1    0    0  501    0  0.00000000000E+00 -0.00000000000E+00 -0.56635791490E+03  0.56635791490E+03  0.00000000000E+00 0. -1.
         23    2    1    2    0    0  0.28460983093E+03  0.87943734861E+02 -0.14061616141E+03  0.34193789359E+03  0.91715657670E+02 0.  0.
        254    2    1    2    0    0 -0.28460983093E+03 -0.87943734861E+02  0.37323339172E+03  0.10233951665E+04  0.90515062050E+03 0.  0.
        -24    2    4    4    0    0 -0.12249287041E+03  0.19017040820E+03  0.58308080439E+03  0.63061660457E+03  0.80776172529E+02 0.  0.
         24    2    4    4    0    0 -0.16211696052E+03 -0.27811414306E+03 -0.20984741267E+03  0.39277856195E+03  0.81299917967E+02 0.  0.
         11    1    3    3    0    0  0.68663756253E+02  0.64711630803E+02 -0.47362700474E+02  0.10557240160E+03  0.00000000000E+00 0.  1.
        -11    1    3    3    0    0  0.21594607468E+03  0.23232104058E+02 -0.93253460936E+02  0.23636549199E+03  0.00000000000E+00 0. -1.
          2    1    6    6  502    0 -0.15409661153E+03 -0.21191055790E+03 -0.18843488062E+03  0.32273759382E+03  0.00000000000E+00 0. -1.
          1    1    5    5  503    0 -0.12160193423E+03  0.19670142736E+03  0.57712529611E+03  0.62173313354E+03  0.00000000000E+00 0. -1.
         -2    1    5    5    0  503 -0.89093618053E+00 -0.65310191600E+01  0.59555082816E+01  0.88834710242E+01  0.00000000000E+00 0.  1.
         -1    1    6    6    0  502 -0.80203489895E+01 -0.66203585168E+02 -0.21412532050E+02  0.70040968124E+02  0.00000000000E+00 0.  1.
<mgrwt>
<rscale>  0 0.13453712E+04</rscale>
<asrwt>0</asrwt>
<pdfrwt beam="1">  1        4 0.87131987E-01 0.13453712E+04</pdfrwt>
<pdfrwt beam="2">  1       -4 0.12291925E+00 0.13453712E+04</pdfrwt>
<totfact> 0.11097658E+00</totfact>
</mgrwt>
</event>
<event>
12    1  0.1114484E-007  0.1532295E+04  0.7818608E-02  0.8863257E-01
          2   -1    0    0  501    0  0.00000000000E+00  0.00000000000E+00  0.27051650187E+04  0.27051650187E+04  0.00000000000E+00 0. -1.
         -2   -1    0    0    0  501 -0.00000000000E+00 -0.00000000000E+00 -0.21698561065E+03  0.21698561065E+03  0.00000000000E+00 0.  1.
         23    2    1    2    0    0 -0.28059760351E+03  0.30089711841E+03  0.13828325922E+04  0.14457124836E+04  0.92652665493E+02 0.  0.
        254    2    1    2    0    0  0.28059760351E+03 -0.30089711841E+03  0.11053468159E+04  0.14764381457E+04  0.88814634141E+03 0.  0.
        -24    2    4    4    0    0 -0.23087122727E+02 -0.47844855961E+03  0.98161164780E+03  0.10951060813E+04  0.79056073919E+02 0.  0.
         24    2    4    4    0    0  0.30368472624E+03  0.17755144120E+03  0.12373516809E+03  0.38133206439E+03  0.79717151791E+02 0.  0.
         11    1    3    3    0    0 -0.25331648756E+03  0.26605219502E+03  0.13095823673E+04  0.13601319752E+04  0.00000000000E+00 0. -1.
        -11    1    3    3    0    0 -0.27281115953E+02  0.34844923392E+02  0.73250224883E+02  0.85580508407E+02  0.00000000000E+00 0.  1.
          4    1    6    6  502    0  0.17265450077E+03  0.57720000146E+02  0.47829810971E+02  0.18822557178E+03  0.00000000000E+00 0. -1.
          1    1    5    5  503    0  0.26370356131E+02 -0.16241732928E+03  0.29979834602E+03  0.34198513536E+03  0.00000000000E+00 0. -1.
         -2    1    5    5    0  503 -0.49457478858E+02 -0.31603123034E+03  0.68181330178E+03  0.75312094596E+03  0.00000000000E+00 0.  1.
         -3    1    6    6    0  502  0.13103022546E+03  0.11983144105E+03  0.75905357118E+02  0.19310649261E+03  0.00000000000E+00 0.  1.
<mgrwt>
<rscale>  0 0.15322949E+04</rscale>
<asrwt>0</asrwt>
<pdfrwt beam="1">  1        2 0.41617921E+00 0.15322949E+04</pdfrwt>
<pdfrwt beam="2">  1       -2 0.33382403E-01 0.15322949E+04</pdfrwt>
<totfact> 0.21395899E+01</totfact>
</mgrwt>
</event>
<event>
12    1  0.1114484E-007  0.2347957E+04  0.7818608E-02  0.8459249E-01
         -1   -1    0    0    0  501 -0.00000000000E+00  0.00000000000E+00  0.45847384909E+03  0.45847384909E+03  0.00000000000E+00 0.  1.
          1   -1    0    0  501    0  0.00000000000E+00 -0.00000000000E+00 -0.30061160703E+04  0.30061160703E+04  0.00000000000E+00 0. -1.
         23    2    1    2    0    0  0.60068454796E+03 -0.75940386675E+03 -0.14344070309E+04  0.17330442097E+04  0.91665387854E+02 0.  0.
        254    2    1    2    0    0 -0.60068454796E+03  0.75940386675E+03 -0.11132351903E+04  0.17315457098E+04  0.90633426339E+03 0.  0.
        -24    2    4    4    0    0 -0.20642279197E+03  0.35969969112E+03 -0.10844686944E+04  0.11635171330E+04  0.75534977303E+02 0.  0.
         24    2    4    4    0    0 -0.39426175600E+03  0.39970417563E+03 -0.28766495936E+02  0.56802857677E+03  0.81382998716E+02 0.  0.
         13    1    3    3    0    0  0.65210902456E+02 -0.67532001481E+02 -0.18928485791E+03  0.21128603943E+03  0.00000000000E+00 0.  1.
        -13    1    3    3    0    0  0.53547364551E+03 -0.69187186527E+03 -0.12451221730E+04  0.15217581702E+04  0.00000000000E+00 0. -1.
          2    1    6    6  502    0 -0.78411983842E+02  0.95506272442E+02  0.25473048432E+02  0.12616958224E+03  0.00000000000E+00 0. -1.
          1    1    5    5  503    0 -0.11139857446E+03  0.17455312902E+03 -0.44020241707E+03  0.48647364290E+03  0.00000000000E+00 0. -1.
         -2    1    5    5    0  503 -0.95024217504E+02  0.18514656210E+03 -0.64426627733E+03  0.67704349009E+03  0.00000000000E+00 0.  1.
         -1    1    6    6    0  502 -0.31584977215E+03  0.30419790319E+03 -0.54239544368E+02  0.44185899453E+03  0.00000000000E+00 0.  1.
<mgrwt>
<rscale>  0 0.23479571E+04</rscale>
<asrwt>0</asrwt>
<pdfrwt beam="1">  1        1 0.46247940E+00 0.23479571E+04</pdfrwt>
<pdfrwt beam="2">  1       -1 0.70534438E-01 0.23479571E+04</pdfrwt>
<totfact> 0.10821582E+00</totfact>
</mgrwt>
</event>
<event>
12    1  0.1114484E-007  0.1051537E+04  0.7818608E-02  0.9253758E-01
          2   -1    0    0  501    0  0.00000000000E+00  0.00000000000E+00  0.69904448673E+03  0.69904448673E+03  0.00000000000E+00 0. -1.
         -2   -1    0    0    0  501 -0.00000000000E+00 -0.00000000000E+00 -0.39544352343E+03  0.39544352343E+03  0.00000000000E+00 0.  1.
         23    2    1    2    0    0 -0.11137880531E+03  0.16806154279E+02  0.77905356401E+02  0.16541635450E+03  0.92766592510E+02 0.  0.
        254    2    1    2    0    0  0.11137880531E+03 -0.16806154279E+02  0.22569560690E+03  0.92907165565E+03  0.89417445125E+03 0.  0.
        -24    2    4    4    0    0 -0.36025902533E+03 -0.15911408104E+03  0.73231585474E+02  0.40787837849E+03  0.76798765668E+02 0.  0.
         24    2    4    4    0    0  0.47163783064E+03  0.14230792676E+03  0.15246402143E+03  0.52119327717E+03  0.75520626456E+02 0.  0.
         11    1    3    3    0    0 -0.19155327152E+02  0.37418669718E+00  0.68662686551E+02  0.71285560238E+02  0.00000000000E+00 0. -1.
        -11    1    3    3    0    0 -0.92223478160E+02  0.16431967582E+02  0.92426698502E+01  0.94130794263E+02  0.00000000000E+00 0.  1.
          4    1    6    6  502    0  0.35435212674E+02  0.35631159618E+01  0.31980742706E+02  0.47865624373E+02  0.00000000000E+00 0. -1.
          1    1    5    5  503    0 -0.11925109979E+02 -0.25457519159E+02  0.66503167201E+01  0.28888064010E+02  0.00000000000E+00 0. -1.
         -2    1    5    5    0  503 -0.34833391535E+03 -0.13365656188E+03  0.66581268754E+02  0.37899031448E+03  0.00000000000E+00 0.  1.
         -3    1    6    6    0  502  0.43620261797E+03  0.13874481080E+03  0.12048327872E+03  0.47332765279E+03  0.00000000000E+00 0.  1.
<mgrwt>
<rscale>  0 0.10515372E+04</rscale>
<asrwt>0</asrwt>
<pdfrwt beam="1">  1        2 0.10754531E+00 0.10515372E+04</pdfrwt>
<pdfrwt beam="2">  1       -2 0.60837465E-01 0.10515372E+04</pdfrwt>
<totfact> 0.10282372E+02</totfact>
</mgrwt>
</event>
<event>
12    1  0.2897087E-007  0.2505308E+04  0.7818608E-02  0.8401097E-01
          1   -1    0    0  501    0  0.00000000000E+00  0.00000000000E+00  0.10526133677E+04  0.10526133677E+04  0.00000000000E+00 0. -1.
         -1   -1    0    0    0  501 -0.00000000000E+00 -0.00000000000E+00 -0.14907107651E+04  0.14907107651E+04  0.00000000000E+00 0.  1.
         23    2    1    2    0    0 -0.79342415506E+03 -0.14509723581E+02  0.57017853060E+03  0.98145222141E+03  0.91719595694E+02 0.  0.
        254    2    1    2    0    0  0.79342415506E+03  0.14509723581E+02 -0.10082759280E+04  0.15618719114E+04  0.89055662292E+03 0.  0.
        -24    2    4    4    0    0  0.41084881204E+03  0.30002856187E+03 -0.94161131267E+03  0.10732772359E+04  0.80487742222E+02 0.  0.
         24    2    4    4    0    0  0.38257534302E+03 -0.28551883829E+03 -0.66664615340E+02  0.48859467548E+03  0.79973032112E+02 0.  0.
         13    1    3    3    0    0 -0.62380220983E+03 -0.47962255775E+02  0.43539443536E+03  0.76223217546E+03  0.00000000000E+00 0. -1.
        -13    1    3    3    0    0 -0.16962194523E+03  0.33452532194E+02  0.13478409524E+03  0.21922004595E+03  0.00000000000E+00 0.  1.
          4    1    6    6  502    0  0.19566859793E+02 -0.37202472075E+02 -0.19249744352E+02  0.46232440864E+02  0.00000000000E+00 0. -1.
          3    1    5    5  503    0  0.53673135883E+02  0.64190370610E+02 -0.11247515130E+03  0.14018512351E+03  0.00000000000E+00 0. -1.
         -4    1    5    5    0  503  0.35717567616E+03  0.23583819126E+03 -0.82913616137E+03  0.93309211238E+03  0.00000000000E+00 0.  1.
         -3    1    6    6    0  502  0.36300848322E+03 -0.24831636622E+03 -0.47414870988E+02  0.44236223461E+03  0.00000000000E+00 0.  1.
<mgrwt>
<rscale>  0 0.25053080E+04</rscale>
<asrwt>0</asrwt>
<pdfrwt beam="1">  1        1 0.16194052E+00 0.25053080E+04</pdfrwt>
<pdfrwt beam="2">  1       -1 0.22934012E+00 0.25053080E+04</pdfrwt>
<totfact> 0.11663253E+00</totfact>
</mgrwt>
</event>
<event>
12    1  0.1114484E-007  0.1589101E+04  0.7818608E-02  0.8827272E-01
          2   -1    0    0  501    0  0.00000000000E+00  0.00000000000E+00  0.13485598225E+04  0.13485598225E+04  0.00000000000E+00 0.  1.
         -2   -1    0    0    0  501 -0.00000000000E+00 -0.00000000000E+00 -0.46813700817E+03  0.46813700817E+03  0.00000000000E+00 0. -1.
         23    2    1    2    0    0  0.44494831998E+03  0.64092083130E+02  0.59643856507E+03  0.75195959788E+03  0.87278132268E+02 0.  0.
        254    2    1    2    0    0 -0.44494831998E+03 -0.64092083130E+02  0.28398424929E+03  0.10647372328E+04  0.92245949425E+03 0.  0.
        -24    2    4    4    0    0 -0.25063202226E+03  0.22125003606E+03  0.53112444955E+03  0.63247687565E+03  0.78522788295E+02 0.  0.
         24    2    4    4    0    0 -0.19431629772E+03 -0.28534211920E+03 -0.24714020026E+03  0.43226035716E+03  0.81189834623E+02 0.  0.
         11    1    3    3    0    0  0.17779015262E+03 -0.12573251428E+02  0.26567776091E+03  0.31992514384E+03  0.00000000000E+00 0. -1.
        -11    1    3    3    0    0  0.26715816736E+03  0.76665334559E+02  0.33076080417E+03  0.43203445404E+03  0.00000000000E+00 0.  1.
          4    1    6    6  502    0 -0.17337278795E+01  0.37813074307E+01 -0.12182888122E+02  0.12873494523E+02  0.00000000000E+00 0. -1.
          3    1    5    5  503    0 -0.12498927286E+03  0.59520302450E+02  0.20427368819E+03  0.24676451208E+03  0.00000000000E+00 0. -1.
         -4    1    5    5    0  503 -0.12564274940E+03  0.16172973361E+03  0.32685076136E+03  0.38571236358E+03  0.00000000000E+00 0.  1.
         -3    1    6    6    0  502 -0.19258256984E+03 -0.28912342663E+03 -0.23495731214E+03  0.41938686264E+03  0.00000000000E+00 0.  1.
<mgrwt>
<rscale>  0 0.15891013E+04</rscale>
<asrwt>0</asrwt>
<pdfrwt beam="1">  1        2 0.20747074E+00 0.15891013E+04</pdfrwt>
<pdfrwt beam="2">  1       -2 0.72021079E-01 0.15891013E+04</pdfrwt>
<totfact> 0.25965480E+01</totfact>
</mgrwt>
</event>
<event>
12    1  0.1114484E-007  0.1122819E+04  0.7818608E-02  0.9183232E-01
          2   -1    0    0  501    0  0.00000000000E+00  0.00000000000E+00  0.46313587819E+03  0.46313587819E+03  0.00000000000E+00 0. -1.
         -2   -1    0    0    0  501 -0.00000000000E+00 -0.00000000000E+00 -0.68053613529E+03  0.68053613529E+03  0.00000000000E+00 0.  1.
         23    2    1    2    0    0  0.15998411377E+03 -0.55086920568E+02 -0.11682367051E+03  0.22356606166E+03  0.87775443374E+02 0.  0.
        254    2    1    2    0    0 -0.15998411377E+03  0.55086920568E+02 -0.10057658659E+03  0.92010595182E+03  0.89880466583E+03 0.  0.
        -24    2    4    4    0    0 -0.19500605552E+03 -0.22390504274E+03  0.29658754574E+03  0.42708006320E+03  0.79198347504E+02 0.  0.
         24    2    4    4    0    0  0.35021941746E+02  0.27899196331E+03 -0.39716413233E+03  0.49302588861E+03  0.79196760292E+02 0.  0.
         13    1    3    3    0    0  0.49760714337E+02 -0.58680749687E+02 -0.69053218384E+02  0.10338232946E+03  0.00000000000E+00 0.  1.
        -13    1    3    3    0    0  0.11022339943E+03  0.35938291185E+01 -0.47770452130E+02  0.12018373221E+03  0.00000000000E+00 0. -1.
          2    1    6    6  502    0  0.21800638930E+02  0.16308622273E+02 -0.22840941975E+02  0.35537974738E+02  0.00000000000E+00 0. -1.
          3    1    5    5  503    0 -0.15510236227E+03 -0.15871725248E+03  0.17139334959E+03  0.28039898234E+03  0.00000000000E+00 0. -1.
         -4    1    5    5    0  503 -0.39903693250E+02 -0.65187790263E+02  0.12519419614E+03  0.14668108086E+03  0.00000000000E+00 0.  1.
         -1    1    6    6    0  502  0.13221302816E+02  0.26268334103E+03 -0.37432319035E+03  0.45748791388E+03  0.00000000000E+00 0.  1.
<mgrwt>
<rscale>  0 0.11228191E+04</rscale>
<asrwt>0</asrwt>
<pdfrwt beam="1">  1        2 0.71251674E-01 0.11228191E+04</pdfrwt>
<pdfrwt beam="2">  1       -2 0.10469787E+00 0.11228191E+04</pdfrwt>
<totfact> 0.49389211E+01</totfact>
</mgrwt>
</event>
<event>
12    1  0.1114484E-007  0.3134126E+04  0.7818608E-02  0.8206434E-01
         -1   -1    0    0    0  501 -0.00000000000E+00  0.00000000000E+00  0.13982259998E+04  0.13982259998E+04  0.00000000000E+00 0.  1.
          1   -1    0    0  501    0  0.00000000000E+00 -0.00000000000E+00 -0.17562867302E+04  0.17562867302E+04  0.00000000000E+00 0. -1.
         23    2    1    2    0    0  0.13848657120E+03  0.28650477914E+03 -0.15732978416E+04  0.16077550056E+04  0.91359405216E+02 0.  0.
        254    2    1    2    0    0 -0.13848657120E+03 -0.28650477914E+03  0.12152371112E+04  0.15467577243E+04  0.90243819858E+03 0.  0.
        -24    2    4    4    0    0  0.30568698375E+03  0.14454624209E+02  0.14728744918E+03  0.34891589798E+03  0.79970263111E+02 0.  0.
         24    2    4    4    0    0 -0.44417355495E+03 -0.30095940335E+03  0.10679496620E+04  0.11978418263E+04  0.80261141305E+02 0.  0.
         11    1    3    3    0    0 -0.36357976693E+01  0.20266740044E+02 -0.39466496842E+02  0.44514763277E+02  0.00000000000E+00 0.  1.
        -11    1    3    3    0    0  0.14212236887E+03  0.26623803910E+03 -0.15338313448E+04  0.15632402424E+04  0.00000000000E+00 0. -1.
          4    1    6    6  502    0 -0.54912718327E+02 -0.13394136911E+02  0.83031765614E+02  0.10044443060E+03  0.00000000000E+00 0. -1.
          3    1    5    5  503    0  0.25812699633E+03  0.67777459153E+01  0.15341445553E+03  0.30035225859E+03  0.00000000000E+00 0. -1.
         -4    1    5    5    0  503  0.47559987418E+02  0.76768782941E+01 -0.61270063564E+01  0.48563639386E+02  0.00000000000E+00 0.  1.
         -3    1    6    6    0  502 -0.38926083662E+03 -0.28756526644E+03  0.98491789643E+03  0.10973973957E+04  0.00000000000E+00 0.  1.
<mgrwt>
<rscale>  0 0.31341256E+04</rscale>
<asrwt>0</asrwt>
<pdfrwt beam="1">  1        1 0.27019796E+00 0.31341256E+04</pdfrwt>
<pdfrwt beam="2">  1       -1 0.21511169E+00 0.31341256E+04</pdfrwt>
<totfact> 0.43577552E-01</totfact>
</mgrwt>
</event>
<event>
12    1  0.1114484E-007  0.2316323E+04  0.7818608E-02  0.8471513E-01
         -2   -1    0    0    0  501 -0.00000000000E+00  0.00000000000E+00  0.35734434752E+03  0.35734434752E+03  0.00000000000E+00 0.  1.
          2   -1    0    0  501    0  0.00000000000E+00 -0.00000000000E+00 -0.37536275170E+04  0.37536275170E+04  0.00000000000E+00 0. -1.
         23    2    1    2    0    0 -0.54824302134E+03 -0.47745912235E+03 -0.28196514050E+03  0.78519519704E+03  0.92138661950E+02 0.  0.
        254    2    1    2    0    0  0.54824302134E+03  0.47745912235E+03 -0.31143180290E+04  0.33257766675E+04  0.91283954361E+03 0.  0.
        -24    2    4    4    0    0 -0.15836512513E+03  0.38497090091E+03 -0.15087832514E+04  0.15673862325E+04  0.83609776891E+02 0.  0.
         24    2    4    4    0    0  0.70660814647E+03  0.92488221443E+02 -0.16055347776E+04  0.17583904350E+04  0.79660881176E+02 0.  0.
         11    1    3    3    0    0 -0.48120341254E+03 -0.45337835294E+03 -0.26252791848E+03  0.71135754944E+03  0.00000000000E+00 0.  1.
        -11    1    3    3    0    0 -0.67039608799E+02 -0.24080769410E+02 -0.19437222017E+02  0.73837647599E+02  0.00000000000E+00 0. -1.
          4    1    6    6  502    0  0.12665696719E+02 -0.14413016358E+01 -0.10905329949E+02  0.16775680167E+02  0.00000000000E+00 0. -1.
          1    1    5    5  503    0  0.92367942926E+01  0.37492794586E+02 -0.12450590741E+03  0.13035623880E+03  0.00000000000E+00 0. -1.
         -2    1    5    5    0  503 -0.16760191942E+03  0.34747810632E+03 -0.13842773440E+04  0.14370299937E+04  0.00000000000E+00 0.  1.
         -3    1    6    6    0  502  0.69394244975E+03  0.93929523079E+02 -0.15946294476E+04  0.17416147548E+04  0.00000000000E+00 0.  1.
<mgrwt>
<rscale>  0 0.23163226E+04</rscale>
<asrwt>0</asrwt>
<pdfrwt beam="1">  1        2 0.57748118E+00 0.23163226E+04</pdfrwt>
<pdfrwt beam="2">  1       -2 0.54976051E-01 0.23163226E+04</pdfrwt>
<totfact> 0.15059531E+00</totfact>
</mgrwt>
</event>
<event>
12    1  0.1114484E-007  0.1723253E+04  0.7818608E-02  0.8748213E-01
          2   -1    0    0  501    0  0.00000000000E+00  0.00000000000E+00  0.85188893298E+03  0.85188893298E+03  0.00000000000E+00 0. -1.
         -2   -1    0    0    0  501 -0.00000000000E+00 -0.00000000000E+00 -0.87147488889E+03  0.87147488889E+03  0.00000000000E+00 0.  1.
         23    2    1    2    0    0  0.17547988582E+03  0.60056331366E+03 -0.53214209563E+02  0.63418296384E+03  0.88807631939E+02 0.  0.
        254    2    1    2    0    0 -0.17547988582E+03 -0.60056331366E+03  0.33628253652E+02  0.10891808580E+04  0.89090661577E+03 0.  0.
        -24    2    4    4    0    0 -0.53421692165E+02  0.17833614573E+03 -0.17703088493E+03  0.26929142160E+03  0.80748235032E+02 0.  0.
         24    2    4    4    0    0 -0.12205819366E+03 -0.77889945938E+03  0.21065913859E+03  0.81988943643E+03  0.79112861354E+02 0.  0.
         11    1    3    3    0    0  0.14819380426E+03  0.47969779835E+03 -0.77222722911E+02  0.50797119042E+03  0.00000000000E+00 0. -1.
        -11    1    3    3    0    0  0.27286081561E+02  0.12086551531E+03  0.24008513347E+02  0.12621177343E+03  0.00000000000E+00 0.  1.
          4    1    6    6  502    0 -0.64766742670E+02 -0.19104767364E+03  0.53478563896E+02  0.20869571475E+03  0.00000000000E+00 0. -1.
          3    1    5    5  503    0 -0.23412525274E+01  0.59407246099E+02 -0.10628787260E+03  0.12178593603E+03  0.00000000000E+00 0. -1.
         -4    1    5    5    0  503 -0.51080439637E+02  0.11892889963E+03 -0.70743012338E+02  0.14750548557E+03  0.00000000000E+00 0.  1.
         -3    1    6    6    0  502 -0.57291450988E+02 -0.58785178574E+03  0.15718057469E+03  0.61119372168E+03  0.00000000000E+00 0.  1.
<mgrwt>
<rscale>  0 0.17232525E+04</rscale>
<asrwt>0</asrwt>
<pdfrwt beam="1">  1        2 0.13105984E+00 0.17232525E+04</pdfrwt>
<pdfrwt beam="2">  1       -2 0.13407306E+00 0.17232525E+04</pdfrwt>
<totfact> 0.12065429E+01</totfact>
</mgrwt>
</event>
<event>
12    1  0.1114484E-007  0.1943022E+04  0.7818608E-02  0.8633733E-01
         -1   -1    0    0    0  501 -0.00000000000E+00  0.00000000000E+00  0.10473722991E+04  0.10473722991E+04  0.00000000000E+00 0.  1.
          1   -1    0    0  501    0  0.00000000000E+00 -0.00000000000E+00 -0.90114397066E+03  0.90114397066E+03  0.00000000000E+00 0. -1.
         23    2    1    2    0    0  0.25002627955E+03 -0.27141620254E+03  0.72719182737E+03  0.82059907368E+03  0.91624180542E+02 0.  0.
        254    2    1    2    0    0 -0.25002627955E+03  0.27141620254E+03 -0.58096349896E+03  0.11279171960E+04  0.89358755505E+03 0.  0.
        -24    2    4    4    0    0 -0.26026501614E+03  0.57176594302E+03 -0.49919410326E+03  0.80646166874E+03  0.80817684861E+02 0.  0.
         24    2    4    4    0    0  0.10238736586E+02 -0.30034974048E+03 -0.81769395701E+02  0.32145552731E+03  0.79577783519E+02 0.  0.
         13    1    3    3    0    0  0.22738950769E+03 -0.19840106728E+03  0.54399478084E+03  0.62209267258E+03  0.00000000000E+00 0.  1.
        -13    1    3    3    0    0  0.22636771869E+02 -0.73015135259E+02  0.18319704654E+03  0.19850640110E+03  0.00000000000E+00 0. -1.
          2    1    6    6  502    0 -0.33734099903E+02 -0.11230242988E+03 -0.39777310368E+02  0.12382269450E+03  0.00000000000E+00 0. -1.
          3    1    5    5  503    0 -0.14286687370E+03  0.38604129527E+03 -0.29412545508E+03  0.50591363748E+03  0.00000000000E+00 0. -1.
         -4    1    5    5    0  503 -0.11739814244E+03  0.18572464775E+03 -0.20506864818E+03  0.30054803126E+03  0.00000000000E+00 0.  1.
         -1    1    6    6    0  502  0.43972836489E+02 -0.18804731060E+03 -0.41992085333E+02  0.19763283280E+03  0.00000000000E+00 0.  1.
<mgrwt>
<rscale>  0 0.19430216E+04</rscale>
<asrwt>0</asrwt>
<pdfrwt beam="1">  1        1 0.13863753E+00 0.19430216E+04</pdfrwt>
<pdfrwt beam="2">  1       -1 0.16113420E+00 0.19430216E+04</pdfrwt>
<totfact> 0.48498113E+00</totfact>
</mgrwt>
</event>
<event>
12    1  0.1114484E-007  0.2022753E+04  0.7818608E-02  0.8596056E-01
          1   -1    0    0  501    0  0.00000000000E+00  0.00000000000E+00  0.12461338845E+04  0.12461338845E+04  0.00000000000E+00 0. -1.
         -1   -1    0    0    0  501 -0.00000000000E+00 -0.00000000000E+00 -0.82084470601E+03  0.82084470601E+03  0.00000000000E+00 0.  1.
         23    2    1    2    0    0 -0.26680054029E+03 -0.26892331822E+03  0.90278994445E+03  0.98358316987E+03  0.94360420040E+02 0.  0.
        254    2    1    2    0    0  0.26680054029E+03  0.26892331822E+03 -0.47750076591E+03  0.10833954207E+04  0.89567649112E+03 0.  0.
        -24    2    4    4    0    0 -0.83334442766E+02 -0.10939666348E+03  0.18263313718E+03  0.24205792575E+03  0.79529348602E+02 0.  0.
         24    2    4    4    0    0  0.35013498305E+03  0.37831998170E+03 -0.66013390309E+03  0.84133749494E+03  0.79696270131E+02 0.  0.
         13    1    3    3    0    0  0.24377453486E+01  0.39417648945E+01  0.29532081229E+02  0.29893543359E+02  0.00000000000E+00 0.  1.
        -13    1    3    3    0    0 -0.26923828564E+03 -0.27286508312E+03  0.87325786322E+03  0.95368962651E+03  0.00000000000E+00 0. -1.
          4    1    6    6  502    0  0.95886284581E+02  0.15945730714E+03 -0.24184022119E+03  0.30513522405E+03  0.00000000000E+00 0. -1.
          1    1    5    5  503    0 -0.82823394931E+01 -0.66499844111E+02  0.49467500711E+02  0.83293817543E+02  0.00000000000E+00 0. -1.
         -2    1    5    5    0  503 -0.75052103273E+02 -0.42896819369E+02  0.13316563647E+03  0.15876410820E+03  0.00000000000E+00 0.  1.
         -3    1    6    6    0  502  0.25424869847E+03  0.21886267456E+03 -0.41829368190E+03  0.53620227089E+03  0.00000000000E+00 0.  1.
<mgrwt>
<rscale>  0 0.20227530E+04</rscale>
<asrwt>0</asrwt>
<pdfrwt beam="1">  1        1 0.19171291E+00 0.20227530E+04</pdfrwt>
<pdfrwt beam="2">  1       -1 0.12628380E+00 0.20227530E+04</pdfrwt>
<totfact> 0.49957285E+00</totfact>
</mgrwt>
</event>
<event>
12    1  0.1114484E-007  0.3046558E+04  0.7818608E-02  0.8230560E-01
         -2   -1    0    0    0  501 -0.00000000000E+00  0.00000000000E+00  0.21972714397E+04  0.21972714397E+04  0.00000000000E+00 0.  1.
          2   -1    0    0  501    0  0.00000000000E+00 -0.00000000000E+00 -0.10560272092E+04  0.10560272092E+04  0.00000000000E+00 0. -1.
         23    2    1    2    0    0  0.14970923884E+03  0.12047513351E+04 -0.20689028839E+03  0.12348942311E+04  0.91222447748E+02 0.  0.
        254    2    1    2    0    0 -0.14970923884E+03 -0.12047513351E+04  0.13481345188E+04  0.20184044178E+04  0.88467569058E+03 0.  0.
        -24    2    4    4    0    0 -0.25993749426E+03  0.10346791251E+02  0.17171666489E+03  0.32182938069E+03  0.80081085526E+02 0.  0.
         24    2    4    4    0    0  0.11022825543E+03 -0.12150981263E+04  0.11764178539E+04  0.16965750371E+04  0.76119410891E+02 0.  0.
         11    1    3    3    0    0  0.29991080277E+02  0.43315070076E+03 -0.36752886127E+02  0.43574048366E+03  0.00000000000E+00 0. -1.
        -11    1    3    3    0    0  0.11971815856E+03  0.77160063430E+03 -0.17013740226E+03  0.79915374740E+03  0.00000000000E+00 0.  1.
          4    1    6    6  502    0  0.11144140355E+03 -0.84509945481E+03  0.81374373043E+03  0.11784698273E+04  0.00000000000E+00 0. -1.
          1    1    5    5  503    0 -0.24903337322E+03 -0.18074958393E+01  0.13885468267E+03  0.28513419809E+03  0.00000000000E+00 0. -1.
         -2    1    5    5    0  503 -0.10904121041E+02  0.12154287090E+02  0.32861982226E+02  0.36695182602E+02  0.00000000000E+00 0.  1.
         -1    1    6    6    0  502 -0.12131481234E+01 -0.36999867150E+03  0.36267412351E+03  0.51810520988E+03  0.00000000000E+00 0.  1.
<mgrwt>
<rscale>  0 0.30465577E+04</rscale>
<asrwt>0</asrwt>
<pdfrwt beam="1">  1        2 0.16246573E+00 0.30465577E+04</pdfrwt>
<pdfrwt beam="2">  1       -2 0.33804176E+00 0.30465577E+04</pdfrwt>
<totfact> 0.36590387E-01</totfact>
</mgrwt>
</event>
<event>
12    1  0.1114484E-007  0.1421258E+04  0.7818608E-02  0.8938573E-01
         -1   -1    0    0    0  501 -0.00000000000E+00  0.00000000000E+00  0.69572338110E+03  0.69572338110E+03  0.00000000000E+00 0.  1.
          1   -1    0    0  501    0  0.00000000000E+00 -0.00000000000E+00 -0.72585444485E+03  0.72585444485E+03  0.00000000000E+00 0. -1.
         23    2    1    2    0    0 -0.16087097933E+03 -0.23963273840E+03  0.28968614228E+03  0.41880564861E+03  0.90425599147E+02 0.  0.
        254    2    1    2    0    0  0.16087097933E+03  0.23963273840E+03 -0.31981720602E+03  0.10027721773E+04  0.90551955974E+03 0.  0.
        -24    2    4    4    0    0 -0.18454875220E+03 -0.10976258001E+03  0.18447243112E+03  0.29408538333E+03  0.79687319790E+02 0.  0.
         24    2    4    4    0    0  0.34541973153E+03  0.34939531841E+03 -0.50428963715E+03  0.70868679401E+03  0.80852052582E+02 0.  0.
         11    1    3    3    0    0 -0.54287868325E+02 -0.32878079210E+02  0.10101643167E+03  0.11929987513E+03  0.00000000000E+00 0. -1.
        -11    1    3    3    0    0 -0.10658311100E+03 -0.20675465919E+03  0.18866971061E+03  0.29950577348E+03  0.00000000000E+00 0.  1.
          4    1    6    6  502    0  0.39712009158E+02  0.60559541651E+02 -0.11314946020E+03  0.13434024751E+03  0.00000000000E+00 0. -1.
          1    1    5    5  503    0  0.27729713722E+01  0.18549584761E+01 -0.44575214482E+01  0.55677408919E+01  0.00000000000E+00 0. -1.
         -2    1    5    5    0  503 -0.18732172358E+03 -0.11161753849E+03  0.18892995257E+03  0.28851764244E+03  0.00000000000E+00 0.  1.
         -1    1    6    6    0  502  0.30570772237E+03  0.28883577676E+03 -0.39114017695E+03  0.57434654650E+03  0.00000000000E+00 0.  1.
<mgrwt>
<rscale>  0 0.14212585E+04</rscale>
<asrwt>0</asrwt>
<pdfrwt beam="1">  1        1 0.11166991E+00 0.14212585E+04</pdfrwt>
<pdfrwt beam="2">  1       -1 0.10703437E+00 0.14212585E+04</pdfrwt>
<totfact> 0.20427571E+01</totfact>
</mgrwt>
</event>
<event>
12    1  0.1114484E-007  0.1863217E+04  0.7818608E-02  0.8673385E-01
          2   -1    0    0  501    0  0.00000000000E+00  0.00000000000E+00  0.22063803379E+04  0.22063803379E+04  0.00000000000E+00 0. -1.
         -2   -1    0    0    0  501 -0.00000000000E+00 -0.00000000000E+00 -0.39335686773E+03  0.39335686773E+03  0.00000000000E+00 0.  1.
         23    2    1    2    0    0  0.17169294679E+03  0.43558995324E+03  0.14464621649E+04  0.15226965072E+04  0.84467647153E+02 0.  0.
        254    2    1    2    0    0 -0.17169294679E+03 -0.43558995324E+03  0.36656130533E+03  0.10770406984E+04  0.89801581285E+03 0.  0.
        -24    2    4    4    0    0  0.10964249945E+03  0.21832489136E+03 -0.29871175906E+02  0.25835867850E+03  0.78547334325E+02 0.  0.
         24    2    4    4    0    0 -0.28133544625E+03 -0.65391484460E+03  0.39643248124E+03  0.81868201991E+03  0.79544203103E+02 0.  0.
         11    1    3    3    0    0  0.76295957393E+01  0.24771376601E+02  0.16513390846E+03  0.16715573443E+03  0.00000000000E+00 0.  1.
        -11    1    3    3    0    0  0.16406335105E+03  0.41081857664E+03  0.12813282564E+04  0.13555407728E+04  0.00000000000E+00 0. -1.
          4    1    6    6  502    0 -0.25475509839E+03 -0.62162092176E+03  0.35507915068E+03  0.75986441802E+03  0.00000000000E+00 0. -1.
          3    1    5    5  503    0  0.24817617371E+02  0.11383665019E+03 -0.40514732071E+02  0.12335372136E+03  0.00000000000E+00 0. -1.
         -4    1    5    5    0  503  0.84824882083E+02  0.10448824117E+03  0.10643556165E+02  0.13500495714E+03  0.00000000000E+00 0.  1.
         -3    1    6    6    0  502 -0.26580347860E+02 -0.32293922846E+02  0.41353330554E+02  0.58817601899E+02  0.00000000000E+00 0.  1.
<mgrwt>
<rscale>  0 0.18632175E+04</rscale>
<asrwt>0</asrwt>
<pdfrwt beam="1">  1        2 0.33944312E+00 0.18632175E+04</pdfrwt>
<pdfrwt beam="2">  1       -2 0.60516443E-01 0.18632175E+04</pdfrwt>
<totfact> 0.12237053E+01</totfact>
</mgrwt>
</event>
<event>
12    1  0.1114484E-007  0.1302950E+04  0.7818608E-02  0.9027229E-01
         -2   -1    0    0    0  501 -0.00000000000E+00  0.00000000000E+00  0.48344810435E+03  0.48344810435E+03  0.00000000000E+00 0. -1.
          2   -1    0    0  501    0  0.00000000000E+00 -0.00000000000E+00 -0.87790122300E+03  0.87790122300E+03  0.00000000000E+00 0.  1.
         23    2    1    2    0    0 -0.30474454845E+03 -0.14712297903E+02  0.36371511067E+02  0.31917761786E+03  0.86404707085E+02 0.  0.
        254    2    1    2    0    0  0.30474454845E+03  0.14712297903E+02 -0.43082462971E+03  0.10421717095E+04  0.89856903962E+03 0.  0.
        -24    2    4    4    0    0  0.43171170575E+03 -0.17891949656E+03 -0.58481504922E+03  0.75286719525E+03  0.80082387263E+02 0.  0.
         24    2    4    4    0    0 -0.12696715730E+03  0.19363179447E+03  0.15399041951E+03  0.28930451424E+03  0.79813042787E+02 0.  0.
         11    1    3    3    0    0 -0.41389552754E+02 -0.24108595013E+01 -0.25097655500E+02  0.48464416145E+02  0.00000000000E+00 0. -1.
        -11    1    3    3    0    0 -0.26335499570E+03 -0.12301438402E+02  0.61469166567E+02  0.27071320172E+03  0.00000000000E+00 0.  1.
          2    1    6    6  502    0 -0.88697606160E+02  0.91138604517E+02  0.45070909965E+02  0.13492552574E+03  0.00000000000E+00 0. -1.
          1    1    5    5  503    0  0.16938218343E+03 -0.74951308912E+02 -0.17161507455E+03  0.25250694364E+03  0.00000000000E+00 0. -1.
         -2    1    5    5    0  503  0.26232952232E+03 -0.10396818765E+03 -0.41319997467E+03  0.50036025161E+03  0.00000000000E+00 0.  1.
         -1    1    6    6    0  502 -0.38269551138E+02  0.10249318995E+03  0.10891950955E+03  0.15437898850E+03  0.00000000000E+00 0.  1.
<mgrwt>
<rscale>  0 0.13029500E+04</rscale>
<asrwt>0</asrwt>
<pdfrwt beam="1">  1        2 0.13506173E+00 0.13029500E+04</pdfrwt>
<pdfrwt beam="2">  1       -2 0.74376632E-01 0.13029500E+04</pdfrwt>
<totfact> 0.48409089E+01</totfact>
</mgrwt>
</event>
<event>
12    1  0.1114484E-007  0.1329719E+04  0.7818608E-02  0.9006324E-01
         -2   -1    0    0    0  501 -0.00000000000E+00  0.00000000000E+00  0.13165402288E+03  0.13165402288E+03  0.00000000000E+00 0.  1.
          2   -1    0    0  501    0  0.00000000000E+00 -0.00000000000E+00 -0.33575732426E+04  0.33575732426E+04  0.00000000000E+00 0. -1.
         23    2    1    2    0    0  0.26272484003E+03  0.13691364044E+03 -0.38432083071E+03  0.49410113316E+03  0.93079226282E+02 0.  0.
        254    2    1    2    0    0 -0.26272484003E+03 -0.13691364044E+03 -0.28415983891E+04  0.29951261324E+04  0.89907144185E+03 0.  0.
        -24    2    4    4    0    0  0.16121875352E+03  0.23992162192E+03 -0.15924999240E+04  0.16209354933E+04  0.88442038704E+02 0.  0.
         24    2    4    4    0    0 -0.42394359355E+03 -0.37683526236E+03 -0.12490984650E+04  0.13741906391E+04  0.80124601232E+02 0.  0.
         11    1    3    3    0    0  0.81751399391E+01  0.25311242220E+02 -0.11254658235E+02  0.28881814827E+02  0.00000000000E+00 0. -1.
        -11    1    3    3    0    0  0.25454970009E+03  0.11160239822E+03 -0.37306617247E+03  0.46521931833E+03  0.00000000000E+00 0.  1.
          4    1    6    6  502    0  0.28523394347E+01 -0.16804570677E+01 -0.17681100985E+02  0.17988360355E+02  0.00000000000E+00 0. -1.
          1    1    5    5  503    0  0.89685244501E+02  0.88496087858E+02 -0.88266327262E+03  0.89161059520E+03  0.00000000000E+00 0. -1.
         -2    1    5    5    0  503  0.71533509016E+02  0.15142553406E+03 -0.70983665139E+03  0.72932489806E+03  0.00000000000E+00 0.  1.
         -3    1    6    6    0  502 -0.42679593298E+03 -0.37515480529E+03 -0.12314173641E+04  0.13562022787E+04  0.00000000000E+00 0.  1.
<mgrwt>
<rscale>  0 0.13297188E+04</rscale>
<asrwt>0</asrwt>
<pdfrwt beam="1">  1        2 0.51654968E+00 0.13297188E+04</pdfrwt>
<pdfrwt beam="2">  1       -2 0.20254467E-01 0.13297188E+04</pdfrwt>
<totfact> 0.21188663E+01</totfact>
</mgrwt>
</event>
<event>
12    1  0.1114484E-007  0.1771790E+04  0.7818608E-02  0.8721447E-01
         -1   -1    0    0    0  501 -0.00000000000E+00  0.00000000000E+00  0.53072924447E+03  0.53072924447E+03  0.00000000000E+00 0.  1.
          1   -1    0    0  501    0  0.00000000000E+00 -0.00000000000E+00 -0.14787388348E+04  0.14787388348E+04  0.00000000000E+00 0. -1.
         23    2    1    2    0    0 -0.14926115829E+02 -0.24708412046E+02  0.38889015645E+03  0.40037061741E+03  0.90707127326E+02 0.  0.
        254    2    1    2    0    0  0.14926115829E+02  0.24708412046E+02 -0.13368997467E+04  0.16090974618E+04  0.89501978427E+03 0.  0.
        -24    2    4    4    0    0  0.63023000578E+02 -0.10816036895E+03  0.89748678591E+02  0.17314450214E+03  0.79079891861E+02 0.  0.
         24    2    4    4    0    0 -0.48096884749E+02  0.13286878100E+03 -0.14266484253E+04  0.14359529597E+04  0.81656289549E+02 0.  0.
         11    1    3    3    0    0  0.27613683651E+02 -0.23624383319E+02  0.29569731873E+03  0.29792202220E+03  0.00000000000E+00 0.  1.
        -11    1    3    3    0    0 -0.42539799481E+02 -0.10840287271E+01  0.93192837718E+02  0.10244859521E+03  0.00000000000E+00 0. -1.
          4    1    6    6  502    0  0.16102927738E+01 -0.50744276270E+01 -0.26940234410E+03  0.26945494218E+03  0.00000000000E+00 0. -1.
          3    1    5    5  503    0 -0.16256295016E+02 -0.13575761602E+02  0.11330893879E+01  0.21209722353E+02  0.00000000000E+00 0. -1.
         -4    1    5    5    0  503  0.79279295594E+02 -0.94584607353E+02  0.88615589204E+02  0.15193477978E+03  0.00000000000E+00 0.  1.
         -3    1    6    6    0  502 -0.49707177523E+02  0.13794320863E+03 -0.11572460812E+04  0.11664980175E+04  0.00000000000E+00 0.  1.
<mgrwt>
<rscale>  0 0.17717900E+04</rscale>
<asrwt>0</asrwt>
<pdfrwt beam="1">  1        1 0.22749828E+00 0.17717900E+04</pdfrwt>
<pdfrwt beam="2">  1       -1 0.81650655E-01 0.17717900E+04</pdfrwt>
<totfact> 0.95587102E+00</totfact>
</mgrwt>
</event>
<event>
12    1  0.1114484E-007  0.1848741E+04  0.7818608E-02  0.8680801E-01
         -3   -1    0    0    0  501 -0.00000000000E+00  0.00000000000E+00  0.18719507561E+04  0.18719507561E+04  0.00000000000E+00 0.  1.
          3   -1    0    0  501    0  0.00000000000E+00 -0.00000000000E+00 -0.45645458229E+03  0.45645458229E+03  0.00000000000E+00 0. -1.
         23    2    1    2    0    0  0.66817427146E+03  0.28094536129E+02  0.80639971276E+03  0.10503313237E+04  0.75294308354E+02 0.  0.
        254    2    1    2    0    0 -0.66817427146E+03 -0.28094536129E+02  0.60909646110E+03  0.12780740147E+04  0.90290006542E+03 0.  0.
        -24    2    4    4    0    0 -0.43024551003E+03 -0.90606171984E+02  0.82685608939E+03  0.93992431637E+03  0.80287300708E+02 0.  0.
         24    2    4    4    0    0 -0.23792876143E+03  0.62511635855E+02 -0.21775962829E+03  0.33814969833E+03  0.80051000215E+02 0.  0.
         11    1    3    3    0    0  0.56975185012E+03  0.20340067473E+01  0.65845187147E+03  0.87073542189E+03  0.00000000000E+00 0.  1.
        -11    1    3    3    0    0  0.98422421333E+02  0.26060529382E+02  0.14794784129E+03  0.17959590184E+03  0.00000000000E+00 0. -1.
          4    1    6    6  502    0 -0.18112689173E+03  0.43037261724E+02 -0.11409679936E+03  0.21835117684E+03  0.00000000000E+00 0. -1.
          3    1    5    5  503    0 -0.31552766275E+03 -0.29340445846E+02  0.58321759797E+03  0.66374794486E+03  0.00000000000E+00 0. -1.
         -4    1    5    5    0  503 -0.11471784728E+03 -0.61265726139E+02  0.24363849142E+03  0.27617637151E+03  0.00000000000E+00 0.  1.
         -3    1    6    6    0  502 -0.56801869705E+02  0.19474374131E+02 -0.10366282893E+03  0.11979852149E+03  0.00000000000E+00 0.  1.
<mgrwt>
<rscale>  0 0.18487407E+04</rscale>
<asrwt>0</asrwt>
<pdfrwt beam="1">  1        3 0.70223783E-01 0.18487407E+04</pdfrwt>
<pdfrwt beam="2">  1       -3 0.28799242E+00 0.18487407E+04</pdfrwt>
<totfact> 0.21191495E-01</totfact>
</mgrwt>
</event>
<event>
12    1  0.1114484E-007  0.2732652E+04  0.7818608E-02  0.8324488E-01
          2   -1    0    0  501    0  0.00000000000E+00  0.00000000000E+00  0.16509582933E+04  0.16509582933E+04  0.00000000000E+00 0. -1.
         -2   -1    0    0    0  501 -0.00000000000E+00 -0.00000000000E+00 -0.11307653672E+04  0.11307653672E+04  0.00000000000E+00 0.  1.
         23    2    1    2    0    0 -0.43664257414E+03  0.44736237082E+03 -0.82973253180E+03  0.10425197292E+04  0.87186484351E+02 0.  0.
        254    2    1    2    0    0  0.43664257414E+03 -0.44736237082E+03  0.13499254579E+04  0.17392039313E+04  0.90096711622E+03 0.  0.
        -24    2    4    4    0    0  0.27222283114E+03  0.22257787214E+03  0.25068069015E+03  0.43871445322E+03  0.77352337326E+02 0.  0.
         24    2    4    4    0    0  0.16441974300E+03 -0.66994024296E+03  0.10992447677E+04  0.13004894781E+04  0.84142986874E+02 0.  0.
         11    1    3    3    0    0 -0.31004180298E+03  0.27188683839E+03 -0.58667547761E+03  0.71710284375E+03  0.00000000000E+00 0.  1.
        -11    1    3    3    0    0 -0.12660077116E+03  0.17547553244E+03 -0.24305705418E+03  0.32541688544E+03  0.00000000000E+00 0. -1.
          4    1    6    6  502    0  0.13765571198E+03 -0.60320962331E+03  0.93474109227E+03  0.11209602376E+04  0.00000000000E+00 0. -1.
          3    1    5    5  503    0  0.24043216005E+03  0.18090502607E+03  0.17965578658E+03  0.35044322463E+03  0.00000000000E+00 0. -1.
         -4    1    5    5    0  503  0.31790671089E+02  0.41672846072E+02  0.71024903574E+02  0.88271228584E+02  0.00000000000E+00 0.  1.
         -3    1    6    6    0  502  0.26764031021E+02 -0.66730619649E+02  0.16450367547E+03  0.17952924051E+03  0.00000000000E+00 0.  1.
<mgrwt>
<rscale>  0 0.27326518E+04</rscale>
<asrwt>0</asrwt>
<pdfrwt beam="1">  1        2 0.25399358E+00 0.27326518E+04</pdfrwt>
<pdfrwt beam="2">  1       -2 0.17396390E+00 0.27326518E+04</pdfrwt>
<totfact> 0.18261275E+00</totfact>
</mgrwt>
</event>
<event>
12    1  0.1114484E-007  0.2136551E+04  0.7818608E-02  0.8545311E-01
         -2   -1    0    0    0  501 -0.00000000000E+00  0.00000000000E+00  0.16327696669E+04  0.16327696669E+04  0.00000000000E+00 0. -1.
          2   -1    0    0  501    0  0.00000000000E+00 -0.00000000000E+00 -0.69894262146E+03  0.69894262146E+03  0.00000000000E+00 0.  1.
         23    2    1    2    0    0  0.69946109183E+03 -0.18326236047E+03  0.94970002770E+03  0.11970102087E+04  0.89846454243E+02 0.  0.
        254    2    1    2    0    0 -0.69946109183E+03  0.18326236047E+03 -0.15872982315E+02  0.11347020796E+04  0.87433743268E+03 0.  0.
        -24    2    4    4    0    0 -0.38327936427E+03 -0.25757520895E+03  0.24402705601E+03  0.52787431998E+03  0.76511661148E+02 0.  0.
         24    2    4    4    0    0 -0.31618172756E+03  0.44083756941E+03 -0.25990003833E+03  0.60682775965E+03  0.79895259581E+02 0.  0.
         11    1    3    3    0    0  0.40691874719E+03 -0.15063502877E+03  0.58445758355E+03  0.72791788388E+03  0.00000000000E+00 0. -1.
        -11    1    3    3    0    0  0.29254234464E+03 -0.32627331695E+02  0.36524244415E+03  0.46909232481E+03  0.00000000000E+00 0.  1.
          2    1    6    6  502    0 -0.18675737539E+02  0.59323710001E+02 -0.12487923562E+02  0.63435273908E+02  0.00000000000E+00 0. -1.
          1    1    5    5  503    0 -0.29633740387E+03 -0.19267358543E+03  0.14878016614E+03  0.38350294039E+03  0.00000000000E+00 0. -1.
         -2    1    5    5    0  503 -0.86941960399E+02 -0.64901623517E+02  0.95246889877E+02  0.14437137959E+03  0.00000000000E+00 0.  1.
         -1    1    6    6    0  502 -0.29750599003E+03  0.38151385941E+03 -0.24741211476E+03  0.54339248574E+03  0.00000000000E+00 0.  1.
<mgrwt>
<rscale>  0 0.21365508E+04</rscale>
<asrwt>0</asrwt>
<pdfrwt beam="1">  1        2 0.10752963E+00 0.21365508E+04</pdfrwt>
<pdfrwt beam="2">  1       -2 0.25119533E+00 0.21365508E+04</pdfrwt>
<totfact> 0.23826948E+00</totfact>
</mgrwt>
</event>
<event>
12    1  0.1802053E-007  0.1475560E+04  0.7818608E-02  0.8900870E-01
         -3   -1    0    0    0  501 -0.00000000000E+00  0.00000000000E+00  0.53825219106E+03  0.53825219106E+03  0.00000000000E+00 0.  1.
          3   -1    0    0  501    0  0.00000000000E+00 -0.00000000000E+00 -0.10112721865E+04  0.10112721865E+04  0.00000000000E+00 0. -1.
         23    2    1    2    0    0  0.95130662904E+02  0.34599703378E+03 -0.44286712817E+03  0.57742719558E+03  0.92342203640E+02 0.  0.
        254    2    1    2    0    0 -0.95130662904E+02 -0.34599703378E+03 -0.30152867277E+02  0.97209718198E+03  0.90293961337E+03 0.  0.
        -24    2    4    4    0    0 -0.30338140952E+03 -0.55411953498E+03 -0.13179154737E+03  0.65035062458E+03  0.80611315869E+02 0.  0.
         24    2    4    4    0    0  0.20825074661E+03  0.20812250120E+03  0.10163868009E+03  0.32174655739E+03  0.80666454815E+02 0.  0.
         11    1    3    3    0    0  0.10309670232E+03  0.34336326139E+03 -0.41542203386E+03  0.54872828023E+03  0.00000000000E+00 0. -1.
        -11    1    3    3    0    0 -0.79660394152E+01  0.26337723920E+01 -0.27445094312E+02  0.28698915358E+02  0.00000000000E+00 0.  1.
          4    1    6    6  502    0  0.68898347634E+02  0.95140893551E+02  0.77501779567E+02  0.14073129634E+03  0.00000000000E+00 0. -1.
          1    1    5    5  503    0 -0.12055553603E+03 -0.22517363266E+03 -0.93820959323E+02  0.27210140485E+03  0.00000000000E+00 0. -1.
         -2    1    5    5    0  503 -0.18282587349E+03 -0.32894590232E+03 -0.37970588043E+02  0.37824921974E+03  0.00000000000E+00 0.  1.
         -1    1    6    6    0  502  0.13935239898E+03  0.11298160765E+03  0.24136900522E+02  0.18101526106E+03  0.00000000000E+00 0.  1.
<mgrwt>
<rscale>  0 0.14755602E+04</rscale>
<asrwt>0</asrwt>
<pdfrwt beam="1">  1        3 0.15558034E+00 0.14755602E+04</pdfrwt>
<pdfrwt beam="2">  1       -3 0.82808030E-01 0.14755602E+04</pdfrwt>
<totfact> 0.10041430E+00</totfact>
</mgrwt>
</event>
<event>
12    1  0.1114484E-007  0.2802571E+04  0.7818608E-02  0.8302471E-01
          2   -1    0    0  501    0  0.00000000000E+00  0.00000000000E+00  0.18405885015E+04  0.18405885015E+04  0.00000000000E+00 0.  1.
         -2   -1    0    0    0  501 -0.00000000000E+00 -0.00000000000E+00 -0.10668333771E+04  0.10668333771E+04  0.00000000000E+00 0. -1.
         23    2    1    2    0    0 -0.55662120735E+03 -0.79803801479E+02  0.15088447427E+04  0.16128053707E+04  0.91284670029E+02 0.  0.
        254    2    1    2    0    0  0.55662120735E+03  0.79803801479E+02 -0.73508961828E+03  0.12946165080E+04  0.90525098212E+03 0.  0.
        -24    2    4    4    0    0  0.71931955620E+03 -0.48741588467E+02 -0.78301965836E+03  0.10673999149E+04  0.80164996497E+02 0.  0.
         24    2    4    4    0    0 -0.16269834885E+03  0.12854538995E+03  0.47930040081E+02  0.22721659304E+03  0.79595360501E+02 0.  0.
         11    1    3    3    0    0 -0.34445774360E+03 -0.44138781333E+01  0.92029811428E+03  0.98265926881E+03  0.00000000000E+00 0. -1.
        -11    1    3    3    0    0 -0.21216346375E+03 -0.75389923346E+02  0.58854662841E+03  0.63014610187E+03  0.00000000000E+00 0.  1.
          4    1    6    6  502    0 -0.85941406672E+02  0.11301556216E+03  0.16907558289E+02  0.14298359416E+03  0.00000000000E+00 0. -1.
          3    1    5    5  503    0  0.97706637986E+02  0.16725780205E+02 -0.12957452452E+03  0.16314379006E+03  0.00000000000E+00 0. -1.
         -4    1    5    5    0  503  0.62161291822E+03 -0.65467368672E+02 -0.65344513384E+03  0.90425612489E+03  0.00000000000E+00 0.  1.
         -3    1    6    6    0  502 -0.76756942180E+02  0.15529827790E+02  0.31022481792E+02  0.84232998882E+02  0.00000000000E+00 0.  1.
<mgrwt>
<rscale>  0 0.28025711E+04</rscale>
<asrwt>0</asrwt>
<pdfrwt beam="1">  1        2 0.28316746E+00 0.28025711E+04</pdfrwt>
<pdfrwt beam="2">  1       -2 0.16412821E+00 0.28025711E+04</pdfrwt>
<totfact> 0.16745656E+00</totfact>
</mgrwt>
</event>
<event>
12    1  0.1512504E-007  0.1670699E+04  0.7818608E-02  0.8778254E-01
         -1   -1    0    0    0  501 -0.00000000000E+00  0.00000000000E+00  0.52048517708E+03  0.52048517708E+03  0.00000000000E+00 0.  1.
          1   -1    0    0  501    0  0.00000000000E+00 -0.00000000000E+00 -0.13406894804E+04  0.13406894804E+04  0.00000000000E+00 0. -1.
         23    2    1    2    0    0  0.15040355017E+03 -0.48528696474E+02  0.34173241080E+03  0.38771049128E+03  0.92531736028E+02 0.  0.
        254    2    1    2    0    0 -0.15040355017E+03  0.48528696474E+02 -0.11619367142E+04  0.14734641662E+04  0.89220146785E+03 0.  0.
        -24    2    4    4    0    0 -0.50315891201E+03  0.97889026676E+02 -0.83108778922E+03  0.97975991424E+03  0.80445160731E+02 0.  0.
         24    2    4    4    0    0  0.35275536184E+03 -0.49360330202E+02 -0.33084892494E+03  0.49370425201E+03  0.86081878535E+02 0.  0.
         13    1    3    3    0    0  0.15778613624E+03 -0.58243239621E+02  0.29672372808E+03  0.34107727945E+03  0.00000000000E+00 0.  1.
        -13    1    3    3    0    0 -0.73825860670E+01  0.97145431473E+01  0.45008682716E+02  0.46633211829E+02  0.00000000000E+00 0. -1.
          4    1    6    6  502    0  0.19776795593E+02  0.92207684027E+01 -0.17579486235E+01  0.21891427482E+02  0.00000000000E+00 0. -1.
          1    1    5    5  503    0 -0.10350929486E+03 -0.12217159702E+02 -0.15939918649E+03  0.19045086970E+03  0.00000000000E+00 0. -1.
         -2    1    5    5    0  503 -0.39964961715E+03  0.11010618638E+03 -0.67168860273E+03  0.78930904455E+03  0.00000000000E+00 0.  1.
         -3    1    6    6    0  502  0.33297856625E+03 -0.58581098604E+02 -0.32909097631E+03  0.47181282452E+03  0.00000000000E+00 0.  1.
<mgrwt>
<rscale>  0 0.16706993E+04</rscale>
<asrwt>0</asrwt>
<pdfrwt beam="1">  1        1 0.20625992E+00 0.16706993E+04</pdfrwt>
<pdfrwt beam="2">  1       -1 0.80074641E-01 0.16706993E+04</pdfrwt>
<totfact> 0.12565916E+01</totfact>
</mgrwt>
</event>
<event>
12    1  0.1114484E-007  0.1796624E+04  0.7818608E-02  0.8708097E-01
          2   -1    0    0  501    0  0.00000000000E+00  0.00000000000E+00  0.23773592945E+04  0.23773592945E+04  0.00000000000E+00 0. -1.
         -2   -1    0    0    0  501 -0.00000000000E+00 -0.00000000000E+00 -0.33943737560E+03  0.33943737560E+03  0.00000000000E+00 0.  1.
         23    2    1    2    0    0  0.12954364373E+03  0.55446808088E+03  0.23640823642E+03  0.62373347094E+03  0.94541949265E+02 0.  0.
        254    2    1    2    0    0 -0.12954364373E+03 -0.55446808088E+03  0.18015136825E+04  0.20930631992E+04  0.90069173371E+03 0.  0.
        -24    2    4    4    0    0 -0.41982917145E+03 -0.56863438501E+02  0.45588810375E+03  0.62722132431E+03  0.77991298820E+02 0.  0.
         24    2    4    4    0    0  0.29028552772E+03 -0.49760464238E+03  0.13456255787E+04  0.14658418749E+04  0.78154566111E+02 0.  0.
         11    1    3    3    0    0  0.46166298253E+02  0.29452139029E+03  0.16842462069E+03  0.34240477404E+03  0.00000000000E+00 0. -1.
        -11    1    3    3    0    0  0.83377345476E+02  0.25994669059E+03  0.67983615735E+02  0.28132869689E+03  0.00000000000E+00 0.  1.
          2    1    6    6  502    0  0.19551207130E+03 -0.30437611495E+03  0.75417015371E+03  0.83644629841E+03  0.00000000000E+00 0. -1.
          3    1    5    5  503    0 -0.78974702284E+02 -0.36365724380E+01  0.13289788660E+03  0.15463530167E+03  0.00000000000E+00 0. -1.
         -4    1    5    5    0  503 -0.34085446917E+03 -0.53226866063E+02  0.32299021715E+03  0.47258602264E+03  0.00000000000E+00 0.  1.
         -1    1    6    6    0  502  0.94773456424E+02 -0.19322852743E+03  0.59145542503E+03  0.62939557645E+03  0.00000000000E+00 0.  1.
<mgrwt>
<rscale>  0 0.17966242E+04</rscale>
<asrwt>0</asrwt>
<pdfrwt beam="1">  1        2 0.36574757E+00 0.17966242E+04</pdfrwt>
<pdfrwt beam="2">  1       -2 0.52221136E-01 0.17966242E+04</pdfrwt>
<totfact> 0.13398656E+01</totfact>
</mgrwt>
</event>
<event>
12    1  0.1114484E-007  0.1691451E+04  0.7818608E-02  0.8766255E-01
         -1   -1    0    0    0  501 -0.00000000000E+00  0.00000000000E+00  0.65759822211E+03  0.65759822211E+03  0.00000000000E+00 0.  1.
          1   -1    0    0  501    0  0.00000000000E+00 -0.00000000000E+00 -0.10876728540E+04  0.10876728540E+04  0.00000000000E+00 0. -1.
         23    2    1    2    0    0 -0.15050131429E+03 -0.50409929739E+03 -0.45140499288E+03  0.69865364135E+03  0.87084417307E+02 0.  0.
        254    2    1    2    0    0  0.15050131429E+03  0.50409929739E+03  0.21330360959E+02  0.10466174348E+04  0.90453652402E+03 0.  0.
        -24    2    4    4    0    0  0.24726496628E+03 -0.17082414423E+03 -0.14039516930E+03  0.34137798675E+03  0.80667679267E+02 0.  0.
         24    2    4    4    0    0 -0.96763651989E+02  0.67492344162E+03  0.16172553026E+03  0.70523944804E+03  0.79515253539E+02 0.  0.
         11    1    3    3    0    0 -0.65195705049E+02 -0.13927941574E+03 -0.17562663858E+03  0.23343939639E+03  0.00000000000E+00 0.  1.
        -11    1    3    3    0    0 -0.85305609240E+02 -0.36481988164E+03 -0.27577835430E+03  0.46521424496E+03  0.00000000000E+00 0. -1.
          4    1    6    6  502    0 -0.19506454829E+02  0.90953040948E+02 -0.46448357618E+01  0.93137167323E+02  0.00000000000E+00 0. -1.
          1    1    5    5  503    0  0.42381166207E+02 -0.89653054758E+01  0.31199785010E+01  0.43431258527E+02  0.00000000000E+00 0. -1.
         -2    1    5    5    0  503  0.20488380007E+03 -0.16185883875E+03 -0.14351514780E+03  0.29794672823E+03  0.00000000000E+00 0.  1.
         -3    1    6    6    0  502 -0.77257197160E+02  0.58397040067E+03  0.16637036602E+03  0.61210228072E+03  0.00000000000E+00 0.  1.
<mgrwt>
<rscale>  0 0.16914511E+04</rscale>
<asrwt>0</asrwt>
<pdfrwt beam="1">  1        1 0.16733428E+00 0.16914511E+04</pdfrwt>
<pdfrwt beam="2">  1       -1 0.10116896E+00 0.16914511E+04</pdfrwt>
<totfact> 0.11449341E+01</totfact>
</mgrwt>
</event>
<event>
12    1  0.1114484E-007  0.1345190E+04  0.7818608E-02  0.8994477E-01
          1   -1    0    0  501    0  0.00000000000E+00  0.00000000000E+00  0.34560210370E+04  0.34560210370E+04  0.00000000000E+00 0.  1.
         -1   -1    0    0    0  501 -0.00000000000E+00 -0.00000000000E+00 -0.13089730646E+03  0.13089730646E+03  0.00000000000E+00 0. -1.
         23    2    1    2    0    0 -0.24016016552E+03 -0.75236672853E+02  0.16155414328E+04  0.16377529921E+04  0.94463115209E+02 0.  0.
        254    2    1    2    0    0  0.24016016552E+03  0.75236672853E+02  0.17095822978E+04  0.19491653514E+04  0.90179624750E+03 0.  0.
        -24    2    4    4    0    0  0.57794927562E+03  0.21604365302E+02  0.10176448783E+04  0.11732796373E+04  0.80572298422E+02 0.  0.
         24    2    4    4    0    0 -0.33778911010E+03  0.53632307551E+02  0.69193741949E+03  0.77588571403E+03  0.79014817801E+02 0.  0.
         13    1    3    3    0    0 -0.56260956627E+01 -0.22382600046E+02  0.72217876612E+02  0.75815931305E+02  0.00000000000E+00 0. -1.
        -13    1    3    3    0    0 -0.23453406985E+03 -0.52854072807E+02  0.15433235562E+04  0.15619370608E+04  0.00000000000E+00 0.  1.
          2    1    6    6  502    0 -0.15208143731E+02 -0.43746196429E+01  0.85980705156E+01  0.18009768165E+02  0.00000000000E+00 0. -1.
          1    1    5    5  503    0  0.77713171944E+02  0.30860982441E+02  0.14579929939E+03  0.16807490304E+03  0.00000000000E+00 0. -1.
         -2    1    5    5    0  503  0.50023610367E+03 -0.92566171393E+01  0.87184557891E+03  0.10052047343E+04  0.00000000000E+00 0.  1.
         -1    1    6    6    0  502 -0.32258096637E+03  0.58006927194E+02  0.68333934897E+03  0.75787594586E+03  0.00000000000E+00 0.  1.
<mgrwt>
<rscale>  0 0.13451897E+04</rscale>
<asrwt>0</asrwt>
<pdfrwt beam="1">  1        1 0.53169547E+00 0.13451897E+04</pdfrwt>
<pdfrwt beam="2">  1       -1 0.20138050E-01 0.13451897E+04</pdfrwt>
<totfact> 0.54413842E+00</totfact>
</mgrwt>
</event>
<event>
12    1  0.1114484E-007  0.2657398E+04  0.7818608E-02  0.8348962E-01
          1   -1    0    0  501    0  0.00000000000E+00  0.00000000000E+00  0.77707014405E+03  0.77707014405E+03  0.00000000000E+00 0. -1.
         -1   -1    0    0    0  501 -0.00000000000E+00 -0.00000000000E+00 -0.22719201575E+04  0.22719201575E+04  0.00000000000E+00 0.  1.
         23    2    1    2    0    0  0.30423176681E+03 -0.37825104890E+03  0.56476520577E+03  0.75038689546E+03  0.92140823179E+02 0.  0.
        254    2    1    2    0    0 -0.30423176681E+03  0.37825104890E+03 -0.20596152193E+04  0.22986034061E+04  0.89773712375E+03 0.  0.
        -24    2    4    4    0    0 -0.13416769611E+03  0.40031923914E+03 -0.20643571988E+04  0.21087926741E+04  0.84731542090E+02 0.  0.
         24    2    4    4    0    0 -0.17006407069E+03 -0.22068190243E+02  0.47419795015E+01  0.18981073207E+03  0.81220899257E+02 0.  0.
         11    1    3    3    0    0  0.21761452056E+03 -0.22755144614E+03  0.41516864089E+03  0.52105732946E+03  0.00000000000E+00 0.  1.
        -11    1    3    3    0    0  0.86617246240E+02 -0.15069960276E+03  0.14959656488E+03  0.22932956600E+03  0.00000000000E+00 0. -1.
          4    1    6    6  502    0 -0.75093548287E+02 -0.46269771558E+02 -0.15976101021E+02  0.89639101726E+02  0.00000000000E+00 0. -1.
          3    1    5    5  503    0 -0.18597090808E+02  0.14530907315E+03 -0.57644193387E+03  0.59476540051E+03  0.00000000000E+00 0. -1.
         -4    1    5    5    0  503 -0.11557060530E+03  0.25501016599E+03 -0.14879152649E+04  0.15140272736E+04  0.00000000000E+00 0.  1.
         -3    1    6    6    0  502 -0.94970522406E+02  0.24201581316E+02  0.20718080523E+02  0.10017163034E+03  0.00000000000E+00 0.  1.
<mgrwt>
<rscale>  0 0.26573982E+04</rscale>
<asrwt>0</asrwt>
<pdfrwt beam="1">  1        1 0.11954925E+00 0.26573982E+04</pdfrwt>
<pdfrwt beam="2">  1       -1 0.34952618E+00 0.26573982E+04</pdfrwt>
<totfact> 0.31768675E-01</totfact>
</mgrwt>
</event>
<event>
12    1  0.1114484E-007  0.1207667E+04  0.7818608E-02  0.9106172E-01
         -2   -1    0    0    0  501 -0.00000000000E+00  0.00000000000E+00  0.15697359546E+03  0.15697359546E+03  0.00000000000E+00 0.  1.
          2   -1    0    0  501    0  0.00000000000E+00 -0.00000000000E+00 -0.23227798219E+04  0.23227798219E+04  0.00000000000E+00 0. -1.
         23    2    1    2    0    0 -0.16531393102E+03  0.85839443733E+02 -0.84770289598E+03  0.87289471384E+03  0.92993955191E+02 0.  0.
        254    2    1    2    0    0  0.16531393102E+03 -0.85839443733E+02 -0.13181033305E+04  0.16068587036E+04  0.89994521915E+03 0.  0.
        -24    2    4    4    0    0  0.18168890168E+03 -0.27536904076E+03 -0.13549306959E+04  0.13967435602E+04  0.78844256693E+02 0.  0.
         24    2    4    4    0    0 -0.16374970662E+02  0.18952959703E+03  0.36827365371E+02  0.21011514334E+03  0.81255835521E+02 0.  0.
         13    1    3    3    0    0 -0.14270118365E+03  0.35666469944E+02 -0.69964234102E+03  0.71493715126E+03  0.00000000000E+00 0. -1.
        -13    1    3    3    0    0 -0.22612747369E+02  0.50172973789E+02 -0.14806055495E+03  0.15795756258E+03  0.00000000000E+00 0.  1.
          4    1    6    6  502    0 -0.61856021428E+01  0.62985099184E+01  0.24666302278E+02  0.26198461197E+02  0.00000000000E+00 0. -1.
          3    1    5    5  503    0  0.96134776721E+02 -0.81450162524E+02 -0.44859320492E+03  0.46595266688E+03  0.00000000000E+00 0. -1.
         -4    1    5    5    0  503  0.85554124957E+02 -0.19391887824E+03 -0.90633749096E+03  0.93079089335E+03  0.00000000000E+00 0.  1.
         -3    1    6    6    0  502 -0.10189368519E+02  0.18323108711E+03  0.12161063094E+02  0.18391668214E+03  0.00000000000E+00 0.  1.
<mgrwt>
<rscale>  0 0.12076673E+04</rscale>
<asrwt>0</asrwt>
<pdfrwt beam="1">  1        2 0.35735075E+00 0.12076673E+04</pdfrwt>
<pdfrwt beam="2">  1       -2 0.24149784E-01 0.12076673E+04</pdfrwt>
<totfact> 0.66563106E+01</totfact>
</mgrwt>
</event>
<event>
12    1  0.1114484E-007  0.1319384E+04  0.7818608E-02  0.9014333E-01
          2   -1    0    0  501    0  0.00000000000E+00  0.00000000000E+00  0.22150948040E+04  0.22150948040E+04  0.00000000000E+00 0. -1.
         -2   -1    0    0    0  501 -0.00000000000E+00 -0.00000000000E+00 -0.19646711560E+03  0.19646711560E+03  0.00000000000E+00 0.  1.
         23    2    1    2    0    0 -0.19818311165E+03  0.25871331165E+02  0.10732466936E+04  0.10953092343E+04  0.88870591705E+02 0.  0.
        254    2    1    2    0    0  0.19818311165E+03 -0.25871331165E+02  0.94538099482E+03  0.13162526852E+04  0.89377292113E+03 0.  0.
        -24    2    4    4    0    0  0.87118600951E+02 -0.38582074346E+03  0.14576540781E+03  0.42898916645E+03  0.79604359766E+02 0.  0.
         24    2    4    4    0    0  0.11106451070E+03  0.35994941230E+03  0.79961558700E+03  0.88726351880E+03  0.77152834473E+02 0.  0.
         11    1    3    3    0    0 -0.10446088835E+03  0.22783831849E+02  0.78362124528E+03  0.79088142995E+03  0.00000000000E+00 0.  1.
        -11    1    3    3    0    0 -0.93722223300E+02  0.30874993155E+01  0.28962544829E+03  0.30442780440E+03  0.00000000000E+00 0. -1.
          4    1    6    6  502    0  0.36333365087E+02  0.23823550111E+03  0.47583505776E+03  0.53338097979E+03  0.00000000000E+00 0. -1.
          1    1    5    5  503    0 -0.61152040167E+01 -0.63598319564E+01  0.14143084998E+02  0.16669434181E+02  0.00000000000E+00 0. -1.
         -2    1    5    5    0  503  0.93233804967E+02 -0.37946091151E+03  0.13162232281E+03  0.41231973226E+03  0.00000000000E+00 0.  1.
         -3    1    6    6    0  502  0.74731145609E+02  0.12171391119E+03  0.32378052924E+03  0.35388253901E+03  0.00000000000E+00 0.  1.
<mgrwt>
<rscale>  0 0.13193836E+04</rscale>
<asrwt>0</asrwt>
<pdfrwt beam="1">  1        2 0.34078380E+00 0.13193836E+04</pdfrwt>
<pdfrwt beam="2">  1       -2 0.30225712E-01 0.13193836E+04</pdfrwt>
<totfact> 0.50226083E+01</totfact>
</mgrwt>
</event>
<event>
12    1  0.1114484E-007  0.2588120E+04  0.7818608E-02  0.8372248E-01
          2   -1    0    0  501    0  0.00000000000E+00  0.00000000000E+00  0.28431551396E+04  0.28431551396E+04  0.00000000000E+00 0. -1.
         -2   -1    0    0    0  501 -0.00000000000E+00 -0.00000000000E+00 -0.58899045382E+03  0.58899045382E+03  0.00000000000E+00 0.  1.
         23    2    1    2    0    0 -0.56963094893E+03  0.13154555686E+02  0.22937800225E+04  0.23652654208E+04  0.91658382409E+02 0.  0.
        254    2    1    2    0    0  0.56963094893E+03 -0.13154555686E+02 -0.39615336734E+02  0.10668801726E+04  0.90111678899E+03 0.  0.
        -24    2    4    4    0    0  0.72448978821E+03 -0.18321355761E+03  0.13916905881E+03  0.76439290577E+03  0.80472520486E+02 0.  0.
         24    2    4    4    0    0 -0.15485883928E+03  0.17005900192E+03 -0.17878439554E+03  0.30248726679E+03  0.81445455639E+02 0.  0.
         13    1    3    3    0    0 -0.13907178277E+02 -0.14143441561E+02  0.58185818656E+02  0.61473864686E+02  0.00000000000E+00 0.  1.
        -13    1    3    3    0    0 -0.55572377065E+03  0.27297997247E+02  0.22355942038E+04  0.23037915561E+04  0.00000000000E+00 0. -1.
          4    1    6    6  502    0  0.38648897978E+01 -0.21900414046E+01  0.35253758776E+01  0.56711488767E+01  0.00000000000E+00 0. -1.
          1    1    5    5  503    0  0.14131856628E+03 -0.65244729142E+02  0.44802739985E+02  0.16197252040E+03  0.00000000000E+00 0. -1.
         -2    1    5    5    0  503  0.58317122193E+03 -0.11796882846E+03  0.94366318824E+02  0.60242038537E+03  0.00000000000E+00 0.  1.
         -3    1    6    6    0  502 -0.15872372908E+03  0.17224904332E+03 -0.18230977142E+03  0.29681611792E+03  0.00000000000E+00 0.  1.
<mgrwt>
<rscale>  0 0.25881200E+04</rscale>
<asrwt>0</asrwt>
<pdfrwt beam="1">  1        2 0.43740848E+00 0.25881200E+04</pdfrwt>
<pdfrwt beam="2">  1       -2 0.90613918E-01 0.25881200E+04</pdfrwt>
<totfact> 0.20048946E+00</totfact>
</mgrwt>
</event>
<event>
12    1  0.1114484E-007  0.2246255E+04  0.7818608E-02  0.8499418E-01
         -2   -1    0    0    0  501 -0.00000000000E+00  0.00000000000E+00  0.82775726088E+03  0.82775726088E+03  0.00000000000E+00 0.  1.
          2   -1    0    0  501    0  0.00000000000E+00 -0.00000000000E+00 -0.15238959304E+04  0.15238959304E+04  0.00000000000E+00 0. -1.
         23    2    1    2    0    0 -0.37647415789E+03  0.65785393688E+03 -0.84302961876E+03  0.11373578241E+04  0.91538452015E+02 0.  0.
        254    2    1    2    0    0  0.37647415789E+03 -0.65785393688E+03  0.14689094924E+03  0.12142953671E+04  0.93724686922E+03 0.  0.
        -24    2    4    4    0    0  0.54468287877E+03 -0.20690055882E+03  0.35151104500E+03  0.68522252721E+03  0.80514702839E+02 0.  0.
         24    2    4    4    0    0 -0.16820872088E+03 -0.45095337806E+03 -0.20462009576E+03  0.52907283994E+03  0.79972266488E+02 0.  0.
         13    1    3    3    0    0 -0.95038686934E+02  0.21358984600E+03 -0.31326961529E+03  0.39088467122E+03  0.00000000000E+00 0.  1.
        -13    1    3    3    0    0 -0.28143547095E+03  0.44426409088E+03 -0.52976000347E+03  0.74647315292E+03  0.00000000000E+00 0. -1.
          2    1    6    6  502    0 -0.22169323668E+02 -0.13133533702E+02 -0.16947110989E+02  0.30841095802E+02  0.00000000000E+00 0. -1.
          1    1    5    5  503    0  0.18401696340E+03 -0.30028020808E+02  0.11516316387E+03  0.21914944482E+03  0.00000000000E+00 0. -1.
         -2    1    5    5    0  503  0.36066591537E+03 -0.17687253802E+03  0.23634788113E+03  0.46607308239E+03  0.00000000000E+00 0.  1.
         -1    1    6    6    0  502 -0.14603939721E+03 -0.43781984436E+03 -0.18767298477E+03  0.49823174413E+03  0.00000000000E+00 0.  1.
<mgrwt>
<rscale>  0 0.22462555E+04</rscale>
<asrwt>0</asrwt>
<pdfrwt beam="1">  1        2 0.23444553E+00 0.22462555E+04</pdfrwt>
<pdfrwt beam="2">  1       -2 0.12734727E+00 0.22462555E+04</pdfrwt>
<totfact> 0.51278221E+00</totfact>
</mgrwt>
</event>
<event>
12    1  0.1114484E-007  0.1784444E+04  0.7818608E-02  0.8714616E-01
          1   -1    0    0  501    0  0.00000000000E+00  0.00000000000E+00  0.13884221908E+04  0.13884221908E+04  0.00000000000E+00 0. -1.
         -1   -1    0    0    0  501 -0.00000000000E+00 -0.00000000000E+00 -0.57335577422E+03  0.57335577422E+03  0.00000000000E+00 0.  1.
         23    2    1    2    0    0  0.20973231844E+03  0.62728572857E+03  0.27024685547E+03  0.72019252299E+03  0.90381837899E+02 0.  0.
        254    2    1    2    0    0 -0.20973231844E+03 -0.62728572857E+03  0.54481956115E+03  0.12415854421E+04  0.89846036366E+03 0.  0.
        -24    2    4    4    0    0 -0.29680505357E+03 -0.77348187873E+03  0.62217443644E+03  0.10391183014E+04  0.79362197473E+02 0.  0.
         24    2    4    4    0    0  0.87072735134E+02  0.14619615016E+03 -0.77354875291E+02  0.20246714066E+03  0.77808680694E+02 0.  0.
         13    1    3    3    0    0  0.91174806364E+02  0.38214745253E+03  0.18938236283E+03  0.43613667599E+03  0.00000000000E+00 0.  1.
        -13    1    3    3    0    0  0.11855751207E+03  0.24513827603E+03  0.80864492638E+02  0.28405584700E+03  0.00000000000E+00 0. -1.
          4    1    6    6  502    0 -0.73077209240E+01  0.27774434063E+02  0.63901784715E+01  0.29422038568E+02  0.00000000000E+00 0. -1.
          1    1    5    5  503    0 -0.19272594216E+03 -0.45747661345E+03  0.32779504066E+03  0.59487623025E+03  0.00000000000E+00 0. -1.
         -2    1    5    5    0  503 -0.10407911142E+03 -0.31600526528E+03  0.29437939578E+03  0.44424207115E+03  0.00000000000E+00 0.  1.
         -3    1    6    6    0  502  0.94380456059E+02  0.11842171610E+03 -0.83745053762E+02  0.17304510210E+03  0.00000000000E+00 0.  1.
<mgrwt>
<rscale>  0 0.17844438E+04</rscale>
<asrwt>0</asrwt>
<pdfrwt beam="1">  1        1 0.21360341E+00 0.17844438E+04</pdfrwt>
<pdfrwt beam="2">  1       -1 0.88208581E-01 0.17844438E+04</pdfrwt>
<totfact> 0.93395485E+00</totfact>
</mgrwt>
</event>
<event>
12    1  0.1114484E-007  0.1425143E+04  0.7818608E-02  0.8935817E-01
         -1   -1    0    0    0  501 -0.00000000000E+00  0.00000000000E+00  0.20120457716E+03  0.20120457716E+03  0.00000000000E+00 0.  1.
          1   -1    0    0  501    0  0.00000000000E+00 -0.00000000000E+00 -0.25235907907E+04  0.25235907907E+04  0.00000000000E+00 0. -1.
         23    2    1    2    0    0 -0.31490482949E+03  0.14803233567E+03 -0.11514198767E+04  0.12075721341E+04  0.10669631069E+03 0.  0.
        254    2    1    2    0    0  0.31490482949E+03 -0.14803233567E+03 -0.11709663368E+04  0.15172232337E+04  0.89984751753E+03 0.  0.
        -24    2    4    4    0    0  0.60439195314E+03 -0.52740060244E+02 -0.55674384084E+03  0.82704601227E+03  0.77267426028E+02 0.  0.
         24    2    4    4    0    0 -0.28948712365E+03 -0.95292275424E+02 -0.61422249600E+03  0.69017722142E+03  0.78688689583E+02 0.  0.
         11    1    3    3    0    0 -0.31251039330E+03  0.14350717216E+03 -0.10269574835E+04  0.10830044909E+04  0.00000000000E+00 0. -1.
        -11    1    3    3    0    0 -0.23944361849E+01  0.45251635035E+01 -0.12446239313E+03  0.12456764320E+03  0.00000000000E+00 0.  1.
          4    1    6    6  502    0 -0.14538777435E+03 -0.15603522966E+02 -0.34321690578E+03  0.37306690991E+03  0.00000000000E+00 0. -1.
          3    1    5    5  503    0  0.35560347964E+03 -0.21561639861E+02 -0.27618679067E+03  0.45077475793E+03  0.00000000000E+00 0. -1.
         -4    1    5    5    0  503  0.24878847350E+03 -0.31178420384E+02 -0.28055705017E+03  0.37627125435E+03  0.00000000000E+00 0.  1.
         -3    1    6    6    0  502 -0.14409934930E+03 -0.79688752458E+02 -0.27100559022E+03  0.31711031151E+03  0.00000000000E+00 0.  1.
<mgrwt>
<rscale>  0 0.14251428E+04</rscale>
<asrwt>0</asrwt>
<pdfrwt beam="1">  1        1 0.38824471E+00 0.14251428E+04</pdfrwt>
<pdfrwt beam="2">  1       -1 0.30954552E-01 0.14251428E+04</pdfrwt>
<totfact> 0.12300757E+01</totfact>
</mgrwt>
</event>
<event>
12    1  0.1114484E-007  0.1677320E+04  0.7818608E-02  0.8774406E-01
         -1   -1    0    0    0  501 -0.00000000000E+00  0.00000000000E+00  0.71010664638E+03  0.71010664638E+03  0.00000000000E+00 0.  1.
          1   -1    0    0  501    0  0.00000000000E+00 -0.00000000000E+00 -0.99048576563E+03  0.99048576563E+03  0.00000000000E+00 0. -1.
         23    2    1    2    0    0 -0.11441759118E+03 -0.22044806318E+03 -0.63756042510E+03  0.69441001798E+03  0.11846199259E+03 0.  0.
        254    2    1    2    0    0  0.11441759118E+03  0.22044806318E+03  0.35718130586E+03  0.10061823940E+04  0.90726831261E+03 0.  0.
        -24    2    4    4    0    0  0.36549420281E+03 -0.47127507417E+02 -0.12249029474E+03  0.39693257044E+03  0.82125385373E+02 0.  0.
         24    2    4    4    0    0 -0.25107661163E+03  0.26757557060E+03  0.47967160060E+03  0.60924982359E+03  0.80401195504E+02 0.  0.
         11    1    3    3    0    0  0.64160632641E+01 -0.26488558011E+02 -0.14729811407E+02  0.30980266581E+02  0.00000000000E+00 0.  1.
        -11    1    3    3    0    0 -0.12083365444E+03 -0.19395950517E+03 -0.62283061369E+03  0.66342975140E+03  0.00000000000E+00 0. -1.
          2    1    6    6  502    0 -0.94989445356E+02  0.15501089885E+03  0.25924611163E+03  0.31663846874E+03  0.00000000000E+00 0. -1.
          3    1    5    5  503    0  0.58151306966E+02  0.22560692505E+02 -0.18070905422E+02  0.64939333003E+02  0.00000000000E+00 0. -1.
         -4    1    5    5    0  503  0.30734289585E+03 -0.69688199922E+02 -0.10441938932E+03  0.33199323743E+03  0.00000000000E+00 0.  1.
         -1    1    6    6    0  502 -0.15608716628E+03  0.11256467175E+03  0.22042548897E+03  0.29261135485E+03  0.00000000000E+00 0.  1.
<mgrwt>
<rscale>  0 0.16773199E+04</rscale>
<asrwt>0</asrwt>
<pdfrwt beam="1">  1        1 0.15238243E+00 0.16773199E+04</pdfrwt>
<pdfrwt beam="2">  1       -1 0.10924718E+00 0.16773199E+04</pdfrwt>
<totfact> 0.11386519E+01</totfact>
</mgrwt>
</event>
<event>
12    1  0.1114484E-007  0.1897548E+04  0.7818608E-02  0.8656078E-01
         -1   -1    0    0    0  501 -0.00000000000E+00  0.00000000000E+00  0.50685984168E+03  0.50685984168E+03  0.00000000000E+00 0.  1.
          1   -1    0    0  501    0  0.00000000000E+00 -0.00000000000E+00 -0.17759785608E+04  0.17759785608E+04  0.00000000000E+00 0. -1.
         23    2    1    2    0    0  0.58463277631E+01 -0.50747609217E+03  0.12585204721E+03  0.53080392460E+03  0.91366869892E+02 0.  0.
        254    2    1    2    0    0 -0.58463277631E+01  0.50747609217E+03 -0.13949707664E+04  0.17520344779E+04  0.93065310889E+03 0.  0.
        -24    2    4    4    0    0 -0.33079355369E+02 -0.19330331740E+03 -0.80289051599E+03  0.83098534217E+03  0.86273066220E+02 0.  0.
         24    2    4    4    0    0  0.27233027606E+02  0.70077940957E+03 -0.59208025037E+03  0.92104913574E+03  0.77065354697E+02 0.  0.
         11    1    3    3    0    0  0.97455967463E+00 -0.26973980998E+03  0.11364644418E+03  0.29270467904E+03  0.00000000000E+00 0. -1.
        -11    1    3    3    0    0  0.48717680885E+01 -0.23773628219E+03  0.12205603028E+02  0.23809924556E+03  0.00000000000E+00 0.  1.
          2    1    6    6  502    0  0.99074390166E+01  0.54264856075E+03 -0.49577953399E+03  0.73509384717E+03  0.00000000000E+00 0. -1.
          3    1    5    5  503    0 -0.56202240118E+02 -0.15603392773E+03 -0.55519283574E+03  0.57943452025E+03  0.00000000000E+00 0. -1.
         -4    1    5    5    0  503  0.23122884750E+02 -0.37269389668E+02 -0.24769768025E+03  0.25155082191E+03  0.00000000000E+00 0.  1.
         -1    1    6    6    0  502  0.17325588589E+02  0.15813084883E+03 -0.96300716378E+02  0.18595528856E+03  0.00000000000E+00 0.  1.
<mgrwt>
<rscale>  0 0.18975481E+04</rscale>
<asrwt>0</asrwt>
<pdfrwt beam="1">  1        1 0.27322746E+00 0.18975481E+04</pdfrwt>
<pdfrwt beam="2">  1       -1 0.77978439E-01 0.18975481E+04</pdfrwt>
<totfact> 0.65198270E+00</totfact>
</mgrwt>
</event>
<event>
12    1  0.1114484E-007  0.1259844E+04  0.7818608E-02  0.9062029E-01
         -1   -1    0    0    0  501 -0.00000000000E+00  0.00000000000E+00  0.40769076177E+03  0.40769076177E+03  0.00000000000E+00 0.  1.
          1   -1    0    0  501    0  0.00000000000E+00 -0.00000000000E+00 -0.97329144259E+03  0.97329144259E+03  0.00000000000E+00 0. -1.
         23    2    1    2    0    0 -0.20238779891E+03 -0.15505537560E+03  0.13146255690E+03  0.30229500454E+03  0.95377540625E+02 0.  0.
        254    2    1    2    0    0  0.20238779891E+03  0.15505537560E+03 -0.69706323771E+03  0.10786871998E+04  0.78272979184E+03 0.  0.
        -24    2    4    4    0    0 -0.14540603113E+03 -0.21354703611E+03 -0.40973573273E+03  0.49081472529E+03  0.79186320527E+02 0.  0.
         24    2    4    4    0    0  0.34779383004E+03  0.36860241171E+03 -0.28732750498E+03  0.58787247453E+03  0.78795082697E+02 0.  0.
         11    1    3    3    0    0 -0.26311743009E+01  0.83969170191E+01  0.18628246202E+02  0.20602010829E+02  0.00000000000E+00 0. -1.
        -11    1    3    3    0    0 -0.19975662460E+03 -0.16345229262E+03  0.11283431070E+03  0.28169299371E+03  0.00000000000E+00 0.  1.
          2    1    6    6  502    0  0.31271260407E+03  0.29540862977E+03 -0.22454674746E+03  0.48525938742E+03  0.00000000000E+00 0. -1.
          3    1    5    5  503    0 -0.45122606997E+02 -0.15881026112E+02 -0.87233311224E+02  0.99488226638E+02  0.00000000000E+00 0. -1.
         -2    1    5    5    0  503 -0.10028342414E+03 -0.19766601000E+03 -0.32250242151E+03  0.39132649865E+03  0.00000000000E+00 0.  1.
         -1    1    6    6    0  502  0.35081225970E+02  0.73193781947E+02 -0.62780757525E+02  0.10261308711E+03  0.00000000000E+00 0.  1.
<mgrwt>
<rscale>  0 0.12598443E+04</rscale>
<asrwt>0</asrwt>
<pdfrwt beam="1">  1        1 0.14973715E+00 0.12598443E+04</pdfrwt>
<pdfrwt beam="2">  1       -1 0.62721655E-01 0.12598443E+04</pdfrwt>
<totfact> 0.40353898E+01</totfact>
</mgrwt>
</event>
<event>
12    1  0.1114484E-007  0.1841346E+04  0.7818608E-02  0.8684616E-01
          1   -1    0    0  501    0  0.00000000000E+00  0.00000000000E+00  0.76610988682E+03  0.76610988682E+03  0.00000000000E+00 0. -1.
         -1   -1    0    0    0  501 -0.00000000000E+00 -0.00000000000E+00 -0.11064187955E+04  0.11064187955E+04  0.00000000000E+00 0.  1.
         23    2    1    2    0    0  0.11255200856E+03  0.39214980995E+03 -0.70536276689E+03  0.82010904298E+03  0.92697256650E+02 0.  0.
        254    2    1    2    0    0 -0.11255200856E+03 -0.39214980995E+03  0.36505385820E+03  0.10524196393E+04  0.89881775116E+03 0.  0.
        -24    2    4    4    0    0 -0.22959739619E+02  0.14631734603E+03 -0.20090370889E+03  0.26200845060E+03  0.79688220894E+02 0.  0.
         24    2    4    4    0    0 -0.89592268939E+02 -0.53846715598E+03  0.56595756710E+03  0.79041118873E+03  0.80425287065E+02 0.  0.
         13    1    3    3    0    0 -0.69765699061E+01  0.11244394886E+03 -0.16053196310E+03  0.19611941602E+03  0.00000000000E+00 0. -1.
        -13    1    3    3    0    0  0.11952857846E+03  0.27970586109E+03 -0.54483080379E+03  0.62398962696E+03  0.00000000000E+00 0.  1.
          4    1    6    6  502    0 -0.10952050980E+02 -0.30545656179E+03  0.30338791120E+03  0.43065982309E+03  0.00000000000E+00 0. -1.
          1    1    5    5  503    0 -0.51189802021E+02  0.82403275078E+02 -0.13261017854E+03  0.16430506695E+03  0.00000000000E+00 0. -1.
         -2    1    5    5    0  503  0.28230062402E+02  0.63914070949E+02 -0.68293530355E+02  0.97703383651E+02  0.00000000000E+00 0.  1.
         -3    1    6    6    0  502 -0.78640217960E+02 -0.23301059419E+03  0.26256965589E+03  0.35975136564E+03  0.00000000000E+00 0.  1.
<mgrwt>
<rscale>  0 0.18413456E+04</rscale>
<asrwt>0</asrwt>
<pdfrwt beam="1">  1        1 0.11786306E+00 0.18413456E+04</pdfrwt>
<pdfrwt beam="2">  1       -1 0.17021828E+00 0.18413456E+04</pdfrwt>
<totfact> 0.54604044E+00</totfact>
</mgrwt>
</event>
<event>
12    1  0.1114484E-007  0.1739148E+04  0.7818608E-02  0.8739346E-01
         -2   -1    0    0    0  501 -0.00000000000E+00  0.00000000000E+00  0.81824768853E+03  0.81824768853E+03  0.00000000000E+00 0.  1.
          2   -1    0    0  501    0  0.00000000000E+00 -0.00000000000E+00 -0.92411985258E+03  0.92411985258E+03  0.00000000000E+00 0. -1.
         23    2    1    2    0    0  0.18601967905E+03  0.60446357015E+03 -0.30267583688E+02  0.63999800692E+03  0.93283404802E+02 0.  0.
        254    2    1    2    0    0 -0.18601967905E+03 -0.60446357015E+03 -0.75604580369E+02  0.11023695342E+04  0.89973496581E+03 0.  0.
        -24    2    4    4    0    0 -0.19319807574E+03 -0.78012732784E+03  0.13442489281E+03  0.81847350735E+03  0.76841956756E+02 0.  0.
         24    2    4    4    0    0  0.71783966901E+01  0.17566375770E+03 -0.21002947318E+03  0.28389602684E+03  0.74667859916E+02 0.  0.
         11    1    3    3    0    0  0.14308081671E+03  0.51283249405E+03 -0.56646787646E+02  0.53542333308E+03  0.00000000000E+00 0.  1.
        -11    1    3    3    0    0  0.42938862347E+02  0.91631076099E+02  0.26379203958E+02  0.10457467384E+03  0.00000000000E+00 0. -1.
          2    1    6    6  502    0 -0.20087553418E-01  0.12372478235E+03 -0.90253911241E+02  0.15314565180E+03  0.00000000000E+00 0. -1.
          3    1    5    5  503    0 -0.16391963120E+03 -0.53089835059E+03  0.75811561015E+02  0.56077633415E+03  0.00000000000E+00 0. -1.
         -4    1    5    5    0  503 -0.29278444541E+02 -0.24922897725E+03  0.58613331791E+02  0.25769717321E+03  0.00000000000E+00 0.  1.
         -1    1    6    6    0  502  0.71984842435E+01  0.51938975345E+02 -0.11977556193E+03  0.13075037504E+03  0.00000000000E+00 0.  1.
<mgrwt>
<rscale>  0 0.17391480E+04</rscale>
<asrwt>0</asrwt>
<pdfrwt beam="1">  1        2 0.14217228E+00 0.17391480E+04</pdfrwt>
<pdfrwt beam="2">  1       -2 0.12588426E+00 0.17391480E+04</pdfrwt>
<totfact> 0.12621505E+01</totfact>
</mgrwt>
</event>
<event>
12    1  0.1114484E-007  0.3091439E+04  0.7818608E-02  0.8218091E-01
         -2   -1    0    0    0  501 -0.00000000000E+00  0.00000000000E+00  0.12292907051E+04  0.12292907051E+04  0.00000000000E+00 0.  1.
          2   -1    0    0  501    0  0.00000000000E+00 -0.00000000000E+00 -0.19435990533E+04  0.19435990533E+04  0.00000000000E+00 0. -1.
         23    2    1    2    0    0  0.86938320507E+03 -0.98253494854E+03 -0.86663998426E+03  0.15748867599E+04  0.89450331104E+02 0.  0.
        254    2    1    2    0    0 -0.86938320507E+03  0.98253494854E+03  0.15233163607E+03  0.15980029985E+04  0.89955909944E+03 0.  0.
        -24    2    4    4    0    0 -0.82123767566E+03  0.51793452981E+03 -0.21613853238E+03  0.99796298862E+03  0.80788392649E+02 0.  0.
         24    2    4    4    0    0 -0.48145529414E+02  0.46460041873E+03  0.36847016845E+03  0.60004000984E+03  0.78142224744E+02 0.  0.
         11    1    3    3    0    0  0.50281981676E+03 -0.54646221819E+03 -0.54038531827E+03  0.91840351493E+03  0.00000000000E+00 0.  1.
        -11    1    3    3    0    0  0.36656338831E+03 -0.43607273035E+03 -0.32625466598E+03  0.65648324494E+03  0.00000000000E+00 0. -1.
          4    1    6    6  502    0 -0.38524453820E+01  0.73646063927E+02  0.25333180235E+02  0.77976625268E+02  0.00000000000E+00 0. -1.
          1    1    5    5  503    0 -0.31843916472E+03  0.15492476374E+03 -0.79796913089E+02  0.36300513961E+03  0.00000000000E+00 0. -1.
         -2    1    5    5    0  503 -0.50279851094E+03  0.36300976608E+03 -0.13634161929E+03  0.63495784901E+03  0.00000000000E+00 0.  1.
         -3    1    6    6    0  502 -0.44293084032E+02  0.39095435480E+03  0.34313698822E+03  0.52206338458E+03  0.00000000000E+00 0.  1.
<mgrwt>
<rscale>  0 0.30914387E+04</rscale>
<asrwt>0</asrwt>
<pdfrwt beam="1">  1        2 0.29901524E+00 0.30914387E+04</pdfrwt>
<pdfrwt beam="2">  1       -2 0.18912165E+00 0.30914387E+04</pdfrwt>
<totfact> 0.95879338E-01</totfact>
</mgrwt>
</event>
<event>
12    1  0.1114484E-007  0.1741552E+04  0.7818608E-02  0.8738014E-01
          2   -1    0    0  501    0  0.00000000000E+00  0.00000000000E+00  0.15207829132E+04  0.15207829132E+04  0.00000000000E+00 0. -1.
         -2   -1    0    0    0  501 -0.00000000000E+00 -0.00000000000E+00 -0.49859228949E+03  0.49859228949E+03  0.00000000000E+00 0.  1.
         23    2    1    2    0    0 -0.20259178356E+03 -0.18874087812E+03 -0.28474714906E+03  0.40755635362E+03  0.91404007776E+02 0.  0.
        254    2    1    2    0    0  0.20259178356E+03  0.18874087812E+03  0.13069377728E+04  0.16118188491E+04  0.90177996789E+03 0.  0.
        -24    2    4    4    0    0  0.12863936588E+03 -0.32320184834E+03  0.26126906336E+03  0.44251654779E+03  0.80943501132E+02 0.  0.
         24    2    4    4    0    0  0.73952417674E+02  0.51194272647E+03  0.10456687094E+04  0.11693023013E+04  0.79312714424E+02 0.  0.
         13    1    3    3    0    0 -0.18031055965E+03 -0.12538243928E+03 -0.24698565115E+03  0.33050652925E+03  0.00000000000E+00 0.  1.
        -13    1    3    3    0    0 -0.22281223910E+02 -0.63358438839E+02 -0.37761497905E+02  0.77049824368E+02  0.00000000000E+00 0. -1.
          2    1    6    6  502    0  0.62807712436E+02  0.20115391969E+03  0.37838555607E+03  0.43310892071E+03  0.00000000000E+00 0. -1.
          3    1    5    5  503    0  0.35303599510E+02 -0.15883835565E+03  0.82848946059E+02  0.18259221020E+03  0.00000000000E+00 0. -1.
         -4    1    5    5    0  503  0.93335766372E+02 -0.16436349270E+03  0.17842011730E+03  0.25992433759E+03  0.00000000000E+00 0.  1.
         -1    1    6    6    0  502  0.11144705238E+02  0.31078880677E+03  0.66728315333E+03  0.73619338057E+03  0.00000000000E+00 0.  1.
<mgrwt>
<rscale>  0 0.17415518E+04</rscale>
<asrwt>0</asrwt>
<pdfrwt beam="1">  1        2 0.23396660E+00 0.17415518E+04</pdfrwt>
<pdfrwt beam="2">  1       -2 0.76706507E-01 0.17415518E+04</pdfrwt>
<totfact> 0.17797963E+01</totfact>
</mgrwt>
</event>
<event>
12    1  0.1114484E-007  0.1522279E+04  0.7818608E-02  0.8869772E-01
          1   -1    0    0  501    0  0.00000000000E+00  0.00000000000E+00  0.14127669013E+04  0.14127669013E+04  0.00000000000E+00 0. -1.
         -1   -1    0    0    0  501 -0.00000000000E+00 -0.00000000000E+00 -0.41006983259E+03  0.41006983259E+03  0.00000000000E+00 0.  1.
         23    2    1    2    0    0  0.13578531294E+03 -0.12762617227E+03 -0.20949954788E+03  0.29506511406E+03  0.91909030649E+02 0.  0.
        254    2    1    2    0    0 -0.13578531294E+03  0.12762617227E+03  0.12121966166E+04  0.15277716199E+04  0.91101009544E+03 0.  0.
        -24    2    4    4    0    0 -0.45637659939E+03  0.23128254025E+03  0.43190253403E+03  0.67412750166E+03  0.78338213538E+02 0.  0.
         24    2    4    4    0    0  0.32059128644E+03 -0.10365636798E+03  0.78029408260E+03  0.85364411819E+03  0.79536215777E+02 0.  0.
         13    1    3    3    0    0  0.19672592817E+02  0.14337061961E+02 -0.22740402785E+02  0.33311982419E+02  0.00000000000E+00 0. -1.
        -13    1    3    3    0    0  0.11611272013E+03 -0.14196323423E+03 -0.18675914510E+03  0.26175313165E+03  0.00000000000E+00 0.  1.
          2    1    6    6  502    0  0.13861631625E+03 -0.86484643254E+02  0.36304525732E+03  0.39811548012E+03  0.00000000000E+00 0. -1.
          3    1    5    5  503    0 -0.31994310129E+03  0.18042514295E+03  0.26673134563E+03  0.45394099948E+03  0.00000000000E+00 0. -1.
         -4    1    5    5    0  503 -0.13643349810E+03  0.50857397307E+02  0.16517118840E+03  0.22018650218E+03  0.00000000000E+00 0.  1.
         -1    1    6    6    0  502  0.18197497019E+03 -0.17171724727E+02  0.41724882527E+03  0.45552863807E+03  0.00000000000E+00 0.  1.
<mgrwt>
<rscale>  0 0.15222787E+04</rscale>
<asrwt>0</asrwt>
<pdfrwt beam="1">  1        1 0.21734875E+00 0.15222787E+04</pdfrwt>
<pdfrwt beam="2">  1       -1 0.63087667E-01 0.15222787E+04</pdfrwt>
<totfact> 0.18517765E+01</totfact>
</mgrwt>
</event>
<event>
12    1  0.1114484E-007  0.3299322E+04  0.7818608E-02  0.8163068E-01
          1   -1    0    0  501    0  0.00000000000E+00  0.00000000000E+00  0.98473003758E+03  0.98473003758E+03  0.00000000000E+00 0. -1.
         -1   -1    0    0    0  501 -0.00000000000E+00 -0.00000000000E+00 -0.27635806336E+04  0.27635806336E+04  0.00000000000E+00 0.  1.
         23    2    1    2    0    0  0.12316281002E+04 -0.11246554261E+03 -0.18417867002E+04  0.22203940987E+04  0.91735646587E+02 0.  0.
        254    2    1    2    0    0 -0.12316281002E+04  0.11246554261E+03  0.62936104215E+02  0.15279165725E+04  0.89499263897E+03 0.  0.
        -24    2    4    4    0    0 -0.84152605462E+03 -0.15531088895E+03  0.39350338488E+03  0.94531633053E+03  0.80563502986E+02 0.  0.
         24    2    4    4    0    0 -0.39010204557E+03  0.26777643156E+03 -0.33056728067E+03  0.58260024196E+03  0.79148541551E+02 0.  0.
         13    1    3    3    0    0  0.10764014971E+04 -0.12758845000E+03 -0.15950039724E+04  0.19284596619E+04  0.00000000000E+00 0.  1.
        -13    1    3    3    0    0  0.15522660312E+03  0.15122907384E+02 -0.24678272778E+03  0.29193443677E+03  0.00000000000E+00 0. -1.
          4    1    6    6  502    0 -0.34667507748E+03  0.20562113066E+03 -0.26518112317E+03  0.48247765420E+03  0.00000000000E+00 0. -1.
          1    1    5    5  503    0 -0.64142376671E+03 -0.11853257689E+03  0.33682252317E+03  0.73411431835E+03  0.00000000000E+00 0. -1.
         -2    1    5    5    0  503 -0.20010228791E+03 -0.36778312056E+02  0.56680861714E+02  0.21120201218E+03  0.00000000000E+00 0.  1.
         -3    1    6    6    0  502 -0.43426968093E+02  0.62155300898E+02 -0.65386157499E+02  0.10012258776E+03  0.00000000000E+00 0.  1.
<mgrwt>
<rscale>  0 0.32993217E+04</rscale>
<asrwt>0</asrwt>
<pdfrwt beam="1">  1        1 0.15149693E+00 0.32993217E+04</pdfrwt>
<pdfrwt beam="2">  1       -1 0.42516625E+00 0.32993217E+04</pdfrwt>
<totfact> 0.61922118E-02</totfact>
</mgrwt>
</event>
<event>
12    1  0.1114484E-007  0.2289679E+04  0.7818608E-02  0.8482002E-01
          2   -1    0    0  501    0  0.00000000000E+00  0.00000000000E+00  0.64073233494E+03  0.64073233494E+03  0.00000000000E+00 0. -1.
         -2   -1    0    0    0  501 -0.00000000000E+00 -0.00000000000E+00 -0.20455609148E+04  0.20455609148E+04  0.00000000000E+00 0.  1.
         23    2    1    2    0    0  0.85996762801E+03  0.38995079692E+03 -0.43894522689E+03  0.10451904910E+04  0.90245803765E+02 0.  0.
        254    2    1    2    0    0 -0.85996762801E+03 -0.38995079692E+03 -0.96588335294E+03  0.16411027587E+04  0.93203093712E+03 0.  0.
        -24    2    4    4    0    0 -0.61875837235E+03  0.95932077335E+02 -0.13526147810E+03  0.64561721336E+03  0.80380544417E+02 0.  0.
         24    2    4    4    0    0 -0.24120925566E+03 -0.48588287426E+03 -0.83062187483E+03  0.99548554530E+03  0.82429966806E+02 0.  0.
         13    1    3    3    0    0  0.78363278083E+03  0.36329205321E+03 -0.37297184036E+03  0.94083444070E+03  0.00000000000E+00 0. -1.
        -13    1    3    3    0    0  0.76334847187E+02  0.26658743714E+02 -0.65973386533E+02  0.10435605034E+03  0.00000000000E+00 0.  1.
          4    1    6    6  502    0 -0.18926043803E+03 -0.34732403677E+03 -0.66176037754E+03  0.77096063272E+03  0.00000000000E+00 0. -1.
          1    1    5    5  503    0 -0.16496489847E+03  0.57507729383E+01 -0.57513061869E+01  0.16516527068E+03  0.00000000000E+00 0. -1.
         -2    1    5    5    0  503 -0.45379347388E+03  0.90181304397E+02 -0.12951017192E+03  0.48045194268E+03  0.00000000000E+00 0.  1.
         -3    1    6    6    0  502 -0.51948817637E+02 -0.13855883749E+03 -0.16886149729E+03  0.22452491257E+03  0.00000000000E+00 0.  1.
<mgrwt>
<rscale>  0 0.22896786E+04</rscale>
<asrwt>0</asrwt>
<pdfrwt beam="1">  1        2 0.98574206E-01 0.22896786E+04</pdfrwt>
<pdfrwt beam="2">  1       -2 0.31470168E+00 0.22896786E+04</pdfrwt>
<totfact> 0.10727963E+00</totfact>
</mgrwt>
</event>
<event>
12    1  0.1114484E-007  0.1675462E+04  0.7818608E-02  0.8775484E-01
          2   -1    0    0  501    0  0.00000000000E+00  0.00000000000E+00  0.32767901619E+03  0.32767901619E+03  0.00000000000E+00 0. -1.
         -2   -1    0    0    0  501 -0.00000000000E+00 -0.00000000000E+00 -0.21417098837E+04  0.21417098837E+04  0.00000000000E+00 0.  1.
         23    2    1    2    0    0  0.34632621776E+03 -0.19673019064E+03 -0.12770204822E+04  0.13408571931E+04  0.92043920944E+02 0.  0.
        254    2    1    2    0    0 -0.34632621776E+03  0.19673019064E+03 -0.53701038525E+03  0.11285317067E+04  0.90915292562E+03 0.  0.
        -24    2    4    4    0    0 -0.62697284957E+03  0.20260926326E+03 -0.50812006963E+03  0.83537681817E+03  0.74316589675E+02 0.  0.
         24    2    4    4    0    0  0.28064663181E+03 -0.58790726227E+01 -0.28890315619E+02  0.29315488854E+03  0.79423188667E+02 0.  0.
         13    1    3    3    0    0  0.23292340426E+02 -0.46866747060E+02 -0.18328048249E+03  0.19060629676E+03  0.00000000000E+00 0. -1.
        -13    1    3    3    0    0  0.32303387734E+03 -0.14986344358E+03 -0.10937399997E+04  0.11502508964E+04  0.00000000000E+00 0.  1.
          2    1    6    6  502    0  0.20240832123E+03 -0.37623445414E+02 -0.72980337293E+01  0.20600464423E+03  0.00000000000E+00 0. -1.
          1    1    5    5  503    0 -0.56820541554E+03  0.19805311392E+03 -0.44089331569E+03  0.74596872991E+03  0.00000000000E+00 0. -1.
         -2    1    5    5    0  503 -0.58767434036E+02  0.45561493414E+01 -0.67226753944E+02  0.89408088258E+02  0.00000000000E+00 0.  1.
         -1    1    6    6    0  502  0.78238310578E+02  0.31744372791E+02 -0.21592281890E+02  0.87150244309E+02  0.00000000000E+00 0.  1.
<mgrwt>
<rscale>  0 0.16754622E+04</rscale>
<asrwt>0</asrwt>
<pdfrwt beam="1">  1        2 0.50412155E-01 0.16754622E+04</pdfrwt>
<pdfrwt beam="2">  1       -2 0.32949383E+00 0.16754622E+04</pdfrwt>
<totfact> 0.19909789E+00</totfact>
</mgrwt>
</event>
<event>
12    1  0.1114484E-007  0.2192797E+04  0.7818608E-02  0.8521432E-01
         -1   -1    0    0    0  501 -0.00000000000E+00  0.00000000000E+00  0.96900323236E+03  0.96900323236E+03  0.00000000000E+00 0.  1.
          1   -1    0    0  501    0  0.00000000000E+00 -0.00000000000E+00 -0.12405429057E+04  0.12405429057E+04  0.00000000000E+00 0. -1.
         23    2    1    2    0    0 -0.48601440667E+03 -0.46302035947E+02  0.66057352334E+03  0.82643060133E+03  0.90974046098E+02 0.  0.
        254    2    1    2    0    0  0.48601440667E+03  0.46302035947E+02 -0.93211319664E+03  0.13831155367E+04  0.89767460389E+03 0.  0.
        -24    2    4    4    0    0  0.40153257217E+03  0.22261833431E+03 -0.41760232837E+02  0.46784459393E+03  0.79670055490E+02 0.  0.
         24    2    4    4    0    0  0.84481834505E+02 -0.17631629837E+03 -0.89035296380E+03  0.91527094276E+03  0.82267132475E+02 0.  0.
         11    1    3    3    0    0 -0.47738414815E+03 -0.58574016301E+02  0.64709820344E+03  0.80626461238E+03  0.00000000000E+00 0.  1.
        -11    1    3    3    0    0 -0.86302585204E+01  0.12271980354E+02  0.13475319900E+02  0.20165988951E+02  0.00000000000E+00 0. -1.
          2    1    6    6  502    0  0.77342637848E+02 -0.16869617389E+03 -0.68622990241E+03  0.71088097575E+03  0.00000000000E+00 0. -1.
          1    1    5    5  503    0  0.38113920958E+03  0.21297396759E+03 -0.20879451205E+02  0.43710520407E+03  0.00000000000E+00 0. -1.
         -2    1    5    5    0  503  0.20393362590E+02  0.96443667256E+01 -0.20880781631E+02  0.30739389857E+02  0.00000000000E+00 0.  1.
         -1    1    6    6    0  502  0.71391966565E+01 -0.76201244761E+01 -0.20412306139E+03  0.20438996701E+03  0.00000000000E+00 0.  1.
<mgrwt>
<rscale>  0 0.21927974E+04</rscale>
<asrwt>0</asrwt>
<pdfrwt beam="1">  1        1 0.19085275E+00 0.21927974E+04</pdfrwt>
<pdfrwt beam="2">  1       -1 0.14907742E+00 0.21927974E+04</pdfrwt>
<totfact> 0.32311607E+00</totfact>
</mgrwt>
</event>
<event>
12    1  0.1114484E-007  0.2563721E+04  0.7818608E-02  0.8380630E-01
         -2   -1    0    0    0  501 -0.00000000000E+00  0.00000000000E+00  0.93947620393E+03  0.93947620393E+03  0.00000000000E+00 0.  1.
          2   -1    0    0  501    0  0.00000000000E+00 -0.00000000000E+00 -0.17490239658E+04  0.17490239658E+04  0.00000000000E+00 0. -1.
         23    2    1    2    0    0  0.42296725082E+03  0.88936561321E+03  0.19081353977E+03  0.10073076751E+04  0.91577596595E+02 0.  0.
        254    2    1    2    0    0 -0.42296725082E+03 -0.88936561321E+03 -0.10003613017E+04  0.16811924946E+04  0.92510160568E+03 0.  0.
        -24    2    4    4    0    0 -0.40270397438E+03 -0.65292352867E+03 -0.13895320772E+03  0.78383317685E+03  0.81282408431E+02 0.  0.
         24    2    4    4    0    0 -0.20263276441E+02 -0.23644208454E+03 -0.86140809396E+03  0.89735931777E+03  0.83152757799E+02 0.  0.
         13    1    3    3    0    0  0.13480189958E+03  0.30656855741E+03  0.22094073036E+02  0.33562476157E+03  0.00000000000E+00 0.  1.
        -13    1    3    3    0    0  0.28816535125E+03  0.58279705581E+03  0.16871946674E+03  0.67168291356E+03  0.00000000000E+00 0. -1.
          4    1    6    6  502    0 -0.54112658590E+01 -0.20728002458E+03 -0.81229062522E+03  0.83833784968E+03  0.00000000000E+00 0. -1.
          3    1    5    5  503    0 -0.35370930339E+03 -0.55204202486E+03 -0.14514922829E+03  0.67151244738E+03  0.00000000000E+00 0. -1.
         -4    1    5    5    0  503 -0.48994670987E+02 -0.10088150382E+03  0.61960205763E+01  0.11232072947E+03  0.00000000000E+00 0.  1.
         -1    1    6    6    0  502 -0.14852010582E+02 -0.29162059965E+02 -0.49117468742E+02  0.59021468089E+02  0.00000000000E+00 0.  1.
<mgrwt>
<rscale>  0 0.25637210E+04</rscale>
<asrwt>0</asrwt>
<pdfrwt beam="1">  1        2 0.26908061E+00 0.25637210E+04</pdfrwt>
<pdfrwt beam="2">  1       -2 0.14453480E+00 0.25637210E+04</pdfrwt>
<totfact> 0.27006393E+00</totfact>
</mgrwt>
</event>
<event>
12    1  0.1114484E-007  0.1520651E+04  0.7818608E-02  0.8870835E-01
          2   -1    0    0  501    0  0.00000000000E+00  0.00000000000E+00  0.11511963974E+04  0.11511963974E+04  0.00000000000E+00 0. -1.
         -2   -1    0    0    0  501 -0.00000000000E+00 -0.00000000000E+00 -0.50216883732E+03  0.50216883732E+03  0.00000000000E+00 0.  1.
         23    2    1    2    0    0  0.10825815822E+03 -0.16039102471E+03 -0.27662597130E+03  0.34974645719E+03  0.91408679531E+02 0.  0.
        254    2    1    2    0    0 -0.10825815822E+03  0.16039102471E+03  0.92565353137E+03  0.13036187775E+04  0.89729724579E+03 0.  0.
        -24    2    4    4    0    0 -0.31731060572E+02 -0.21193305734E+03  0.88270962954E+03  0.91189682404E+03  0.80355750253E+02 0.  0.
         24    2    4    4    0    0 -0.76527097647E+02  0.37232408206E+03  0.42943901832E+02  0.39172195348E+03  0.84381819002E+02 0.  0.
         13    1    3    3    0    0  0.71313559149E+02 -0.11894624814E+03 -0.25478343665E+03  0.29008349360E+03  0.00000000000E+00 0.  1.
        -13    1    3    3    0    0  0.36944599070E+02 -0.41444776569E+02 -0.21842534648E+02  0.59662963597E+02  0.00000000000E+00 0. -1.
          2    1    6    6  502    0 -0.79860284453E+02  0.32753548456E+03  0.12307330989E+02  0.33735534541E+03  0.00000000000E+00 0. -1.
          3    1    5    5  503    0 -0.56505916732E+02 -0.11251268792E+03  0.51643586983E+03  0.53156187901E+03  0.00000000000E+00 0. -1.
         -4    1    5    5    0  503  0.24774856160E+02 -0.99420369425E+02  0.36627375971E+03  0.38033494503E+03  0.00000000000E+00 0.  1.
         -1    1    6    6    0  502  0.33331868068E+01  0.44788597496E+02  0.30636570843E+02  0.54366608070E+02  0.00000000000E+00 0.  1.
<mgrwt>
<rscale>  0 0.15206511E+04</rscale>
<asrwt>0</asrwt>
<pdfrwt beam="1">  1        2 0.17710714E+00 0.15206511E+04</pdfrwt>
<pdfrwt beam="2">  1       -2 0.77256744E-01 0.15206511E+04</pdfrwt>
<totfact> 0.29232240E+01</totfact>
</mgrwt>
</event>
<event>
12    1  0.1114484E-007  0.2009315E+04  0.7818608E-02  0.8602278E-01
          1   -1    0    0  501    0  0.00000000000E+00  0.00000000000E+00  0.73562010031E+03  0.73562010031E+03  0.00000000000E+00 0. -1.
         -1   -1    0    0    0  501 -0.00000000000E+00 -0.00000000000E+00 -0.13720894067E+04  0.13720894067E+04  0.00000000000E+00 0.  1.
         23    2    1    2    0    0 -0.75034948654E+03  0.88109128127E+02 -0.53042881850E+03  0.92708765364E+03  0.85727566321E+02 0.  0.
        254    2    1    2    0    0  0.75034948654E+03 -0.88109128127E+02 -0.10604048793E+03  0.11806218534E+04  0.90101931458E+03 0.  0.
        -24    2    4    4    0    0  0.76103006800E+03 -0.17796331096E+03  0.23418260499E+03  0.81975347952E+03  0.79476853596E+02 0.  0.
         24    2    4    4    0    0 -0.10680581461E+02  0.89854182829E+02 -0.34022309292E+03  0.36086837388E+03  0.79286703306E+02 0.  0.
         13    1    3    3    0    0 -0.72631342066E+03  0.69383790364E+02 -0.50419623013E+03  0.88688169102E+03  0.00000000000E+00 0.  1.
        -13    1    3    3    0    0 -0.24036065880E+02  0.18725337764E+02 -0.26232588367E+02  0.40205962615E+02  0.00000000000E+00 0. -1.
          2    1    6    6  502    0 -0.21237095217E+02  0.31422247901E+02 -0.24999363644E+03  0.25285408863E+03  0.00000000000E+00 0. -1.
          3    1    5    5  503    0  0.54475852343E+03 -0.97272127183E+02  0.14291741560E+03  0.57153224166E+03  0.00000000000E+00 0. -1.
         -2    1    5    5    0  503  0.21627154457E+03 -0.80691183774E+02  0.91265189390E+02  0.24822123786E+03  0.00000000000E+00 0.  1.
         -1    1    6    6    0  502  0.10556513756E+02  0.58431934928E+02 -0.90229456477E+02  0.10801428525E+03  0.00000000000E+00 0.  1.
<mgrwt>
<rscale>  0 0.20093149E+04</rscale>
<asrwt>0</asrwt>
<pdfrwt beam="1">  1        1 0.11317232E+00 0.20093149E+04</pdfrwt>
<pdfrwt beam="2">  1       -1 0.21109068E+00 0.20093149E+04</pdfrwt>
<totfact> 0.29566829E+00</totfact>
</mgrwt>
</event>
<event>
12    1  0.1114484E-007  0.2020543E+04  0.7818608E-02  0.8597076E-01
          2   -1    0    0  501    0  0.00000000000E+00  0.00000000000E+00  0.17136654990E+04  0.17136654990E+04  0.00000000000E+00 0. -1.
         -2   -1    0    0    0  501 -0.00000000000E+00 -0.00000000000E+00 -0.59559404605E+03  0.59559404605E+03  0.00000000000E+00 0.  1.
         23    2    1    2    0    0 -0.24148236103E+03 -0.43765147405E+03 -0.27846987038E+03  0.57940846764E+03  0.91192983490E+02 0.  0.
        254    2    1    2    0    0  0.24148236103E+03  0.43765147405E+03  0.13965413234E+04  0.17298510774E+04  0.89005872774E+03 0.  0.
        -24    2    4    4    0    0  0.52878100370E+03  0.44343409585E+03  0.11452154623E+04  0.13395018646E+04  0.80645166908E+02 0.  0.
         24    2    4    4    0    0 -0.28729864267E+03 -0.57826217998E+01  0.25132586110E+03  0.39034921287E+03  0.81448577251E+02 0.  0.
         13    1    3    3    0    0 -0.10888924900E+03 -0.24613271971E+03 -0.19339278236E+03  0.33141960191E+03  0.00000000000E+00 0. -1.
        -13    1    3    3    0    0 -0.13259311203E+03 -0.19151875434E+03 -0.85077088019E+02  0.24798886574E+03  0.00000000000E+00 0.  1.
          2    1    6    6  502    0 -0.28385997324E+03 -0.13160907202E+02  0.22399972483E+03  0.36183638652E+03  0.00000000000E+00 0. -1.
          3    1    5    5  503    0  0.31783155185E+03  0.23064472972E+03  0.59314841000E+03  0.71136412827E+03  0.00000000000E+00 0. -1.
         -4    1    5    5    0  503  0.21094945184E+03  0.21278936613E+03  0.55206705227E+03  0.62813773631E+03  0.00000000000E+00 0.  1.
         -1    1    6    6    0  502 -0.34386694289E+01  0.73782854019E+01  0.27326136275E+02  0.28512826353E+02  0.00000000000E+00 0.  1.
<mgrwt>
<rscale>  0 0.20205435E+04</rscale>
<asrwt>0</asrwt>
<pdfrwt beam="1">  1        2 0.26364084E+00 0.20205435E+04</pdfrwt>
<pdfrwt beam="2">  1       -2 0.91629854E-01 0.20205435E+04</pdfrwt>
<totfact> 0.90615894E+00</totfact>
</mgrwt>
</event>
<event>
12    1  0.1114484E-007  0.1201754E+04  0.7818608E-02  0.9111322E-01
         -1   -1    0    0    0  501 -0.00000000000E+00  0.00000000000E+00  0.32504205070E+03  0.32504205070E+03  0.00000000000E+00 0.  1.
          1   -1    0    0  501    0  0.00000000000E+00 -0.00000000000E+00 -0.11107898124E+04  0.11107898124E+04  0.00000000000E+00 0. -1.
         23    2    1    2    0    0  0.16432686351E+03  0.45488792632E+02  0.85752727432E+02  0.21377326101E+03  0.96296046313E+02 0.  0.
        254    2    1    2    0    0 -0.16432686351E+03 -0.45488792632E+02 -0.87150048913E+03  0.12220586021E+04  0.83954843581E+03 0.  0.
        -24    2    4    4    0    0 -0.70933099336E+02 -0.29728060051E+03 -0.96703223256E+01  0.31588436193E+03  0.79260046392E+02 0.  0.
         24    2    4    4    0    0 -0.93393764170E+02  0.25179180788E+03 -0.86183016680E+03  0.90617424016E+03  0.79240188122E+02 0.  0.
         11    1    3    3    0    0  0.16490314160E+03  0.25037827823E+02  0.94295048158E+02  0.19160244006E+03  0.00000000000E+00 0.  1.
        -11    1    3    3    0    0 -0.57627809261E+00  0.20450964808E+02 -0.85423207254E+01  0.22170820946E+02  0.00000000000E+00 0. -1.
          2    1    6    6  502    0 -0.10473491508E+03  0.19303380594E+03 -0.65319182311E+03  0.68912336374E+03  0.00000000000E+00 0. -1.
          1    1    5    5  503    0 -0.76323943043E+02 -0.27311015184E+03  0.10762586841E+02  0.28377866832E+03  0.00000000000E+00 0. -1.
         -2    1    5    5    0  503  0.53908437072E+01 -0.24170448677E+02 -0.20432909166E+02  0.32105693609E+02  0.00000000000E+00 0.  1.
         -1    1    6    6    0  502  0.11341150907E+02  0.58758001945E+02 -0.20863834369E+03  0.21705087642E+03  0.00000000000E+00 0.  1.
<mgrwt>
<rscale>  0 0.12017544E+04</rscale>
<asrwt>0</asrwt>
<pdfrwt beam="1">  1        1 0.17089074E+00 0.12017544E+04</pdfrwt>
<pdfrwt beam="2">  1       -1 0.50006469E-01 0.12017544E+04</pdfrwt>
<totfact> 0.49401820E+01</totfact>
</mgrwt>
</event>
<event>
12    1  0.1114484E-007  0.1453340E+04  0.7818608E-02  0.8916088E-01
          2   -1    0    0  501    0  0.00000000000E+00  0.00000000000E+00  0.20681095381E+04  0.20681095381E+04  0.00000000000E+00 0. -1.
         -2   -1    0    0    0  501 -0.00000000000E+00 -0.00000000000E+00 -0.25532952814E+03  0.25532952814E+03  0.00000000000E+00 0.  1.
         23    2    1    2    0    0  0.14107251945E+03 -0.27468331601E+03  0.10624953551E+04  0.11101711140E+04  0.90725646421E+02 0.  0.
        254    2    1    2    0    0 -0.14107251945E+03  0.27468331601E+03  0.75028465481E+03  0.12132679522E+04  0.90207520791E+03 0.  0.
        -24    2    4    4    0    0 -0.35317045179E+03  0.17700806617E+03  0.85477520511E+03  0.94507556577E+03  0.80411132445E+02 0.  0.
         24    2    4    4    0    0  0.21209793234E+03  0.97675249831E+02 -0.10449055030E+03  0.26819238642E+03  0.80516418833E+02 0.  0.
         13    1    3    3    0    0  0.11981808119E+03 -0.27306871823E+03  0.10189549146E+04  0.10616929949E+04  0.00000000000E+00 0. -1.
        -13    1    3    3    0    0  0.21254438268E+02 -0.16145977732E+01  0.43540440574E+02  0.48478119161E+02  0.00000000000E+00 0.  1.
          2    1    6    6  502    0  0.75439775180E+02  0.69450742864E+02 -0.18252097139E+02  0.10415231353E+03  0.00000000000E+00 0. -1.
          3    1    5    5  503    0 -0.91449588531E+02  0.84757433479E+01  0.19827284528E+03  0.21851083873E+03  0.00000000000E+00 0. -1.
         -4    1    5    5    0  503 -0.26172086326E+03  0.16853232283E+03  0.65650235984E+03  0.72656472704E+03  0.00000000000E+00 0.  1.
         -1    1    6    6    0  502  0.13665815716E+03  0.28224506967E+02 -0.86238453159E+02  0.16404007289E+03  0.00000000000E+00 0.  1.
<mgrwt>
<rscale>  0 0.14533402E+04</rscale>
<asrwt>0</asrwt>
<pdfrwt beam="1">  1        2 0.31817069E+00 0.14533402E+04</pdfrwt>
<pdfrwt beam="2">  1       -2 0.39281467E-01 0.14533402E+04</pdfrwt>
<totfact> 0.36398037E+01</totfact>
</mgrwt>
</event>
<event>
12    1  0.1114484E-007  0.3117584E+04  0.7818608E-02  0.8210929E-01
         -2   -1    0    0    0  501 -0.00000000000E+00  0.00000000000E+00  0.87803680148E+03  0.87803680148E+03  0.00000000000E+00 0.  1.
          2   -1    0    0  501    0  0.00000000000E+00 -0.00000000000E+00 -0.27673475941E+04  0.27673475941E+04  0.00000000000E+00 0. -1.
         23    2    1    2    0    0 -0.65451923859E+03  0.31576471748E+03 -0.23027089933E+04  0.24163377735E+04  0.90092936028E+02 0.  0.
        254    2    1    2    0    0  0.65451923859E+03 -0.31576471748E+03  0.41339820074E+03  0.12290466221E+04  0.90086332834E+03 0.  0.
        -24    2    4    4    0    0  0.64092854187E+03  0.12921187910E+03  0.73519690248E+02  0.66332808072E+03  0.84343893214E+02 0.  0.
         24    2    4    4    0    0  0.13590696715E+02 -0.44497659658E+03  0.33987851049E+03  0.56571854135E+03  0.79568760166E+02 0.  0.
         13    1    3    3    0    0 -0.55123225686E+02  0.93208426092E+00 -0.16362073112E+03  0.17265915105E+03  0.00000000000E+00 0.  1.
        -13    1    3    3    0    0 -0.59939601290E+03  0.31483263322E+03 -0.21390882622E+04  0.22436786224E+04  0.00000000000E+00 0. -1.
          2    1    6    6  502    0  0.26444464334E+02 -0.25376862174E+03  0.15014040036E+03  0.29604047509E+03  0.00000000000E+00 0. -1.
          1    1    5    5  503    0  0.19246068162E+03  0.22877879064E+02 -0.13493320160E+02  0.19428479356E+03  0.00000000000E+00 0. -1.
         -4    1    5    5    0  503  0.44846786025E+03  0.10633400004E+03  0.87013010408E+02  0.46904328715E+03  0.00000000000E+00 0.  1.
         -1    1    6    6    0  502 -0.12853767619E+02 -0.19120797484E+03  0.18973811013E+03  0.26967806626E+03  0.00000000000E+00 0.  1.
<mgrwt>
<rscale>  0 0.31175843E+04</rscale>
<asrwt>0</asrwt>
<pdfrwt beam="1">  1        2 0.42574577E+00 0.31175843E+04</pdfrwt>
<pdfrwt beam="2">  1       -2 0.13508259E+00 0.31175843E+04</pdfrwt>
<totfact> 0.80773467E-01</totfact>
</mgrwt>
</event>
<event>
12    1  0.1114484E-007  0.3075163E+04  0.7818608E-02  0.8222587E-01
         -2   -1    0    0    0  501 -0.00000000000E+00  0.00000000000E+00  0.11106619410E+04  0.11106619410E+04  0.00000000000E+00 0.  1.
          2   -1    0    0  501    0  0.00000000000E+00 -0.00000000000E+00 -0.21286016388E+04  0.21286016388E+04  0.00000000000E+00 0. -1.
         23    2    1    2    0    0  0.56461504432E+02 -0.65366534377E+02 -0.19406200331E+04  0.19446410883E+04  0.90344696228E+02 0.  0.
        254    2    1    2    0    0 -0.56461504432E+02  0.65366534377E+02  0.92268033532E+03  0.12946224915E+04  0.90401753801E+03 0.  0.
        -24    2    4    4    0    0  0.12801871334E+03  0.60149647692E+02  0.10460774548E+04  0.10586931175E+04  0.80909236735E+02 0.  0.
         24    2    4    4    0    0 -0.18448021778E+03  0.52168866848E+01 -0.12339711945E+03  0.23592937400E+03  0.79847691087E+02 0.  0.
         11    1    3    3    0    0  0.67294423131E+02 -0.13558142170E+02 -0.13129624332E+04  0.13147557620E+04  0.00000000000E+00 0. -1.
        -11    1    3    3    0    0 -0.10832918698E+02 -0.51808392207E+02 -0.62765759992E+03  0.62988532636E+03  0.00000000000E+00 0.  1.
          4    1    6    6  502    0 -0.16129458192E+03  0.33044292398E+02 -0.10531592722E+03  0.19544644265E+03  0.00000000000E+00 0. -1.
          3    1    5    5  503    0  0.12530596315E+03  0.25641454962E+02  0.79002349834E+03  0.80031006276E+03  0.00000000000E+00 0. -1.
         -4    1    5    5    0  503  0.27127501901E+01  0.34508192730E+02  0.25605395643E+03  0.25838305475E+03  0.00000000000E+00 0.  1.
         -3    1    6    6    0  502 -0.23185635855E+02 -0.27827405714E+02 -0.18081192225E+02  0.40482931354E+02  0.00000000000E+00 0.  1.
<mgrwt>
<rscale>  0 0.30751630E+04</rscale>
<asrwt>0</asrwt>
<pdfrwt beam="1">  1        2 0.32747718E+00 0.30751630E+04</pdfrwt>
<pdfrwt beam="2">  1       -2 0.17087107E+00 0.30751630E+04</pdfrwt>
<totfact> 0.10123658E+00</totfact>
</mgrwt>
</event>
<event>
12    1  0.1114484E-007  0.1441273E+04  0.7818608E-02  0.8924473E-01
          2   -1    0    0  501    0  0.00000000000E+00  0.00000000000E+00  0.81816509932E+03  0.81816509932E+03  0.00000000000E+00 0. -1.
         -2   -1    0    0    0  501 -0.00000000000E+00 -0.00000000000E+00 -0.63473344010E+03  0.63473344010E+03  0.00000000000E+00 0.  1.
         23    2    1    2    0    0 -0.15056527345E+02 -0.14718878080E+03  0.45896737434E+03  0.49078455958E+03  0.91253476677E+02 0.  0.
        254    2    1    2    0    0  0.15056527345E+02  0.14718878080E+03 -0.27553571512E+03  0.96211397984E+03  0.90986380502E+03 0.  0.
        -24    2    4    4    0    0  0.11941077857E+03  0.49389583750E+03 -0.23227547203E+02  0.51425192221E+03  0.75653738886E+02 0.  0.
         24    2    4    4    0    0 -0.10435425123E+03 -0.34670705670E+03 -0.25230816792E+03  0.44786205762E+03  0.76324426946E+02 0.  0.
         11    1    3    3    0    0 -0.17922900930E+02 -0.54946337416E+02  0.31153047960E+03  0.31684628780E+03  0.00000000000E+00 0. -1.
        -11    1    3    3    0    0  0.28663735845E+01 -0.92242443388E+02  0.14743689474E+03  0.17393827178E+03  0.00000000000E+00 0.  1.
          4    1    6    6  502    0 -0.86088359933E+02 -0.24452408421E+03 -0.21745741013E+03  0.33836512630E+03  0.00000000000E+00 0. -1.
          3    1    5    5  503    0  0.76017184685E+02  0.41444343372E+03 -0.35699048649E+02  0.42286687526E+03  0.00000000000E+00 0. -1.
         -4    1    5    5    0  503  0.43393593889E+02  0.79452403788E+02  0.12471501447E+02  0.91385046953E+02  0.00000000000E+00 0.  1.
         -3    1    6    6    0  502 -0.18265891295E+02 -0.10218297249E+03 -0.34850757783E+02  0.10949693132E+03  0.00000000000E+00 0.  1.
<mgrwt>
<rscale>  0 0.14412727E+04</rscale>
<asrwt>0</asrwt>
<pdfrwt beam="1">  1        2 0.12587155E+00 0.14412727E+04</pdfrwt>
<pdfrwt beam="2">  1       -2 0.97651299E-01 0.14412727E+04</pdfrwt>
<totfact> 0.28346617E+01</totfact>
</mgrwt>
</event>
<event>
12    1  0.1114484E-007  0.1915450E+04  0.7818608E-02  0.8647204E-01
         -1   -1    0    0    0  501 -0.00000000000E+00  0.00000000000E+00  0.11447372083E+04  0.11447372083E+04  0.00000000000E+00 0.  1.
          1   -1    0    0  501    0  0.00000000000E+00 -0.00000000000E+00 -0.80126418832E+03  0.80126418832E+03  0.00000000000E+00 0. -1.
         23    2    1    2    0    0  0.42442149630E+03 -0.39313466602E+03  0.60127896114E+03  0.83944607835E+03  0.91895904156E+02 0.  0.
        254    2    1    2    0    0 -0.42442149630E+03  0.39313466602E+03 -0.25780594117E+03  0.11065553183E+04  0.90736558063E+03 0.  0.
        -24    2    4    4    0    0  0.54164310802E+01 -0.18929738439E+03 -0.31581108051E+03  0.37581734782E+03  0.75094626238E+02 0.  0.
         24    2    4    4    0    0 -0.42983792738E+03  0.58243205042E+03  0.58005139338E+02  0.73073797043E+03  0.81398083968E+02 0.  0.
         11    1    3    3    0    0  0.26041734222E+03 -0.25341402631E+03  0.31324674353E+03  0.47974929202E+03  0.00000000000E+00 0.  1.
        -11    1    3    3    0    0  0.16400415408E+03 -0.13972063971E+03  0.28803221761E+03  0.35969678633E+03  0.00000000000E+00 0. -1.
          4    1    6    6  502    0 -0.26850356948E+03  0.41660278603E+03  0.60884843015E+02  0.49935860087E+03  0.00000000000E+00 0. -1.
          1    1    5    5  503    0 -0.11595772781E+02 -0.10827348033E+03 -0.24005244882E+03  0.26359587758E+03  0.00000000000E+00 0. -1.
         -2    1    5    5    0  503  0.17012203862E+02 -0.81023904060E+02 -0.75758631683E+02  0.11222147024E+03  0.00000000000E+00 0.  1.
         -3    1    6    6    0  502 -0.16133435790E+03  0.16582926438E+03 -0.28797036773E+01  0.23137936956E+03  0.00000000000E+00 0.  1.
<mgrwt>
<rscale>  0 0.19154497E+04</rscale>
<asrwt>0</asrwt>
<pdfrwt beam="1">  1        1 0.12327141E+00 0.19154497E+04</pdfrwt>
<pdfrwt beam="2">  1       -1 0.17611342E+00 0.19154497E+04</pdfrwt>
<totfact> 0.45746312E+00</totfact>
</mgrwt>
</event>
<event>
12    1  0.1114484E-007  0.1736701E+04  0.7818608E-02  0.8740705E-01
          1   -1    0    0  501    0  0.00000000000E+00  0.00000000000E+00  0.17836680917E+04  0.17836680917E+04  0.00000000000E+00 0. -1.
         -1   -1    0    0    0  501 -0.00000000000E+00 -0.00000000000E+00 -0.42274259137E+03  0.42274259137E+03  0.00000000000E+00 0.  1.
         23    2    1    2    0    0  0.33706678827E+03  0.40864619702E+03  0.89785931608E+03  0.10465176204E+04  0.91880597374E+02 0.  0.
        254    2    1    2    0    0 -0.33706678827E+03 -0.40864619702E+03  0.46306618426E+03  0.11598930627E+04  0.92212574622E+03 0.  0.
        -24    2    4    4    0    0 -0.45809848166E+03 -0.40376391728E+03  0.66816214576E+03  0.90861040344E+03  0.79073967988E+02 0.  0.
         24    2    4    4    0    0  0.12103169338E+03 -0.48822797385E+01 -0.20509596150E+03  0.25128265928E+03  0.80038203220E+02 0.  0.
         13    1    3    3    0    0  0.30914161371E+03  0.34208647626E+03  0.81701726777E+03  0.93814119961E+03  0.00000000000E+00 0. -1.
        -13    1    3    3    0    0  0.27925174559E+02  0.66559720757E+02  0.80842048312E+02  0.10837642076E+03  0.00000000000E+00 0.  1.
          2    1    6    6  502    0  0.37273371988E+02  0.35548999934E+02 -0.61809751709E+02  0.80457945922E+02  0.00000000000E+00 0. -1.
          1    1    5    5  503    0 -0.67400765996E+02 -0.96396894314E+02  0.10810481903E+03  0.15975567717E+03  0.00000000000E+00 0. -1.
         -2    1    5    5    0  503 -0.39069771566E+03 -0.30736702296E+03  0.56005732673E+03  0.74885472627E+03  0.00000000000E+00 0.  1.
         -1    1    6    6    0  502  0.83758321394E+02 -0.40431279673E+02 -0.14328620979E+03  0.17082471336E+03  0.00000000000E+00 0.  1.
<mgrwt>
<rscale>  0 0.17367009E+04</rscale>
<asrwt>0</asrwt>
<pdfrwt beam="1">  1        1 0.27441047E+00 0.17367009E+04</pdfrwt>
<pdfrwt beam="2">  1       -1 0.65037323E-01 0.17367009E+04</pdfrwt>
<totfact> 0.95039530E+00</totfact>
</mgrwt>
</event>
<event>
12    1  0.1114484E-007  0.2517682E+04  0.7818608E-02  0.8396713E-01
          2   -1    0    0  501    0  0.00000000000E+00  0.00000000000E+00  0.14971464998E+04  0.14971464998E+04  0.00000000000E+00 0. -1.
         -2   -1    0    0    0  501 -0.00000000000E+00 -0.00000000000E+00 -0.10584670702E+04  0.10584670702E+04  0.00000000000E+00 0.  1.
         23    2    1    2    0    0 -0.10950484345E+04  0.58200602939E+02  0.12913350866E+03  0.11079403296E+04  0.91312248594E+02 0.  0.
        254    2    1    2    0    0  0.10950484345E+04 -0.58200602939E+02  0.30954592093E+03  0.14476732404E+04  0.89298418224E+03 0.  0.
        -24    2    4    4    0    0  0.35924134398E+02  0.18941795711E+03 -0.15657197669E+03  0.26157572471E+03  0.82081483699E+02 0.  0.
         24    2    4    4    0    0  0.10591243001E+04 -0.24761856004E+03  0.46611789763E+03  0.11860975157E+04  0.80636145073E+02 0.  0.
         13    1    3    3    0    0 -0.81449573397E+03  0.57255587438E+02  0.58312279324E+02  0.81858525816E+03  0.00000000000E+00 0. -1.
        -13    1    3    3    0    0 -0.28055270057E+03  0.94501550114E+00  0.70821229336E+02  0.28935507146E+03  0.00000000000E+00 0.  1.
          2    1    6    6  502    0  0.40535268279E+03 -0.55449702257E+02  0.18314307052E+03  0.44824864886E+03  0.00000000000E+00 0. -1.
          3    1    5    5  503    0 -0.19592525602E+02  0.48227260836E+02 -0.68895225271E+02  0.86349799145E+02  0.00000000000E+00 0. -1.
         -2    1    5    5    0  503  0.55516659999E+02  0.14119069627E+03 -0.87676751422E+02  0.17522592557E+03  0.00000000000E+00 0.  1.
         -1    1    6    6    0  502  0.65377161736E+03 -0.19216885779E+03  0.28297482710E+03  0.73784886687E+03  0.00000000000E+00 0.  1.
<mgrwt>
<rscale>  0 0.25176817E+04</rscale>
<asrwt>0</asrwt>
<pdfrwt beam="1">  1        2 0.23033023E+00 0.25176817E+04</pdfrwt>
<pdfrwt beam="2">  1       -2 0.16284109E+00 0.25176817E+04</pdfrwt>
<totfact> 0.27243349E+00</totfact>
</mgrwt>
</event>
<event>
12    1  0.1114484E-007  0.1623977E+04  0.7818608E-02  0.8805952E-01
          1   -1    0    0  501    0  0.00000000000E+00  0.00000000000E+00  0.13443446013E+04  0.13443446013E+04  0.00000000000E+00 0. -1.
         -1   -1    0    0    0  501 -0.00000000000E+00 -0.00000000000E+00 -0.49044360443E+03  0.49044360443E+03  0.00000000000E+00 0.  1.
         23    2    1    2    0    0  0.31404980356E+03  0.45869443448E+03  0.25624668694E+03  0.61892497983E+03  0.91530884164E+02 0.  0.
        254    2    1    2    0    0 -0.31404980356E+03 -0.45869443448E+03  0.59765430995E+03  0.12158632259E+04  0.90116860053E+03 0.  0.
        -24    2    4    4    0    0 -0.15814195979E+03 -0.65148274410E+03  0.66470157600E+03  0.94745484661E+03  0.80024095883E+02 0.  0.
         24    2    4    4    0    0 -0.15590784378E+03  0.19278830962E+03 -0.67047266047E+02  0.26840837930E+03  0.77930315783E+02 0.  0.
         11    1    3    3    0    0  0.16987359586E+03  0.18444861465E+03  0.14538582554E+03  0.28985404652E+03  0.00000000000E+00 0.  1.
        -11    1    3    3    0    0  0.14417620770E+03  0.27424581983E+03  0.11086086140E+03  0.32907093331E+03  0.00000000000E+00 0. -1.
          2    1    6    6  502    0 -0.75970399707E+02  0.95566258776E+02  0.71645010596E+01  0.12229366919E+03  0.00000000000E+00 0. -1.
          3    1    5    5  503    0 -0.79036240153E+02 -0.28300869904E+03  0.23783818514E+03  0.37803128614E+03  0.00000000000E+00 0. -1.
         -4    1    5    5    0  503 -0.79105719634E+02 -0.36847404506E+03  0.42686339086E+03  0.56942356047E+03  0.00000000000E+00 0.  1.
         -1    1    6    6    0  502 -0.79937444069E+02  0.97222050847E+02 -0.74211767106E+02  0.14611471012E+03  0.00000000000E+00 0.  1.
<mgrwt>
<rscale>  0 0.16239769E+04</rscale>
<asrwt>0</asrwt>
<pdfrwt beam="1">  1        1 0.20682225E+00 0.16239769E+04</pdfrwt>
<pdfrwt beam="2">  1       -1 0.75452863E-01 0.16239769E+04</pdfrwt>
<totfact> 0.14220184E+01</totfact>
</mgrwt>
</event>
<event>
12    1  0.1114484E-007  0.1320122E+04  0.7818608E-02  0.9013759E-01
         -1   -1    0    0    0  501 -0.00000000000E+00  0.00000000000E+00  0.16955310861E+03  0.16955310861E+03  0.00000000000E+00 0.  1.
          1   -1    0    0  501    0  0.00000000000E+00 -0.00000000000E+00 -0.25695823547E+04  0.25695823547E+04  0.00000000000E+00 0. -1.
         23    2    1    2    0    0 -0.29497601504E+02 -0.21298580382E+03 -0.74569190729E+02  0.24525983932E+03  0.91426273328E+02 0.  0.
        254    2    1    2    0    0  0.29497601504E+02  0.21298580382E+03 -0.23254600553E+04  0.24938756239E+04  0.87488176214E+03 0.  0.
        -24    2    4    4    0    0 -0.23259976375E+03 -0.45680235573E+02 -0.19354831258E+04  0.19515657609E+04  0.79527699585E+02 0.  0.
         24    2    4    4    0    0  0.26209736525E+03  0.25866603939E+03 -0.38997692953E+03  0.54230986302E+03  0.80092653583E+02 0.  0.
         13    1    3    3    0    0  0.18444524061E+02 -0.37156207038E+01 -0.37134275090E+01  0.19178004300E+02  0.00000000000E+00 0. -1.
        -13    1    3    3    0    0 -0.47942125565E+02 -0.20927018312E+03 -0.70855763220E+02  0.22608183502E+03  0.00000000000E+00 0.  1.
          4    1    6    6  502    0  0.24538982097E+03  0.21966229475E+03 -0.37020096781E+03  0.49549615996E+03  0.00000000000E+00 0. -1.
          3    1    5    5  503    0 -0.63633262985E+02 -0.39053366265E+02 -0.41032613148E+03  0.41706341454E+03  0.00000000000E+00 0. -1.
         -4    1    5    5    0  503 -0.16896650076E+03 -0.66268693076E+01 -0.15251569943E+04  0.15345023464E+04  0.00000000000E+00 0.  1.
         -3    1    6    6    0  502  0.16707544282E+02  0.39003744644E+02 -0.19775961720E+02  0.46813703060E+02  0.00000000000E+00 0.  1.
<mgrwt>
<rscale>  0 0.13201222E+04</rscale>
<asrwt>0</asrwt>
<pdfrwt beam="1">  1        1 0.39532032E+00 0.13201222E+04</pdfrwt>
<pdfrwt beam="2">  1       -1 0.26085096E-01 0.13201222E+04</pdfrwt>
<totfact> 0.15553974E+01</totfact>
</mgrwt>
</event>
<event>
12    1  0.1876637E-007  0.2250655E+04  0.7818608E-02  0.8497635E-01
         -1   -1    0    0    0  501 -0.00000000000E+00  0.00000000000E+00  0.15262473009E+04  0.15262473009E+04  0.00000000000E+00 0.  1.
          1   -1    0    0  501    0  0.00000000000E+00 -0.00000000000E+00 -0.82972256273E+03  0.82972256273E+03  0.00000000000E+00 0. -1.
         23    2    1    2    0    0 -0.42334241898E+03  0.47164334587E+02  0.11770846759E+04  0.12552844708E+04  0.93634877452E+02 0.  0.
        254    2    1    2    0    0  0.42334241898E+03 -0.47164334587E+02 -0.48055993773E+03  0.11006853928E+04  0.89393914895E+03 0.  0.
        -24    2    4    4    0    0 -0.23672422108E+03 -0.13650803447E+03 -0.28282485200E+03  0.40144072343E+03  0.80572682727E+02 0.  0.
         24    2    4    4    0    0  0.66006664006E+03  0.89343699885E+02 -0.19773508573E+03  0.69924466938E+03  0.78572752888E+02 0.  0.
         13    1    3    3    0    0 -0.37234259466E+01  0.27305773513E+01 -0.24193022423E+00  0.46236872390E+01  0.00000000000E+00 0. -1.
        -13    1    3    3    0    0 -0.41961899304E+03  0.44433757235E+02  0.11773266061E+04  0.12506607836E+04  0.00000000000E+00 0.  1.
          4    1    6    6  502    0  0.63635228224E+01 -0.75238159638E+01 -0.24759777502E+01  0.10160349167E+02  0.00000000000E+00 0. -1.
          1    1    5    5  503    0 -0.83673131372E+01  0.84104956543E+01 -0.25503211168E+02  0.28127604700E+02  0.00000000000E+00 0. -1.
         -2    1    5    5    0  503 -0.22835690794E+03 -0.14491853013E+03 -0.25732164083E+03  0.37331311873E+03  0.00000000000E+00 0.  1.
         -3    1    6    6    0  502  0.65370311724E+03  0.96867515849E+02 -0.19525910798E+03  0.68908432021E+03  0.00000000000E+00 0.  1.
<mgrwt>
<rscale>  0 0.22506549E+04</rscale>
<asrwt>0</asrwt>
<pdfrwt beam="1">  1        1 0.12764963E+00 0.22506549E+04</pdfrwt>
<pdfrwt beam="2">  1       -1 0.23480728E+00 0.22506549E+04</pdfrwt>
<totfact> 0.16592386E+00</totfact>
</mgrwt>
</event>
<event>
12    1  0.1114484E-007  0.1350991E+04  0.7818608E-02  0.8990078E-01
         -1   -1    0    0    0  501 -0.00000000000E+00  0.00000000000E+00  0.24172220384E+03  0.24172220384E+03  0.00000000000E+00 0.  1.
          1   -1    0    0  501    0  0.00000000000E+00 -0.00000000000E+00 -0.18876805889E+04  0.18876805889E+04  0.00000000000E+00 0. -1.
         23    2    1    2    0    0  0.44585882158E+02 -0.31083432256E+03 -0.13552365498E+03  0.35393688002E+03  0.91097623538E+02 0.  0.
        254    2    1    2    0    0 -0.44585882158E+02  0.31083432256E+03 -0.15104347301E+04  0.17754659127E+04  0.87878339560E+03 0.  0.
        -24    2    4    4    0    0  0.30824226007E+03  0.36647544000E+03 -0.48182258676E+03  0.68370287754E+03  0.77324515088E+02 0.  0.
         24    2    4    4    0    0 -0.35282814223E+03 -0.55641117447E+02 -0.10286121433E+04  0.10917630351E+04  0.79498123684E+02 0.  0.
         13    1    3    3    0    0  0.48016655865E+02 -0.69354328156E+02 -0.22559470625E+02  0.87318679498E+02  0.00000000000E+00 0. -1.
        -13    1    3    3    0    0 -0.34307737070E+01 -0.24147999440E+03 -0.11296418436E+03  0.26661820053E+03  0.00000000000E+00 0.  1.
          2    1    6    6  502    0 -0.63328707561E+02  0.15880028197E+02 -0.23762577214E+03  0.24643195426E+03  0.00000000000E+00 0. -1.
          1    1    5    5  503    0  0.14551174648E+03  0.19961443974E+03 -0.19893919094E+03  0.31716934689E+03  0.00000000000E+00 0. -1.
         -2    1    5    5    0  503  0.16273051359E+03  0.16686100026E+03 -0.28288339582E+03  0.36653353065E+03  0.00000000000E+00 0.  1.
         -1    1    6    6    0  502 -0.28949943466E+03 -0.71521145644E+02 -0.79098637117E+03  0.84533108089E+03  0.00000000000E+00 0.  1.
<mgrwt>
<rscale>  0 0.13509912E+04</rscale>
<asrwt>0</asrwt>
<pdfrwt beam="1">  1        1 0.29041238E+00 0.13509912E+04</pdfrwt>
<pdfrwt beam="2">  1       -1 0.37188034E-01 0.13509912E+04</pdfrwt>
<totfact> 0.24197950E+01</totfact>
</mgrwt>
</event>
<event>
12    1  0.1114484E-007  0.1153194E+04  0.7818608E-02  0.9154842E-01
          1   -1    0    0  501    0  0.00000000000E+00  0.00000000000E+00  0.21357026503E+04  0.21357026503E+04  0.00000000000E+00 0. -1.
         -1   -1    0    0    0  501 -0.00000000000E+00 -0.00000000000E+00 -0.15566969750E+03  0.15566969750E+03  0.00000000000E+00 0.  1.
         23    2    1    2    0    0  0.23738509569E+03  0.38783078887E+02  0.51403497304E+03  0.57501117836E+03  0.92466701358E+02 0.  0.
        254    2    1    2    0    0 -0.23738509569E+03 -0.38783078887E+02  0.14659979798E+04  0.17163611695E+04  0.85958698018E+03 0.  0.
        -24    2    4    4    0    0 -0.19104708442E+03 -0.39209099404E+03  0.11515072783E+04  0.12339605633E+04  0.80345028567E+02 0.  0.
         24    2    4    4    0    0 -0.46338011265E+02  0.35330791515E+03  0.31449070147E+03  0.48240060621E+03  0.82657421702E+02 0.  0.
         13    1    3    3    0    0  0.59670207483E+02 -0.76846930962E+01  0.58851542133E+02  0.84161108480E+02  0.00000000000E+00 0.  1.
        -13    1    3    3    0    0  0.17771488821E+03  0.46467771983E+02  0.45518343091E+03  0.49085006988E+03  0.00000000000E+00 0. -1.
          4    1    6    6  502    0  0.13214569762E+02  0.16909659140E+03  0.11844749883E+03  0.20687699741E+03  0.00000000000E+00 0. -1.
          1    1    5    5  503    0 -0.31970322837E+02 -0.18356420934E+02  0.81393679165E+02  0.89353179797E+02  0.00000000000E+00 0. -1.
         -2    1    5    5    0  503 -0.15907676159E+03 -0.37373457311E+03  0.10701135991E+04  0.11446073835E+04  0.00000000000E+00 0.  1.
         -3    1    6    6    0  502 -0.59552581027E+02  0.18421132375E+03  0.19604320264E+03  0.27552360880E+03  0.00000000000E+00 0.  1.
<mgrwt>
<rscale>  0 0.11531941E+04</rscale>
<asrwt>0</asrwt>
<pdfrwt beam="1">  1        1 0.32856962E+00 0.11531941E+04</pdfrwt>
<pdfrwt beam="2">  1       -1 0.23949186E-01 0.11531941E+04</pdfrwt>
<totfact> 0.36201635E+01</totfact>
</mgrwt>
</event>
<event>
12    1  0.1114484E-007  0.1451421E+04  0.7818608E-02  0.8917416E-01
          2   -1    0    0  501    0  0.00000000000E+00  0.00000000000E+00  0.11976882668E+04  0.11976882668E+04  0.00000000000E+00 0. -1.
         -2   -1    0    0    0  501 -0.00000000000E+00 -0.00000000000E+00 -0.43972695361E+03  0.43972695361E+03  0.00000000000E+00 0.  1.
         23    2    1    2    0    0 -0.46431590053E+02 -0.96388810245E+02 -0.24606413539E+03  0.28229330853E+03  0.87722619762E+02 0.  0.
        254    2    1    2    0    0  0.46431590053E+02  0.96388810245E+02  0.10040254486E+04  0.13551219119E+04  0.90379289627E+03 0.  0.
        -24    2    4    4    0    0  0.28392417514E+03 -0.52499613926E+02  0.10190024901E+04  0.10621375613E+04  0.80006109211E+02 0.  0.
         24    2    4    4    0    0 -0.23749258508E+03  0.14888842417E+03 -0.14977041552E+02  0.29298435059E+03  0.83934659680E+02 0.  0.
         11    1    3    3    0    0 -0.44939873056E+02 -0.10677003351E+03 -0.24588191079E+03  0.27180387470E+03  0.00000000000E+00 0.  1.
        -11    1    3    3    0    0 -0.14917169964E+01  0.10381223269E+02 -0.18222459664E+00  0.10489433825E+02  0.00000000000E+00 0. -1.
          2    1    6    6  502    0 -0.36020893902E+02  0.64965853446E+02 -0.65097315549E+01  0.74568381479E+02  0.00000000000E+00 0. -1.
          3    1    5    5  503    0  0.88347235834E+02 -0.48782000739E+02  0.42223975370E+03  0.43413284519E+03  0.00000000000E+00 0. -1.
         -4    1    5    5    0  503  0.19557693930E+03 -0.37176131870E+01  0.59676273641E+03  0.62800471607E+03  0.00000000000E+00 0.  1.
         -1    1    6    6    0  502 -0.20147169118E+03  0.83922570725E+02 -0.84673099974E+01  0.21841596911E+03  0.00000000000E+00 0.  1.
<mgrwt>
<rscale>  0 0.14514211E+04</rscale>
<asrwt>0</asrwt>
<pdfrwt beam="1">  1        2 0.18425973E+00 0.14514211E+04</pdfrwt>
<pdfrwt beam="2">  1       -2 0.67650301E-01 0.14514211E+04</pdfrwt>
<totfact> 0.36898420E+01</totfact>
</mgrwt>
</event>
<event>
12    1  0.1114484E-007  0.1373706E+04  0.7818608E-02  0.8973074E-01
          1   -1    0    0  501    0  0.00000000000E+00  0.00000000000E+00  0.19454066679E+04  0.19454066679E+04  0.00000000000E+00 0. -1.
         -1   -1    0    0    0  501 -0.00000000000E+00 -0.00000000000E+00 -0.24250318705E+03  0.24250318705E+03  0.00000000000E+00 0.  1.
         23    2    1    2    0    0 -0.24547147277E+03 -0.96532998343E+02  0.93621450142E+03  0.97699886820E+03  0.91947441961E+02 0.  0.
        254    2    1    2    0    0  0.24547147277E+03  0.96532998343E+02  0.76668897941E+03  0.12109109867E+04  0.89939900096E+03 0.  0.
        -24    2    4    4    0    0 -0.19377797250E+03 -0.12168871451E+02 -0.97589087180E+02  0.23199156785E+03  0.81230988901E+02 0.  0.
         24    2    4    4    0    0  0.43924944527E+03  0.10870186979E+03  0.86427806659E+03  0.97891941889E+03  0.80935039465E+02 0.  0.
         11    1    3    3    0    0  0.27795031906E+01 -0.18556891822E+02  0.51488721705E+02  0.54801207422E+02  0.00000000000E+00 0.  1.
        -11    1    3    3    0    0 -0.24825097596E+03 -0.77976106521E+02  0.88472577971E+03  0.92219766078E+03  0.00000000000E+00 0. -1.
          2    1    6    6  502    0  0.40898290560E+03  0.11930893212E+03  0.78033101506E+03  0.88905462792E+03  0.00000000000E+00 0. -1.
          3    1    5    5  503    0 -0.19445575441E+03 -0.20067243668E+02 -0.10432940913E+03  0.22158601107E+03  0.00000000000E+00 0. -1.
         -4    1    5    5    0  503  0.67778191209E+00  0.78983722163E+01  0.67403219461E+01  0.10405556781E+02  0.00000000000E+00 0.  1.
         -1    1    6    6    0  502  0.30266539669E+02 -0.10607062329E+02  0.83947051530E+02  0.89864790966E+02  0.00000000000E+00 0.  1.
<mgrwt>
<rscale>  0 0.13737064E+04</rscale>
<asrwt>0</asrwt>
<pdfrwt beam="1">  1        1 0.29929332E+00 0.13737064E+04</pdfrwt>
<pdfrwt beam="2">  1       -1 0.37308184E-01 0.13737064E+04</pdfrwt>
<totfact> 0.21946273E+01</totfact>
</mgrwt>
</event>
<event>
12    1  0.1114484E-007  0.1921254E+04  0.7818608E-02  0.8644348E-01
          2   -1    0    0  501    0  0.00000000000E+00  0.00000000000E+00  0.16761943257E+04  0.16761943257E+04  0.00000000000E+00 0. -1.
         -2   -1    0    0    0  501 -0.00000000000E+00 -0.00000000000E+00 -0.55053559185E+03  0.55053559185E+03  0.00000000000E+00 0.  1.
         23    2    1    2    0    0 -0.27453845259E+03 -0.59576759305E+03  0.85977340613E+03  0.10854903956E+04  0.93641348572E+02 0.  0.
        254    2    1    2    0    0  0.27453845259E+03  0.59576759305E+03  0.26588532773E+03  0.11412395220E+04  0.89522190104E+03 0.  0.
        -24    2    4    4    0    0  0.43630314220E+03  0.37827830502E+03 -0.18279072354E+03  0.61092204682E+03  0.79739518078E+02 0.  0.
         24    2    4    4    0    0 -0.16176468961E+03  0.21748928803E+03  0.44867605126E+03  0.53031747513E+03  0.80355586229E+02 0.  0.
         11    1    3    3    0    0 -0.15827227749E+02 -0.88579208676E+02  0.15770850272E+03  0.18157298581E+03  0.00000000000E+00 0.  1.
        -11    1    3    3    0    0 -0.25871122484E+03 -0.50718838438E+03  0.70206490341E+03  0.90391740979E+03  0.00000000000E+00 0. -1.
          4    1    6    6  502    0 -0.12976665347E+03  0.19954487151E+03  0.42354947785E+03  0.48585152082E+03  0.00000000000E+00 0. -1.
          1    1    5    5  503    0  0.19945875333E+03  0.22564201695E+03 -0.93052795719E+02  0.31520935406E+03  0.00000000000E+00 0. -1.
         -2    1    5    5    0  503  0.23684438887E+03  0.15263628806E+03 -0.89737927820E+02  0.29571269276E+03  0.00000000000E+00 0.  1.
         -3    1    6    6    0  502 -0.31998036141E+02  0.17944416527E+02  0.25126573419E+02  0.44465954315E+02  0.00000000000E+00 0.  1.
<mgrwt>
<rscale>  0 0.19212544E+04</rscale>
<asrwt>0</asrwt>
<pdfrwt beam="1">  1        2 0.25787605E+00 0.19212544E+04</pdfrwt>
<pdfrwt beam="2">  1       -2 0.84697784E-01 0.19212544E+04</pdfrwt>
<totfact> 0.11482986E+01</totfact>
</mgrwt>
</event>
<event>
12    1  0.1114484E-007  0.2479318E+04  0.7818608E-02  0.8410391E-01
          2   -1    0    0  501    0  0.00000000000E+00  0.00000000000E+00  0.31600183458E+04  0.31600183458E+04  0.00000000000E+00 0. -1.
         -2   -1    0    0    0  501 -0.00000000000E+00 -0.00000000000E+00 -0.48631185341E+03  0.48631185341E+03  0.00000000000E+00 0.  1.
         23    2    1    2    0    0 -0.28847010657E+03  0.46305657506E+03  0.25380066688E+04  0.25966424501E+04  0.58632489767E+02 0.  0.
        254    2    1    2    0    0  0.28847010657E+03 -0.46305657506E+03  0.13569982365E+03  0.10496877491E+04  0.88644996164E+03 0.  0.
        -24    2    4    4    0    0  0.57782922150E+03 -0.33100656821E+03 -0.51111884225E+02  0.67238856200E+03  0.77730278420E+02 0.  0.
         24    2    4    4    0    0 -0.28935911494E+03 -0.13205000685E+03  0.18681170788E+03  0.37729918714E+03  0.79310533433E+02 0.  0.
         13    1    3    3    0    0 -0.25440390826E+03  0.36997061096E+03  0.21232946094E+04  0.21702487415E+04  0.00000000000E+00 0. -1.
        -13    1    3    3    0    0 -0.34066198303E+02  0.93085964100E+02  0.41471205937E+03  0.42639370864E+03  0.00000000000E+00 0.  1.
          2    1    6    6  502    0 -0.24055504228E+03 -0.13983632808E+03  0.15466913863E+03  0.31834489074E+03  0.00000000000E+00 0. -1.
          3    1    5    5  503    0  0.40177953885E+03 -0.20328797857E+03 -0.62471562587E+02  0.45459377053E+03  0.00000000000E+00 0. -1.
         -4    1    5    5    0  503  0.17604968265E+03 -0.12771858964E+03  0.11359678362E+02  0.21779479147E+03  0.00000000000E+00 0.  1.
         -1    1    6    6    0  502 -0.48804072659E+02  0.77863212327E+01  0.32142569246E+02  0.58954296401E+02  0.00000000000E+00 0.  1.
<mgrwt>
<rscale>  0 0.24793180E+04</rscale>
<asrwt>0</asrwt>
<pdfrwt beam="1">  1        2 0.48615666E+00 0.24793180E+04</pdfrwt>
<pdfrwt beam="2">  1       -2 0.74817210E-01 0.24793180E+04</pdfrwt>
<totfact> 0.19757601E+00</totfact>
</mgrwt>
</event>
<event>
12    1  0.1114484E-007  0.1686024E+04  0.7818608E-02  0.8769376E-01
          1   -1    0    0  501    0  0.00000000000E+00  0.00000000000E+00  0.13350951712E+04  0.13350951712E+04  0.00000000000E+00 0. -1.
         -1   -1    0    0    0  501 -0.00000000000E+00 -0.00000000000E+00 -0.53229825659E+03  0.53229825659E+03  0.00000000000E+00 0.  1.
         23    2    1    2    0    0  0.11419481603E+03  0.50150037819E+03  0.25819653051E+03  0.58242068133E+03  0.89472433401E+02 0.  0.
        254    2    1    2    0    0 -0.11419481603E+03 -0.50150037819E+03  0.54460038408E+03  0.12849727464E+04  0.10440413284E+04 0.  0.
        -24    2    4    4    0    0 -0.22713663625E+03  0.27944045233E+03  0.20894901713E+03  0.42377663869E+03  0.79050172769E+02 0.  0.
         24    2    4    4    0    0  0.11294182022E+03 -0.78094083052E+03  0.33565136696E+03  0.86119610775E+03  0.79827691522E+02 0.  0.
         11    1    3    3    0    0  0.95314996576E+02  0.41464479101E+03  0.17295888413E+03  0.45927119100E+03  0.00000000000E+00 0. -1.
        -11    1    3    3    0    0  0.18879819450E+02  0.86855587175E+02  0.85237646382E+02  0.12314949032E+03  0.00000000000E+00 0.  1.
          4    1    6    6  502    0  0.78221173710E+01 -0.21194940460E+03  0.60941710803E+02  0.22067538998E+03  0.00000000000E+00 0. -1.
          1    1    5    5  503    0 -0.13015313085E+03  0.16662747374E+03  0.16634463516E+03  0.26902618854E+03  0.00000000000E+00 0. -1.
         -2    1    5    5    0  503 -0.96983505404E+02  0.11281297859E+03  0.42604381970E+02  0.15475045015E+03  0.00000000000E+00 0.  1.
         -3    1    6    6    0  502  0.10511970285E+03 -0.56899142592E+03  0.27470965615E+03  0.64052071777E+03  0.00000000000E+00 0.  1.
<mgrwt>
<rscale>  0 0.16860235E+04</rscale>
<asrwt>0</asrwt>
<pdfrwt beam="1">  1        1 0.20539926E+00 0.16860235E+04</pdfrwt>
<pdfrwt beam="2">  1       -1 0.81892040E-01 0.16860235E+04</pdfrwt>
<totfact> 0.12071288E+01</totfact>
</mgrwt>
</event>
<event>
12    1  0.1114484E-007  0.2113838E+04  0.7818608E-02  0.8555172E-01
          2   -1    0    0  501    0  0.00000000000E+00  0.00000000000E+00  0.48294128103E+03  0.48294128103E+03  0.00000000000E+00 0.  1.
         -2   -1    0    0    0  501 -0.00000000000E+00 -0.00000000000E+00 -0.23130721167E+04  0.23130721167E+04  0.00000000000E+00 0. -1.
         23    2    1    2    0    0 -0.49865703860E+03  0.37887488658E+03  0.40306608910E+02  0.63420012376E+03  0.91543172523E+02 0.  0.
        254    2    1    2    0    0  0.49865703860E+03 -0.37887488658E+03 -0.18704374445E+04  0.21618132739E+04  0.88470072657E+03 0.  0.
        -24    2    4    4    0    0  0.18502992451E+03  0.27808223666E+03 -0.72521995185E+03  0.80241989446E+03  0.79799155123E+02 0.  0.
         24    2    4    4    0    0  0.31362711409E+03 -0.65695712324E+03 -0.11452174927E+04  0.13593933795E+04  0.80452632759E+02 0.  0.
         13    1    3    3    0    0 -0.10729313621E+02  0.11522478871E+02 -0.13956441824E+02  0.21039675817E+02  0.00000000000E+00 0. -1.
        -13    1    3    3    0    0 -0.48792772498E+03  0.36735240771E+03  0.54263050734E+02  0.61316044795E+03  0.00000000000E+00 0.  1.
          2    1    6    6  502    0  0.38011476650E+02 -0.11680061943E+03 -0.24363406826E+03  0.27284577379E+03  0.00000000000E+00 0. -1.
          3    1    5    5  503    0  0.12107236851E+02  0.85774978191E+01 -0.88289020115E+02  0.89527145190E+02  0.00000000000E+00 0. -1.
         -4    1    5    5    0  503  0.17292268766E+03  0.26950473884E+03 -0.63693093174E+03  0.71289274927E+03  0.00000000000E+00 0.  1.
         -1    1    6    6    0  502  0.27561563744E+03 -0.54015650382E+03 -0.90158342442E+03  0.10865476057E+04  0.00000000000E+00 0.  1.
<mgrwt>
<rscale>  0 0.21138382E+04</rscale>
<asrwt>0</asrwt>
<pdfrwt beam="1">  1        2 0.74298658E-01 0.21138382E+04</pdfrwt>
<pdfrwt beam="2">  1       -2 0.35585725E+00 0.21138382E+04</pdfrwt>
<totfact> 0.84476472E-01</totfact>
</mgrwt>
</event>
<event>
12    1  0.1114484E-007  0.1496731E+04  0.7818608E-02  0.8886630E-01
         -2   -1    0    0    0  501 -0.00000000000E+00  0.00000000000E+00  0.37721905467E+03  0.37721905467E+03  0.00000000000E+00 0.  1.
          2   -1    0    0  501    0  0.00000000000E+00 -0.00000000000E+00 -0.14846838606E+04  0.14846838606E+04  0.00000000000E+00 0. -1.
         23    2    1    2    0    0  0.15266987654E+03 -0.42602775949E+03 -0.18445189892E+03  0.49703668330E+03  0.90637842356E+02 0.  0.
        254    2    1    2    0    0 -0.15266987654E+03  0.42602775949E+03 -0.92301290704E+03  0.13648662320E+04  0.89783030784E+03 0.  0.
        -24    2    4    4    0    0 -0.24039066674E+03  0.65915622148E+03 -0.82217113152E+03  0.10837662268E+04  0.79430900225E+02 0.  0.
         24    2    4    4    0    0  0.87720790201E+02 -0.23312846199E+03 -0.10084177552E+03  0.28110000520E+03  0.82488377431E+02 0.  0.
         13    1    3    3    0    0  0.69998251846E+02 -0.15012128718E+03 -0.11227609522E+03  0.20010516656E+03  0.00000000000E+00 0. -1.
        -13    1    3    3    0    0  0.82671624691E+02 -0.27590647231E+03 -0.72175803708E+02  0.29693151674E+03  0.00000000000E+00 0.  1.
          4    1    6    6  502    0 -0.17888953945E+01  0.15944764376E+00  0.82572846791E+01  0.84503444045E+01  0.00000000000E+00 0. -1.
          3    1    5    5  503    0 -0.53665027196E+02  0.10324413589E+03 -0.99577354540E+02  0.15315004498E+03  0.00000000000E+00 0. -1.
         -4    1    5    5    0  503 -0.18672563954E+03  0.55591208559E+03 -0.72259377698E+03  0.93061618184E+03  0.00000000000E+00 0.  1.
         -3    1    6    6    0  502  0.89509685595E+02 -0.23328790963E+03 -0.10909906020E+03  0.27264966080E+03  0.00000000000E+00 0.  1.
<mgrwt>
<rscale>  0 0.14967312E+04</rscale>
<asrwt>0</asrwt>
<pdfrwt beam="1">  1        2 0.22841290E+00 0.14967312E+04</pdfrwt>
<pdfrwt beam="2">  1       -2 0.58033701E-01 0.14967312E+04</pdfrwt>
<totfact> 0.34768762E+01</totfact>
</mgrwt>
</event>
<event>
12    1  0.1114484E-007  0.2463036E+04  0.7818608E-02  0.8416274E-01
         -3   -1    0    0    0  501 -0.00000000000E+00  0.00000000000E+00  0.15156264814E+04  0.15156264814E+04  0.00000000000E+00 0.  1.
          3   -1    0    0  501    0  0.00000000000E+00 -0.00000000000E+00 -0.10006665140E+04  0.10006665140E+04  0.00000000000E+00 0. -1.
         23    2    1    2    0    0 -0.92436650505E+02 -0.61524408593E+03  0.11058889833E+04  0.12722083243E+04  0.91944317590E+02 0.  0.
        254    2    1    2    0    0  0.92436650505E+02  0.61524408593E+03 -0.59092901585E+03  0.12440846711E+04  0.90082170680E+03 0.  0.
        -24    2    4    4    0    0  0.36439135722E+03  0.69110961846E+03 -0.52141386281E+03  0.94236230131E+03  0.75899437871E+02 0.  0.
         24    2    4    4    0    0 -0.27195470671E+03 -0.75865532525E+02 -0.69515153035E+02  0.30172236978E+03  0.80554890569E+02 0.  0.
         13    1    3    3    0    0  0.13578752059E+02 -0.78556370936E+02  0.17842248732E+03  0.19542279781E+03  0.00000000000E+00 0. -1.
        -13    1    3    3    0    0 -0.10601540256E+03 -0.53668771499E+03  0.92746649597E+03  0.10767855265E+04  0.00000000000E+00 0.  1.
          2    1    6    6  502    0 -0.21121677802E+01 -0.48353256200E+01  0.10234857061E+02  0.11514943580E+02  0.00000000000E+00 0. -1.
          3    1    5    5  503    0  0.93918759383E+02  0.19841538437E+03 -0.10805203262E+03  0.24467251556E+03  0.00000000000E+00 0. -1.
         -4    1    5    5    0  503  0.27047259783E+03  0.49269423408E+03 -0.41336183020E+03  0.69768978575E+03  0.00000000000E+00 0.  1.
         -1    1    6    6    0  502 -0.26984253893E+03 -0.71030206905E+02 -0.79750010096E+02  0.29020742620E+03  0.00000000000E+00 0.  1.
<mgrwt>
<rscale>  0 0.24630361E+04</rscale>
<asrwt>0</asrwt>
<pdfrwt beam="1">  1        3 0.15394869E+00 0.24630361E+04</pdfrwt>
<pdfrwt beam="2">  1       -3 0.23317330E+00 0.24630361E+04</pdfrwt>
<totfact> 0.64672872E-02</totfact>
</mgrwt>
</event>
<event>
12    1  0.1114484E-007  0.2295965E+04  0.7818608E-02  0.8479514E-01
          2   -1    0    0  501    0  0.00000000000E+00  0.00000000000E+00  0.11371583200E+04  0.11371583200E+04  0.00000000000E+00 0. -1.
         -2   -1    0    0    0  501 -0.00000000000E+00 -0.00000000000E+00 -0.11589099262E+04  0.11589099262E+04  0.00000000000E+00 0.  1.
         23    2    1    2    0    0  0.50626602613E+02  0.92380667389E+03 -0.29818994858E+03  0.97649208849E+03  0.92939387923E+02 0.  0.
        254    2    1    2    0    0 -0.50626602613E+02 -0.92380667389E+03  0.27643834234E+03  0.13195761577E+04  0.89937826032E+03 0.  0.
        -24    2    4    4    0    0  0.39013185255E+03 -0.65693219917E+03  0.18094965930E+03  0.78918158281E+03  0.79385230133E+02 0.  0.
         24    2    4    4    0    0 -0.44075845516E+03 -0.26687447472E+03  0.95488683041E+02  0.53039457485E+03  0.81916514789E+02 0.  0.
         11    1    3    3    0    0  0.50646590362E+02  0.78982396494E+03 -0.22038791618E+03  0.82155815759E+03  0.00000000000E+00 0. -1.
        -11    1    3    3    0    0 -0.19987749058E-01  0.13398270896E+03 -0.77802032398E+02  0.15493393090E+03  0.00000000000E+00 0.  1.
          4    1    6    6  502    0 -0.10447499481E+03 -0.25650217045E+02  0.26960984691E+02  0.11090470175E+03  0.00000000000E+00 0. -1.
          1    1    5    5  503    0  0.37665664330E+03 -0.62668993019E+03  0.15575305713E+03  0.74757575560E+03  0.00000000000E+00 0. -1.
         -2    1    5    5    0  503  0.13475209245E+02 -0.30242268979E+02  0.25196602170E+02  0.41605827214E+02  0.00000000000E+00 0.  1.
         -3    1    6    6    0  502 -0.33628346035E+03 -0.24122425767E+03  0.68527698351E+02  0.41948987310E+03  0.00000000000E+00 0.  1.
<mgrwt>
<rscale>  0 0.22959652E+04</rscale>
<asrwt>0</asrwt>
<pdfrwt beam="1">  1        2 0.17494743E+00 0.22959652E+04</pdfrwt>
<pdfrwt beam="2">  1       -2 0.17829383E+00 0.22959652E+04</pdfrwt>
<totfact> 0.34930476E+00</totfact>
</mgrwt>
</event>
<event>
12    1  0.1114484E-007  0.1582847E+04  0.7818608E-02  0.8831155E-01
          2   -1    0    0  501    0  0.00000000000E+00  0.00000000000E+00  0.53924015308E+03  0.53924015308E+03  0.00000000000E+00 0. -1.
         -2   -1    0    0    0  501 -0.00000000000E+00 -0.00000000000E+00 -0.11615446710E+04  0.11615446710E+04  0.00000000000E+00 0.  1.
         23    2    1    2    0    0  0.26988735174E+03  0.44207550673E+03 -0.92946638639E+02  0.53373360128E+03  0.89233083710E+02 0.  0.
        254    2    1    2    0    0 -0.26988735174E+03 -0.44207550673E+03 -0.52935787932E+03  0.11670512228E+04  0.90195280144E+03 0.  0.
        -24    2    4    4    0    0 -0.59081898420E+03 -0.37199974357E+03 -0.35686137049E+03  0.78823018845E+03  0.80659227217E+02 0.  0.
         24    2    4    4    0    0  0.32093163245E+03 -0.70075763156E+02 -0.17249650883E+03  0.37882103438E+03  0.76436936344E+02 0.  0.
         11    1    3    3    0    0  0.24518716340E+03  0.43108863593E+03 -0.75737948548E+02  0.50168754616E+03  0.00000000000E+00 0. -1.
        -11    1    3    3    0    0  0.24700188348E+02  0.10986870792E+02 -0.17208690090E+02  0.32046055121E+02  0.00000000000E+00 0.  1.
          2    1    6    6  502    0  0.10018203358E+03 -0.21956062321E+02 -0.15567619049E+02  0.10373456169E+03  0.00000000000E+00 0. -1.
          1    1    5    5  503    0 -0.89767277345E+02 -0.27020052284E+02 -0.60295217306E+02  0.11146192416E+03  0.00000000000E+00 0. -1.
         -2    1    5    5    0  503 -0.50105170685E+03 -0.34497969129E+03 -0.29656615318E+03  0.67676826429E+03  0.00000000000E+00 0.  1.
         -1    1    6    6    0  502  0.22074959887E+03 -0.48119700835E+02 -0.15692888978E+03  0.27508647269E+03  0.00000000000E+00 0.  1.
<mgrwt>
<rscale>  0 0.15828475E+04</rscale>
<asrwt>0</asrwt>
<pdfrwt beam="1">  1        2 0.82960025E-01 0.15828475E+04</pdfrwt>
<pdfrwt beam="2">  1       -2 0.17869918E+00 0.15828475E+04</pdfrwt>
<totfact> 0.10007482E+01</totfact>
</mgrwt>
</event>
<event>
12    1  0.1114484E-007  0.1934395E+04  0.7818608E-02  0.8637923E-01
          2   -1    0    0  501    0  0.00000000000E+00  0.00000000000E+00  0.22089959852E+04  0.22089959852E+04  0.00000000000E+00 0. -1.
         -2   -1    0    0    0  501 -0.00000000000E+00 -0.00000000000E+00 -0.42348225888E+03  0.42348225888E+03  0.00000000000E+00 0.  1.
         23    2    1    2    0    0 -0.21095864862E+03 -0.71726390063E+03  0.85678764979E+03  0.11408998615E+04  0.92716570990E+02 0.  0.
        254    2    1    2    0    0  0.21095864862E+03  0.71726390063E+03  0.92872607655E+03  0.14915783826E+04  0.89627166172E+03 0.  0.
        -24    2    4    4    0    0  0.53410800683E+03  0.61353444915E+03  0.62597884397E+03  0.10296529880E+04  0.81485454588E+02 0.  0.
         24    2    4    4    0    0 -0.32314935821E+03  0.10372945148E+03  0.30274723258E+03  0.46192539462E+03  0.80832397875E+02 0.  0.
         11    1    3    3    0    0 -0.83153905072E+02 -0.20515848544E+03  0.20023309492E+03  0.29849266051E+03  0.00000000000E+00 0. -1.
        -11    1    3    3    0    0 -0.12780474355E+03 -0.51210541520E+03  0.65655455487E+03  0.84240720099E+03  0.00000000000E+00 0.  1.
          2    1    6    6  502    0 -0.24282959791E+03  0.10404436964E+03  0.19913389481E+03  0.33082586437E+03  0.00000000000E+00 0. -1.
          1    1    5    5  503    0  0.46263199593E+03  0.55232266806E+03  0.52392783150E+03  0.89083616110E+03  0.00000000000E+00 0. -1.
         -2    1    5    5    0  503  0.71476010901E+02  0.61211781093E+02  0.10205101247E+03  0.13881682688E+03  0.00000000000E+00 0.  1.
         -1    1    6    6    0  502 -0.80319760302E+02 -0.31491816036E+00  0.10361333777E+03  0.13109953025E+03  0.00000000000E+00 0.  1.
<mgrwt>
<rscale>  0 0.19343946E+04</rscale>
<asrwt>0</asrwt>
<pdfrwt beam="1">  1        2 0.33984553E+00 0.19343946E+04</pdfrwt>
<pdfrwt beam="2">  1       -2 0.65151118E-01 0.19343946E+04</pdfrwt>
<totfact> 0.10356275E+01</totfact>
</mgrwt>
</event>
<event>
12    1  0.1114484E-007  0.1348321E+04  0.7818608E-02  0.8992100E-01
          2   -1    0    0  501    0  0.00000000000E+00  0.00000000000E+00  0.10212339711E+04  0.10212339711E+04  0.00000000000E+00 0. -1.
         -2   -1    0    0    0  501 -0.00000000000E+00 -0.00000000000E+00 -0.44504240294E+03  0.44504240294E+03  0.00000000000E+00 0.  1.
         23    2    1    2    0    0  0.34501538740E+03  0.81546722174E+02  0.10374925255E+03  0.38059355438E+03  0.91662755737E+02 0.  0.
        254    2    1    2    0    0 -0.34501538740E+03 -0.81546722174E+02  0.47244231564E+03  0.10856828197E+04  0.91094454163E+03 0.  0.
        -24    2    4    4    0    0 -0.47844040289E+02 -0.32131567929E+03  0.59023588274E+03  0.67853535132E+03  0.80616423676E+02 0.  0.
         24    2    4    4    0    0 -0.29717134711E+03  0.23976895712E+03 -0.11779356710E+03  0.40714746837E+03  0.78062630052E+02 0.  0.
         13    1    3    3    0    0  0.11266217744E+03  0.88725656285E+01 -0.68015347149E+01  0.11321550035E+03  0.00000000000E+00 0. -1.
        -13    1    3    3    0    0  0.23235320997E+03  0.72674156546E+02  0.11055078726E+03  0.26737805403E+03  0.00000000000E+00 0.  1.
          2    1    6    6  502    0 -0.51143526370E+02  0.77107400421E+02 -0.97354669431E+01  0.93037577386E+02  0.00000000000E+00 0. -1.
          1    1    5    5  503    0 -0.45703838482E+02 -0.18425717428E+03  0.26867370865E+03  0.32897584842E+03  0.00000000000E+00 0. -1.
         -2    1    5    5    0  503 -0.21402018075E+01 -0.13705850501E+03  0.32156217409E+03  0.34955950290E+03  0.00000000000E+00 0.  1.
         -1    1    6    6    0  502 -0.24602782074E+03  0.16266155669E+03 -0.10805810016E+03  0.31410989099E+03  0.00000000000E+00 0.  1.
<mgrwt>
<rscale>  0 0.13483211E+04</rscale>
<asrwt>0</asrwt>
<pdfrwt beam="1">  1        2 0.15711292E+00 0.13483211E+04</pdfrwt>
<pdfrwt beam="2">  1       -2 0.68468062E-01 0.13483211E+04</pdfrwt>
<totfact> 0.46533032E+01</totfact>
</mgrwt>
</event>
<event>
12    1  0.1114484E-007  0.1373767E+04  0.7818608E-02  0.8973030E-01
         -1   -1    0    0    0  501 -0.00000000000E+00  0.00000000000E+00  0.69137752675E+03  0.69137752675E+03  0.00000000000E+00 0.  1.
          1   -1    0    0  501    0  0.00000000000E+00 -0.00000000000E+00 -0.68241824358E+03  0.68241824358E+03  0.00000000000E+00 0. -1.
         23    2    1    2    0    0  0.90856775923E+02 -0.34029542981E+03 -0.14514524409E+03  0.39242490946E+03  0.94203154961E+02 0.  0.
        254    2    1    2    0    0 -0.90856775923E+02  0.34029542981E+03  0.15410452726E+03  0.98137086087E+03  0.90293113136E+03 0.  0.
        -24    2    4    4    0    0 -0.37487413715E+03 -0.12606863900E+03 -0.21669110941E+02  0.40219819465E+03  0.69784790372E+02 0.  0.
         24    2    4    4    0    0  0.28401736123E+03  0.46636406880E+03  0.17577363820E+03  0.57917266622E+03  0.79895552225E+02 0.  0.
         13    1    3    3    0    0  0.10001169326E+03 -0.24892314472E+03 -0.80354268504E+02  0.28003906733E+03  0.00000000000E+00 0. -1.
        -13    1    3    3    0    0 -0.91549173333E+01 -0.91372285083E+02 -0.64790975588E+02  0.11238584213E+03  0.00000000000E+00 0.  1.
          2    1    6    6  502    0  0.23183968457E+03  0.39888013500E+03  0.17621346951E+03  0.49386859413E+03  0.00000000000E+00 0. -1.
          3    1    5    5  503    0 -0.19605214470E+03 -0.10230047438E+03 -0.78956964471E+01  0.22127849538E+03  0.00000000000E+00 0. -1.
         -4    1    5    5    0  503 -0.17882199246E+03 -0.23768164619E+02 -0.13773414494E+02  0.18091969927E+03  0.00000000000E+00 0.  1.
         -3    1    6    6    0  502  0.52177676664E+02  0.67483933804E+02 -0.43983130541E+00  0.85304072091E+02  0.00000000000E+00 0.  1.
<mgrwt>
<rscale>  0 0.13737666E+04</rscale>
<asrwt>0</asrwt>
<pdfrwt beam="1">  1        1 0.10498742E+00 0.13737666E+04</pdfrwt>
<pdfrwt beam="2">  1       -1 0.10636577E+00 0.13737666E+04</pdfrwt>
<totfact> 0.22862883E+01</totfact>
</mgrwt>
</event>
<event>
12    1  0.1114484E-007  0.1426129E+04  0.7818608E-02  0.8935120E-01
         -2   -1    0    0    0  501 -0.00000000000E+00  0.00000000000E+00  0.27718800180E+03  0.27718800180E+03  0.00000000000E+00 0.  1.
          2   -1    0    0  501    0  0.00000000000E+00 -0.00000000000E+00 -0.18343530673E+04  0.18343530673E+04  0.00000000000E+00 0. -1.
         23    2    1    2    0    0  0.26934895784E+03 -0.28681493611E+03 -0.24019606016E+03  0.46935507895E+03  0.88251765750E+02 0.  0.
        254    2    1    2    0    0 -0.26934895784E+03  0.28681493611E+03 -0.13169690053E+04  0.16421859901E+04  0.89864108326E+03 0.  0.
        -24    2    4    4    0    0 -0.99143517759E+02 -0.26653049001E+03 -0.83125235919E+03  0.88211168647E+03  0.79199769719E+02 0.  0.
         24    2    4    4    0    0 -0.17020544008E+03  0.55334542612E+03 -0.48571664612E+03  0.76007430365E+03  0.81432391011E+02 0.  0.
         13    1    3    3    0    0  0.52669721374E+02 -0.78301917424E+02 -0.19534850129E+02  0.96368564332E+02  0.00000000000E+00 0. -1.
        -13    1    3    3    0    0  0.21667923647E+03 -0.20851301868E+03 -0.22066121003E+03  0.37298651462E+03  0.00000000000E+00 0.  1.
          4    1    6    6  502    0  0.80305172080E+01  0.44466984428E+02 -0.43729218288E+02  0.62881208980E+02  0.00000000000E+00 0. -1.
          1    1    5    5  503    0 -0.10946698369E+03 -0.22803945430E+03 -0.67446096216E+03  0.72033506281E+03  0.00000000000E+00 0. -1.
         -2    1    5    5    0  503  0.10323465935E+02 -0.38491035709E+02 -0.15679139703E+03  0.16177662365E+03  0.00000000000E+00 0.  1.
         -3    1    6    6    0  502 -0.17823595729E+03  0.50887844169E+03 -0.44198742783E+03  0.69719309467E+03  0.00000000000E+00 0.  1.
<mgrwt>
<rscale>  0 0.14261286E+04</rscale>
<asrwt>0</asrwt>
<pdfrwt beam="1">  1        2 0.28220815E+00 0.14261286E+04</pdfrwt>
<pdfrwt beam="2">  1       -2 0.42644310E-01 0.14261286E+04</pdfrwt>
<totfact> 0.41824223E+01</totfact>
</mgrwt>
</event>
<event>
12    1  0.1114484E-007  0.2065225E+04  0.7818608E-02  0.8576719E-01
          2   -1    0    0  501    0  0.00000000000E+00  0.00000000000E+00  0.14393266466E+04  0.14393266466E+04  0.00000000000E+00 0. -1.
         -2   -1    0    0    0  501 -0.00000000000E+00 -0.00000000000E+00 -0.74082477676E+03  0.74082477676E+03  0.00000000000E+00 0.  1.
         23    2    1    2    0    0 -0.34703409017E+03  0.71679145482E+03  0.52940016654E+03  0.96048155916E+03  0.89652884600E+02 0.  0.
        254    2    1    2    0    0  0.34703409017E+03 -0.71679145482E+03  0.16910170329E+03  0.12196698642E+04  0.90817208838E+03 0.  0.
        -24    2    4    4    0    0  0.15306671120E+03  0.27731599365E+02 -0.27544361611E+03  0.32757897591E+03  0.85090188153E+02 0.  0.
         24    2    4    4    0    0  0.19396737897E+03 -0.74452305419E+03  0.44454531940E+03  0.89209088828E+03  0.79168741556E+02 0.  0.
         11    1    3    3    0    0 -0.29857532151E+03  0.61344928432E+03  0.48902168289E+03  0.83941018184E+03  0.00000000000E+00 0.  1.
        -11    1    3    3    0    0 -0.48458768661E+02  0.10334217051E+03  0.40378483648E+02  0.12107137732E+03  0.00000000000E+00 0. -1.
          2    1    6    6  502    0  0.86940198834E+02 -0.34009612806E+03  0.24847438551E+03  0.43007382477E+03  0.00000000000E+00 0. -1.
          3    1    5    5  503    0  0.46331951523E+02 -0.59985900582E+01 -0.24392512654E+02  0.52703201878E+02  0.00000000000E+00 0. -1.
         -4    1    5    5    0  503  0.10673475967E+03  0.33730189423E+02 -0.25105110345E+03  0.27487577403E+03  0.00000000000E+00 0.  1.
         -1    1    6    6    0  502  0.10702718014E+03 -0.40442692613E+03  0.19607093389E+03  0.46201706352E+03  0.00000000000E+00 0.  1.
<mgrwt>
<rscale>  0 0.20652253E+04</rscale>
<asrwt>0</asrwt>
<pdfrwt beam="1">  1        2 0.22143487E+00 0.20652253E+04</pdfrwt>
<pdfrwt beam="2">  1       -2 0.11397304E+00 0.20652253E+04</pdfrwt>
<totfact> 0.76549869E+00</totfact>
</mgrwt>
</event>
<event>
12    1  0.1114484E-007  0.1499183E+04  0.7818608E-02  0.8884997E-01
          2   -1    0    0  501    0  0.00000000000E+00  0.00000000000E+00  0.10622257627E+04  0.10622257627E+04  0.00000000000E+00 0. -1.
         -2   -1    0    0    0  501 -0.00000000000E+00 -0.00000000000E+00 -0.52897148319E+03  0.52897148319E+03  0.00000000000E+00 0.  1.
         23    2    1    2    0    0 -0.47059878765E+03 -0.19950022467E+02  0.21290690949E+03  0.52376443513E+03  0.84490289745E+02 0.  0.
        254    2    1    2    0    0  0.47059878765E+03  0.19950022467E+02  0.32034737000E+03  0.10674328108E+04  0.90273426083E+03 0.  0.
        -24    2    4    4    0    0  0.29081896811E+03  0.39540136931E+03 -0.54284644904E+02  0.50052907874E+03  0.81637129576E+02 0.  0.
         24    2    4    4    0    0  0.17977981953E+03 -0.37545134685E+03  0.37463201490E+03  0.56690373201E+03  0.88012484431E+02 0.  0.
         11    1    3    3    0    0 -0.40238473845E+03  0.79265216047E+01  0.16024645474E+03  0.43319191329E+03  0.00000000000E+00 0. -1.
        -11    1    3    3    0    0 -0.68214049196E+02 -0.27876544072E+02  0.52660454747E+02  0.90572521833E+02  0.00000000000E+00 0.  1.
          4    1    6    6  502    0  0.15039492805E+03 -0.34770067815E+03  0.30483817879E+03  0.48625169534E+03  0.00000000000E+00 0. -1.
          1    1    5    5  503    0  0.23632395849E+03  0.30164349691E+03 -0.98126220874E+01  0.38331984052E+03  0.00000000000E+00 0. -1.
         -2    1    5    5    0  503  0.54495009629E+02  0.93757872399E+02 -0.44472022816E+02  0.11720923822E+03  0.00000000000E+00 0.  1.
         -3    1    6    6    0  502  0.29384891480E+02 -0.27750668699E+02  0.69793836109E+02  0.80652036672E+02  0.00000000000E+00 0.  1.
<mgrwt>
<rscale>  0 0.14991826E+04</rscale>
<asrwt>0</asrwt>
<pdfrwt beam="1">  1        2 0.16341935E+00 0.14991826E+04</pdfrwt>
<pdfrwt beam="2">  1       -2 0.81380229E-01 0.14991826E+04</pdfrwt>
<totfact> 0.29561015E+01</totfact>
</mgrwt>
</event>
<event>
12    1  0.1114484E-007  0.1222324E+04  0.7818608E-02  0.9093538E-01
         -4   -1    0    0    0  501 -0.00000000000E+00  0.00000000000E+00  0.60595616665E+03  0.60595616665E+03  0.00000000000E+00 0.  1.
          4   -1    0    0  501    0  0.00000000000E+00 -0.00000000000E+00 -0.61641263550E+03  0.61641263550E+03  0.00000000000E+00 0. -1.
         23    2    1    2    0    0  0.23515395718E+03  0.11484059229E+03 -0.56678767950E+02  0.28327444384E+03  0.92445565509E+02 0.  0.
        254    2    1    2    0    0 -0.23515395718E+03 -0.11484059229E+03  0.46222299097E+02  0.93909435830E+03  0.90070859197E+03 0.  0.
        -24    2    4    4    0    0  0.12903725982E+02 -0.48046028539E+03 -0.45620066309E+01  0.48739897123E+03  0.80798225667E+02 0.  0.
         24    2    4    4    0    0 -0.24805768317E+03  0.36561969310E+03  0.50784305728E+02  0.45169538707E+03  0.78989257715E+02 0.  0.
         13    1    3    3    0    0  0.16880906316E+03  0.10494376237E+03 -0.54058087198E+01  0.19884394844E+03  0.00000000000E+00 0. -1.
        -13    1    3    3    0    0  0.66344894022E+02  0.98968299252E+01 -0.51272959230E+02  0.84430495401E+02  0.00000000000E+00 0.  1.
          2    1    6    6  502    0 -0.41045935814E+02  0.43141062269E+02 -0.18334846679E+02  0.62306393759E+02  0.00000000000E+00 0. -1.
          3    1    5    5  503    0 -0.88836592538E+01 -0.15130405374E+03 -0.36748170119E+02  0.15595596842E+03  0.00000000000E+00 0. -1.
         -4    1    5    5    0  503  0.21787385236E+02 -0.32915623165E+03  0.32186163489E+02  0.33144300281E+03  0.00000000000E+00 0.  1.
         -1    1    6    6    0  502 -0.20701174735E+03  0.32247863083E+03  0.69119152407E+02  0.38938899331E+03  0.00000000000E+00 0.  1.
<mgrwt>
<rscale>  0 0.12223241E+04</rscale>
<asrwt>0</asrwt>
<pdfrwt beam="1">  1        4 0.94832714E-01 0.12223241E+04</pdfrwt>
<pdfrwt beam="2">  1       -4 0.93224025E-01 0.12223241E+04</pdfrwt>
<totfact> 0.17937592E+00</totfact>
</mgrwt>
</event>
<event>
12    1  0.1114484E-007  0.2403007E+04  0.7818608E-02  0.8438379E-01
         -2   -1    0    0    0  501 -0.00000000000E+00  0.00000000000E+00  0.45402303085E+03  0.45402303085E+03  0.00000000000E+00 0.  1.
          2   -1    0    0  501    0  0.00000000000E+00 -0.00000000000E+00 -0.31795984948E+04  0.31795984948E+04  0.00000000000E+00 0. -1.
         23    2    1    2    0    0  0.68815410288E+03 -0.11258257880E+02 -0.23399861735E+04  0.24407810060E+04  0.90519663933E+02 0.  0.
        254    2    1    2    0    0 -0.68815410288E+03  0.11258257880E+02 -0.38558929043E+03  0.11928405196E+04  0.89471033671E+03 0.  0.
        -24    2    4    4    0    0 -0.69626355311E+03 -0.32667194194E+03 -0.33343037437E+03  0.84238250751E+03  0.83276535494E+02 0.  0.
         24    2    4    4    0    0  0.81094502281E+01  0.33793019982E+03 -0.52158916056E+02  0.35045801209E+03  0.76404728790E+02 0.  0.
         11    1    3    3    0    0  0.64003557247E+03 -0.33590667887E+02 -0.21446088118E+04  0.22383299181E+04  0.00000000000E+00 0. -1.
        -11    1    3    3    0    0  0.48118530416E+02  0.22332410007E+02 -0.19537736173E+03  0.20245108788E+03  0.00000000000E+00 0.  1.
          2    1    6    6  502    0 -0.11454457956E+01 -0.40493058080E+01 -0.21235434846E+01  0.47136355956E+01  0.00000000000E+00 0. -1.
          1    1    5    5  503    0 -0.52629329824E+02 -0.21804971502E+01 -0.26240030496E+02  0.58848450498E+02  0.00000000000E+00 0. -1.
         -2    1    5    5    0  503 -0.64363422329E+03 -0.32449144479E+03 -0.30719034388E+03  0.78353405701E+03  0.00000000000E+00 0.  1.
         -1    1    6    6    0  502  0.92548960237E+01  0.34197950562E+03 -0.50035372572E+02  0.34574437649E+03  0.00000000000E+00 0.  1.
<mgrwt>
<rscale>  0 0.24030072E+04</rscale>
<asrwt>0</asrwt>
<pdfrwt beam="1">  1        2 0.48916900E+00 0.24030072E+04</pdfrwt>
<pdfrwt beam="2">  1       -2 0.69849697E-01 0.24030072E+04</pdfrwt>
<totfact> 0.22469890E+00</totfact>
</mgrwt>
</event>
<event>
12    1  0.1114484E-007  0.1347664E+04  0.7818608E-02  0.8992599E-01
         -2   -1    0    0    0  501 -0.00000000000E+00  0.00000000000E+00  0.43188958274E+03  0.43188958274E+03  0.00000000000E+00 0.  1.
          2   -1    0    0  501    0  0.00000000000E+00 -0.00000000000E+00 -0.10513086609E+04  0.10513086609E+04  0.00000000000E+00 0. -1.
         23    2    1    2    0    0  0.40220257989E+02  0.23308378403E+03 -0.47675688376E+03  0.54003570744E+03  0.91628159284E+02 0.  0.
        254    2    1    2    0    0 -0.40220257989E+02 -0.23308378403E+03 -0.14266219442E+03  0.94316253622E+03  0.90180782236E+03 0.  0.
        -24    2    4    4    0    0 -0.75337913308E+02  0.33765439053E+03 -0.48210165097E+02  0.35822419846E+03  0.79461108181E+02 0.  0.
         24    2    4    4    0    0  0.35117655319E+02 -0.57073817457E+03 -0.94452029322E+02  0.58493833776E+03  0.79097152379E+02 0.  0.
         13    1    3    3    0    0 -0.17151426762E+02  0.91996841691E+02 -0.24939344779E+03  0.26637320083E+03  0.00000000000E+00 0.  1.
        -13    1    3    3    0    0  0.57371684750E+02  0.14108694234E+03 -0.22736343596E+03  0.27366250661E+03  0.00000000000E+00 0. -1.
          4    1    6    6  502    0  0.80837121583E+01 -0.49526281605E+03 -0.96954629683E+02  0.50472844538E+03  0.00000000000E+00 0. -1.
          3    1    5    5  503    0  0.14543868385E+02  0.25618550571E+02  0.25019308231E+01  0.29565079043E+02  0.00000000000E+00 0. -1.
         -4    1    5    5    0  503 -0.89881781693E+02  0.31203583996E+03 -0.50712095920E+02  0.32865911941E+03  0.00000000000E+00 0.  1.
         -3    1    6    6    0  502  0.27033943161E+02 -0.75475358520E+02  0.25026003615E+01  0.80209892377E+02  0.00000000000E+00 0.  1.
<mgrwt>
<rscale>  0 0.13476635E+04</rscale>
<asrwt>0</asrwt>
<pdfrwt beam="1">  1        2 0.16173979E+00 0.13476635E+04</pdfrwt>
<pdfrwt beam="2">  1       -2 0.66444551E-01 0.13476635E+04</pdfrwt>
<totfact> 0.47530758E+01</totfact>
</mgrwt>
</event>
<event>
12    1  0.1114484E-007  0.2334533E+04  0.7818608E-02  0.8464428E-01
          1   -1    0    0  501    0  0.00000000000E+00  0.00000000000E+00  0.31136251168E+04  0.31136251168E+04  0.00000000000E+00 0. -1.
         -1   -1    0    0    0  501 -0.00000000000E+00 -0.00000000000E+00 -0.43759634531E+03  0.43759634531E+03  0.00000000000E+00 0.  1.
         23    2    1    2    0    0  0.20125130618E+03 -0.96469022818E+03  0.13322701966E+04  0.16599747837E+04  0.97175518106E+02 0.  0.
        254    2    1    2    0    0 -0.20125130618E+03  0.96469022818E+03  0.13437585748E+04  0.18912466783E+04  0.89442583048E+03 0.  0.
        -24    2    4    4    0    0  0.11169873540E+03  0.41267724459E+03  0.11397320409E+04  0.12198487946E+04  0.79138112901E+02 0.  0.
         24    2    4    4    0    0 -0.31295004158E+03  0.55201298359E+03  0.20402653395E+03  0.67139788374E+03  0.80574370326E+02 0.  0.
         11    1    3    3    0    0  0.13460643885E+03 -0.67407488224E+03  0.85248633695E+03  0.10950930531E+04  0.00000000000E+00 0. -1.
        -11    1    3    3    0    0  0.66644867328E+02 -0.29061534594E+03  0.47978385965E+03  0.56488173065E+03  0.00000000000E+00 0.  1.
          2    1    6    6  502    0 -0.25937578972E+03  0.44955159076E+03  0.13328776813E+03  0.53585264969E+03  0.00000000000E+00 0. -1.
          1    1    5    5  503    0  0.26930540377E+02  0.23601032423E+03  0.67106742094E+03  0.71186909653E+03  0.00000000000E+00 0. -1.
         -2    1    5    5    0  503  0.84768195025E+02  0.17666692036E+03  0.46866461996E+03  0.50797969805E+03  0.00000000000E+00 0.  1.
         -1    1    6    6    0  502 -0.53574251867E+02  0.10246139283E+03  0.70738765817E+02  0.13554523405E+03  0.00000000000E+00 0.  1.
<mgrwt>
<rscale>  0 0.23345329E+04</rscale>
<asrwt>0</asrwt>
<pdfrwt beam="1">  1        1 0.47901924E+00 0.23345329E+04</pdfrwt>
<pdfrwt beam="2">  1       -1 0.67322516E-01 0.23345329E+04</pdfrwt>
<totfact> 0.99369017E-01</totfact>
</mgrwt>
</event>
<event>
12    1  0.1114484E-007  0.1351752E+04  0.7818608E-02  0.8989503E-01
         -1   -1    0    0    0  501 -0.00000000000E+00  0.00000000000E+00  0.91004029493E+03  0.91004029493E+03  0.00000000000E+00 0.  1.
          1   -1    0    0  501    0  0.00000000000E+00 -0.00000000000E+00 -0.50196513355E+03  0.50196513355E+03  0.00000000000E+00 0. -1.
         23    2    1    2    0    0 -0.92326331730E+01  0.20989917084E+03 -0.20143867143E+03  0.30470542478E+03  0.90138527344E+02 0.  0.
        254    2    1    2    0    0  0.92326331730E+01 -0.20989917084E+03  0.60951383281E+03  0.11073000037E+04  0.90025734232E+03 0.  0.
        -24    2    4    4    0    0  0.39821836279E+03  0.94811812832E+02  0.34422200625E+03  0.54076289288E+03  0.79803335839E+02 0.  0.
         24    2    4    4    0    0 -0.38898572962E+03 -0.30471098367E+03  0.26529182656E+03  0.56653711083E+03  0.80161482619E+02 0.  0.
         13    1    3    3    0    0  0.24470914310E+02  0.90493684962E+02 -0.13386835781E+03  0.16342787365E+03  0.00000000000E+00 0. -1.
        -13    1    3    3    0    0 -0.33703547483E+02  0.11940548587E+03 -0.67570313619E+02  0.14127755113E+03  0.00000000000E+00 0.  1.
          4    1    6    6  502    0 -0.14899341109E+03 -0.92751255260E+02  0.56879940982E+02  0.18449162471E+03  0.00000000000E+00 0. -1.
          3    1    5    5  503    0  0.14230122345E+03 -0.47390761621E+01  0.12251932179E+03  0.18783791217E+03  0.00000000000E+00 0. -1.
         -4    1    5    5    0  503  0.25591713934E+03  0.99550888994E+02  0.22170268446E+03  0.35292498070E+03  0.00000000000E+00 0.  1.
         -3    1    6    6    0  502 -0.23999231853E+03 -0.21195972841E+03  0.20841188558E+03  0.38204548612E+03  0.00000000000E+00 0.  1.
<mgrwt>
<rscale>  0 0.13517522E+04</rscale>
<asrwt>0</asrwt>
<pdfrwt beam="1">  1        1 0.77225405E-01 0.13517522E+04</pdfrwt>
<pdfrwt beam="2">  1       -1 0.14000620E+00 0.13517522E+04</pdfrwt>
<totfact> 0.18084929E+01</totfact>
</mgrwt>
</event>
<event>
12    1  0.1114484E-007  0.1984260E+04  0.7818608E-02  0.8614015E-01
          1   -1    0    0  501    0  0.00000000000E+00  0.00000000000E+00  0.26230660427E+04  0.26230660427E+04  0.00000000000E+00 0. -1.
         -1   -1    0    0    0  501 -0.00000000000E+00 -0.00000000000E+00 -0.37525619554E+03  0.37525619554E+03  0.00000000000E+00 0.  1.
         23    2    1    2    0    0  0.70638526202E+03  0.34048916733E+03  0.98093295122E+03  0.12579872282E+04  0.73412533912E+02 0.  0.
        254    2    1    2    0    0 -0.70638526202E+03 -0.34048916733E+03  0.12668768959E+04  0.17403350100E+04  0.89937526437E+03 0.  0.
        -24    2    4    4    0    0 -0.11485563648E+03 -0.19719197720E+03 -0.84449332715E+02  0.25608731635E+03  0.79828132240E+02 0.  0.
         24    2    4    4    0    0 -0.59152962554E+03 -0.14329719013E+03  0.13513262287E+04  0.14842476937E+04  0.80419259583E+02 0.  0.
         13    1    3    3    0    0  0.50975865833E+03  0.26162260108E+03  0.76135371743E+03  0.95286922407E+03  0.00000000000E+00 0.  1.
        -13    1    3    3    0    0  0.19662660369E+03  0.78866566246E+02  0.21957923379E+03  0.30511800416E+03  0.00000000000E+00 0. -1.
          2    1    6    6  502    0 -0.25142468191E+03 -0.84385264905E+02  0.66719951834E+03  0.71797662976E+03  0.00000000000E+00 0. -1.
          3    1    5    5  503    0 -0.89241248921E+02 -0.81033275666E+02 -0.24991725772E+02  0.12310555890E+03  0.00000000000E+00 0. -1.
         -4    1    5    5    0  503 -0.25614387554E+02 -0.11615870153E+03 -0.59457606944E+02  0.13298175745E+03  0.00000000000E+00 0.  1.
         -1    1    6    6    0  502 -0.34010494363E+03 -0.58911925227E+02  0.68412671031E+03  0.76627106391E+03  0.00000000000E+00 0.  1.
<mgrwt>
<rscale>  0 0.19842598E+04</rscale>
<asrwt>0</asrwt>
<pdfrwt beam="1">  1        1 0.40354861E+00 0.19842598E+04</pdfrwt>
<pdfrwt beam="2">  1       -1 0.57731724E-01 0.19842598E+04</pdfrwt>
<totfact> 0.31409076E+00</totfact>
</mgrwt>
</event>
<event>
12    1  0.1114484E-007  0.2673359E+04  0.7818608E-02  0.8343701E-01
         -2   -1    0    0    0  501 -0.00000000000E+00  0.00000000000E+00  0.25890318881E+04  0.25890318881E+04  0.00000000000E+00 0.  1.
          2   -1    0    0  501    0  0.00000000000E+00 -0.00000000000E+00 -0.69010800304E+03  0.69010800304E+03  0.00000000000E+00 0. -1.
         23    2    1    2    0    0 -0.98987930262E+03  0.29139998069E+03  0.13135796213E+03  0.10437752111E+04  0.86236851556E+02 0.  0.
        254    2    1    2    0    0  0.98987930262E+03 -0.29139998069E+03  0.17675659229E+04  0.22353646800E+04  0.89877192790E+03 0.  0.
        -24    2    4    4    0    0  0.18565990708E+03  0.30125618684E+03  0.40318328580E+03  0.54238643711E+03  0.80008712057E+02 0.  0.
         24    2    4    4    0    0  0.80421939554E+03 -0.59265616753E+03  0.13643826371E+04  0.16929782429E+04  0.81395217740E+02 0.  0.
         13    1    3    3    0    0 -0.70855334178E+03  0.23767105806E+03  0.67992615213E+02  0.75043878212E+03  0.00000000000E+00 0. -1.
        -13    1    3    3    0    0 -0.28132596084E+03  0.53728922627E+02  0.63365346918E+02  0.29333642897E+03  0.00000000000E+00 0.  1.
          2    1    6    6  502    0  0.17618244188E+03 -0.15628806471E+03  0.27677527950E+03  0.36341541979E+03  0.00000000000E+00 0. -1.
          3    1    5    5  503    0  0.13268385285E+03  0.14790355493E+03  0.19444582566E+03  0.27801015357E+03  0.00000000000E+00 0. -1.
         -4    1    5    5    0  503  0.52976054231E+02  0.15335263191E+03  0.20873746014E+03  0.26437628354E+03  0.00000000000E+00 0.  1.
         -1    1    6    6    0  502  0.62803695366E+03 -0.43636810282E+03  0.10876073576E+04  0.13295628231E+04  0.00000000000E+00 0.  1.
<mgrwt>
<rscale>  0 0.26733587E+04</rscale>
<asrwt>0</asrwt>
<pdfrwt beam="1">  1        2 0.10617046E+00 0.26733587E+04</pdfrwt>
<pdfrwt beam="2">  1       -2 0.39831259E+00 0.26733587E+04</pdfrwt>
<totfact> 0.27920202E-01</totfact>
</mgrwt>
</event>
<event>
12    1  0.1114484E-007  0.1556327E+04  0.7818608E-02  0.8847836E-01
         -1   -1    0    0    0  501 -0.00000000000E+00  0.00000000000E+00  0.77816851630E+03  0.77816851630E+03  0.00000000000E+00 0.  1.
          1   -1    0    0  501    0  0.00000000000E+00 -0.00000000000E+00 -0.77815892192E+03  0.77815892192E+03  0.00000000000E+00 0. -1.
         23    2    1    2    0    0  0.56924415837E+02 -0.97561590128E+02 -0.49618653368E+03  0.51697644763E+03  0.91131323973E+02 0.  0.
        254    2    1    2    0    0 -0.56924415837E+02  0.97561590128E+02  0.49619612806E+03  0.10393509906E+04  0.90624567924E+03 0.  0.
        -24    2    4    4    0    0 -0.17336521572E+03  0.23199641235E+03 -0.16982581184E+03  0.34548397501E+03  0.81489491702E+02 0.  0.
         24    2    4    4    0    0  0.11644079988E+03 -0.13443482222E+03  0.66602193990E+03  0.69386701557E+03  0.78962203420E+02 0.  0.
         13    1    3    3    0    0  0.14823127503E+02  0.15340990126E+02 -0.42396926318E+02  0.47461252072E+02  0.00000000000E+00 0.  1.
        -13    1    3    3    0    0  0.42101288334E+02 -0.11290258025E+03 -0.45378960736E+03  0.46951519555E+03  0.00000000000E+00 0. -1.
          2    1    6    6  502    0  0.98820226756E+02 -0.13766127765E+03  0.52399484510E+03  0.55071468318E+03  0.00000000000E+00 0. -1.
          3    1    5    5  503    0 -0.15640388013E+03  0.22248785392E+03 -0.13058071484E+03  0.30168583319E+03  0.00000000000E+00 0. -1.
         -4    1    5    5    0  503 -0.16961335590E+02  0.95085584379E+01 -0.39245097003E+02  0.43798141825E+02  0.00000000000E+00 0.  1.
         -1    1    6    6    0  502  0.17620573125E+02  0.32264554259E+01  0.14202709480E+03  0.14315233239E+03  0.00000000000E+00 0.  1.
<mgrwt>
<rscale>  0 0.15563274E+04</rscale>
<asrwt>0</asrwt>
<pdfrwt beam="1">  1        1 0.11971676E+00 0.15563274E+04</pdfrwt>
<pdfrwt beam="2">  1       -1 0.11971823E+00 0.15563274E+04</pdfrwt>
<totfact> 0.13860710E+01</totfact>
</mgrwt>
</event>
<event>
12    1  0.1114484E-007  0.1826744E+04  0.7818608E-02  0.8692205E-01
          2   -1    0    0  501    0  0.00000000000E+00  0.00000000000E+00  0.19370089099E+04  0.19370089099E+04  0.00000000000E+00 0. -1.
         -2   -1    0    0    0  501 -0.00000000000E+00 -0.00000000000E+00 -0.43068897268E+03  0.43068897268E+03  0.00000000000E+00 0.  1.
         23    2    1    2    0    0  0.11775960480E+03  0.23299520642E+03  0.13948581369E+04  0.14220076257E+04  0.91227050068E+02 0.  0.
        254    2    1    2    0    0 -0.11775960480E+03 -0.23299520642E+03  0.11146180024E+03  0.94569025683E+03  0.90208216822E+03 0.  0.
        -24    2    4    4    0    0  0.12149702899E+03 -0.17777703116E+03  0.45844000450E+03  0.51315508090E+03  0.82429960977E+02 0.  0.
         24    2    4    4    0    0 -0.23925663379E+03 -0.55218175259E+02 -0.34697820425E+03  0.43253517593E+03  0.80000128137E+02 0.  0.
         13    1    3    3    0    0  0.64749798307E+01  0.10951408582E+03  0.60140277230E+03  0.61132688055E+03  0.00000000000E+00 0.  1.
        -13    1    3    3    0    0  0.11128462496E+03  0.12348112060E+03  0.79345536464E+03  0.81068074517E+03  0.00000000000E+00 0. -1.
          4    1    6    6  502    0 -0.17770883748E+03 -0.34102153159E+02 -0.18888121652E+03  0.26157121730E+03  0.00000000000E+00 0. -1.
          3    1    5    5  503    0  0.12141793848E+03 -0.11664750835E+03  0.35715303231E+03  0.39485091551E+03  0.00000000000E+00 0. -1.
         -4    1    5    5    0  503  0.79090513689E-01 -0.61129522807E+02  0.10128697218E+03  0.11830416539E+03  0.00000000000E+00 0.  1.
         -3    1    6    6    0  502 -0.61547796310E+02 -0.21116022099E+02 -0.15809698773E+03  0.17096395863E+03  0.00000000000E+00 0.  1.
<mgrwt>
<rscale>  0 0.18267440E+04</rscale>
<asrwt>0</asrwt>
<pdfrwt beam="1">  1        2 0.29800137E+00 0.18267440E+04</pdfrwt>
<pdfrwt beam="2">  1       -2 0.66259843E-01 0.18267440E+04</pdfrwt>
<totfact> 0.14289951E+01</totfact>
</mgrwt>
</event>
<event>
12    1  0.1114484E-007  0.1129036E+04  0.7818608E-02  0.9177344E-01
         -1   -1    0    0    0  501 -0.00000000000E+00  0.00000000000E+00  0.39154521275E+03  0.39154521275E+03  0.00000000000E+00 0.  1.
          1   -1    0    0  501    0  0.00000000000E+00 -0.00000000000E+00 -0.81390519643E+03  0.81390519643E+03  0.00000000000E+00 0. -1.
         23    2    1    2    0    0  0.30627657209E+02  0.83113398175E+02  0.10140325091E+03  0.16116920632E+03  0.88583313483E+02 0.  0.
        254    2    1    2    0    0 -0.30627657209E+02 -0.83113398175E+02 -0.52376323460E+03  0.10442812029E+04  0.89908254037E+03 0.  0.
        -24    2    4    4    0    0  0.15243072817E+02  0.16975997298E+03  0.19846120166E+03  0.27363549819E+03  0.80241744821E+02 0.  0.
         24    2    4    4    0    0 -0.45870730026E+02 -0.25287337115E+03 -0.72222443625E+03  0.77064570467E+03  0.78978478670E+02 0.  0.
         13    1    3    3    0    0  0.58690679359E+02  0.33691353808E+02  0.46208726275E+02  0.81944795740E+02  0.00000000000E+00 0.  1.
        -13    1    3    3    0    0 -0.28063022150E+02  0.49422044367E+02  0.55194524636E+02  0.79224410578E+02  0.00000000000E+00 0. -1.
          2    1    6    6  502    0 -0.45523420645E+02 -0.25881549004E+03 -0.70250002994E+03  0.75004275330E+03  0.00000000000E+00 0. -1.
          3    1    5    5  503    0 -0.29519538725E+02  0.77533077358E+02  0.65271355534E+02  0.10556103024E+03  0.00000000000E+00 0. -1.
         -4    1    5    5    0  503  0.44762611542E+02  0.92226895619E+02  0.13318984612E+03  0.16807446795E+03  0.00000000000E+00 0.  1.
         -3    1    6    6    0  502 -0.34730938128E+00  0.59421188895E+01 -0.19724406313E+02  0.20602951368E+02  0.00000000000E+00 0.  1.
<mgrwt>
<rscale>  0 0.11290362E+04</rscale>
<asrwt>0</asrwt>
<pdfrwt beam="1">  1        1 0.12521618E+00 0.11290362E+04</pdfrwt>
<pdfrwt beam="2">  1       -1 0.60237725E-01 0.11290362E+04</pdfrwt>
<totfact> 0.59768332E+01</totfact>
</mgrwt>
</event>
<event>
12    1  0.1114484E-007  0.1890712E+04  0.7818608E-02  0.8659493E-01
         -1   -1    0    0    0  501 -0.00000000000E+00  0.00000000000E+00  0.28565294726E+03  0.28565294726E+03  0.00000000000E+00 0.  1.
          1   -1    0    0  501    0  0.00000000000E+00 -0.00000000000E+00 -0.31286157351E+04  0.31286157351E+04  0.00000000000E+00 0. -1.
         23    2    1    2    0    0 -0.56049743711E+03 -0.33275795422E+03 -0.16696511730E+04  0.17947268378E+04  0.91783166423E+02 0.  0.
        254    2    1    2    0    0  0.56049743711E+03  0.33275795422E+03 -0.11733116148E+04  0.16195418446E+04  0.90629487903E+03 0.  0.
        -24    2    4    4    0    0  0.38896925266E+03  0.29844040453E+03 -0.72633135670E+02  0.50212921174E+03  0.80587953955E+02 0.  0.
         24    2    4    4    0    0  0.17152818445E+03  0.34317549690E+02 -0.11006784792E+04  0.11174126328E+04  0.80735774345E+02 0.  0.
         11    1    3    3    0    0 -0.51458657081E+03 -0.27308569610E+03 -0.14980149681E+04  0.16073033257E+04  0.00000000000E+00 0. -1.
        -11    1    3    3    0    0 -0.45910866296E+02 -0.59672258117E+02 -0.17163620488E+03  0.18742351202E+03  0.00000000000E+00 0.  1.
          2    1    6    6  502    0  0.16228712984E+03  0.40315207510E+02 -0.83897316551E+03  0.85547554080E+03  0.00000000000E+00 0. -1.
          1    1    5    5  503    0  0.32350508243E+03  0.24549873117E+03 -0.28596147774E+02  0.40711534610E+03  0.00000000000E+00 0. -1.
         -2    1    5    5    0  503  0.65464170231E+02  0.52941673353E+02 -0.44036987896E+02  0.95013865644E+02  0.00000000000E+00 0.  1.
         -1    1    6    6    0  502  0.92410546116E+01 -0.59976578202E+01 -0.26170531367E+03  0.26193709205E+03  0.00000000000E+00 0.  1.
<mgrwt>
<rscale>  0 0.18907124E+04</rscale>
<asrwt>0</asrwt>
<pdfrwt beam="1">  1        1 0.48132552E+00 0.18907124E+04</pdfrwt>
<pdfrwt beam="2">  1       -1 0.43946606E-01 0.18907124E+04</pdfrwt>
<totfact> 0.23107903E+00</totfact>
</mgrwt>
</event>
<event>
12    1  0.1114484E-007  0.2409070E+04  0.7818608E-02  0.8436116E-01
          1   -1    0    0  501    0  0.00000000000E+00  0.00000000000E+00  0.19022269441E+04  0.19022269441E+04  0.00000000000E+00 0. -1.
         -1   -1    0    0    0  501 -0.00000000000E+00 -0.00000000000E+00 -0.76274023521E+03  0.76274023521E+03  0.00000000000E+00 0.  1.
         23    2    1    2    0    0 -0.33459690956E+03  0.91714677531E+03  0.89334934075E+03  0.13289239514E+04  0.12187093411E+03 0.  0.
        254    2    1    2    0    0  0.33459690956E+03 -0.91714677531E+03  0.24613736813E+03  0.13360432279E+04  0.87824518418E+03 0.  0.
        -24    2    4    4    0    0  0.36848879095E+02 -0.76351452646E+03  0.49212675784E+03  0.91286375505E+03  0.82578553472E+02 0.  0.
         24    2    4    4    0    0  0.29774803047E+03 -0.15363224885E+03 -0.24598938971E+03  0.42317947287E+03  0.79456458979E+02 0.  0.
         11    1    3    3    0    0 -0.52257172390E+02  0.11526286425E+03  0.17477068213E+03  0.21578028472E+03  0.00000000000E+00 0.  1.
        -11    1    3    3    0    0 -0.28233973717E+03  0.80188391106E+03  0.71857865862E+03  0.11131436667E+04  0.00000000000E+00 0. -1.
          2    1    6    6  502    0  0.80579622166E+02 -0.39252218890E+02 -0.25370905114E+02  0.93153073070E+02  0.00000000000E+00 0. -1.
          1    1    5    5  503    0 -0.24717419534E+02 -0.17426300405E+03  0.10071685210E+03  0.20278666058E+03  0.00000000000E+00 0. -1.
         -2    1    5    5    0  503  0.61566298628E+02 -0.58925152240E+03  0.39140990574E+03  0.71007709447E+03  0.00000000000E+00 0.  1.
         -3    1    6    6    0  502  0.21716840830E+03 -0.11438002996E+03 -0.22061848460E+03  0.33002639980E+03  0.00000000000E+00 0.  1.
<mgrwt>
<rscale>  0 0.24090704E+04</rscale>
<asrwt>0</asrwt>
<pdfrwt beam="1">  1        1 0.29265030E+00 0.24090704E+04</pdfrwt>
<pdfrwt beam="2">  1       -1 0.11734465E+00 0.24090704E+04</pdfrwt>
<totfact> 0.20323039E+00</totfact>
</mgrwt>
</event>
<event>
12    1  0.1114484E-007  0.2471568E+04  0.7818608E-02  0.8413185E-01
          2   -1    0    0  501    0  0.00000000000E+00  0.00000000000E+00  0.24816209308E+04  0.24816209308E+04  0.00000000000E+00 0. -1.
         -2   -1    0    0    0  501 -0.00000000000E+00 -0.00000000000E+00 -0.61538884705E+03  0.61538884705E+03  0.00000000000E+00 0.  1.
         23    2    1    2    0    0  0.87655917657E+02 -0.10642262821E+03 -0.51892686947E+03  0.54470700077E+03  0.91713058725E+02 0.  0.
        254    2    1    2    0    0 -0.87655917657E+02  0.10642262821E+03  0.23851589532E+04  0.25523027771E+04  0.89791809095E+03 0.  0.
        -24    2    4    4    0    0  0.22689884011E+03 -0.16532247029E+03  0.27749205068E+03  0.40260471998E+03  0.79209339955E+02 0.  0.
         24    2    4    4    0    0 -0.31455475776E+03  0.27174509849E+03  0.21076669025E+04  0.21496980571E+04  0.78433860373E+02 0.  0.
         11    1    3    3    0    0  0.10087548219E+03 -0.66706824196E+02 -0.42507275506E+03  0.44194175000E+03  0.00000000000E+00 0.  1.
        -11    1    3    3    0    0 -0.13219564531E+02 -0.39715804013E+02 -0.93854114409E+02  0.10276525077E+03  0.00000000000E+00 0. -1.
          2    1    6    6  502    0 -0.34796130650E+01  0.39150082276E+01  0.46820368186E+01  0.70254156656E+01  0.00000000000E+00 0. -1.
          3    1    5    5  503    0  0.80836113117E+02 -0.44296974031E+02  0.45081457515E+02  0.10261109542E+03  0.00000000000E+00 0. -1.
         -4    1    5    5    0  503  0.14606272699E+03 -0.12102549626E+03  0.23241059317E+03  0.29999362456E+03  0.00000000000E+00 0.  1.
         -1    1    6    6    0  502 -0.31107514470E+03  0.26783009027E+03  0.21029848657E+04  0.21426726414E+04  0.00000000000E+00 0.  1.
<mgrwt>
<rscale>  0 0.24715678E+04</rscale>
<asrwt>0</asrwt>
<pdfrwt beam="1">  1        2 0.38178783E+00 0.24715678E+04</pdfrwt>
<pdfrwt beam="2">  1       -2 0.94675209E-01 0.24715678E+04</pdfrwt>
<totfact> 0.29958354E+00</totfact>
</mgrwt>
</event>
<event>
12    1  0.1114484E-007  0.3596006E+04  0.7818608E-02  0.8091407E-01
         -2   -1    0    0    0  501 -0.00000000000E+00  0.00000000000E+00  0.13215675617E+04  0.13215675617E+04  0.00000000000E+00 0.  1.
          2   -1    0    0  501    0  0.00000000000E+00 -0.00000000000E+00 -0.24461964599E+04  0.24461964599E+04  0.00000000000E+00 0. -1.
         23    2    1    2    0    0  0.67161334010E+03  0.13472207380E+04  0.26176035572E+03  0.15310319704E+04  0.97325305188E+02 0.  0.
        254    2    1    2    0    0 -0.67161334010E+03 -0.13472207380E+04 -0.13863892540E+04  0.22367320512E+04  0.90267763344E+03 0.  0.
        -24    2    4    4    0    0  0.13335180825E+03 -0.57541593701E+03 -0.72227713553E+03  0.93639064420E+03  0.79101028497E+02 0.  0.
         24    2    4    4    0    0 -0.80496514835E+03 -0.77180480099E+03 -0.66411211847E+03  0.13003414070E+04  0.78684992561E+02 0.  0.
         13    1    3    3    0    0  0.44883118043E+03  0.88388119805E+03  0.12594129279E+03  0.99927804441E+03  0.00000000000E+00 0.  1.
        -13    1    3    3    0    0  0.22278215967E+03  0.46333953994E+03  0.13581906293E+03  0.53175392598E+03  0.00000000000E+00 0. -1.
          4    1    6    6  502    0 -0.61117253169E+03 -0.54015246876E+03 -0.47158824311E+03  0.94217409434E+03  0.00000000000E+00 0. -1.
          3    1    5    5  503    0  0.11709669697E+03 -0.41672286472E+03 -0.48042848653E+03  0.64666924551E+03  0.00000000000E+00 0. -1.
         -4    1    5    5    0  503  0.16255111285E+02 -0.15869307229E+03 -0.24184864900E+03  0.28972139869E+03  0.00000000000E+00 0.  1.
         -3    1    6    6    0  502 -0.19379261666E+03 -0.23165233223E+03 -0.19252387536E+03  0.35816731270E+03  0.00000000000E+00 0.  1.
<mgrwt>
<rscale>  0 0.35960055E+04</rscale>
<asrwt>0</asrwt>
<pdfrwt beam="1">  1        2 0.37633791E+00 0.35960055E+04</pdfrwt>
<pdfrwt beam="2">  1       -2 0.20331809E+00 0.35960055E+04</pdfrwt>
<totfact> 0.38569947E-01</totfact>
</mgrwt>
</event>
<event>
12    1  0.1114484E-007  0.1528101E+04  0.7818608E-02  0.8865978E-01
          1   -1    0    0  501    0  0.00000000000E+00  0.00000000000E+00  0.22526209796E+04  0.22526209796E+04  0.00000000000E+00 0. -1.
         -1   -1    0    0    0  501 -0.00000000000E+00 -0.00000000000E+00 -0.25915275530E+03  0.25915275530E+03  0.00000000000E+00 0.  1.
         23    2    1    2    0    0 -0.15691950988E+02  0.20334887400E+03 -0.84657324947E+02  0.23921965688E+03  0.91990106476E+02 0.  0.
        254    2    1    2    0    0  0.15691950988E+02 -0.20334887400E+03  0.20781255492E+04  0.22725540780E+04  0.89682731737E+03 0.  0.
        -24    2    4    4    0    0 -0.41273228712E+03  0.19071825266E+02  0.11293808568E+04  0.12051071524E+04  0.77913116154E+02 0.  0.
         24    2    4    4    0    0  0.42842423811E+03 -0.22242069926E+03  0.94874469244E+03  0.10674469256E+04  0.79423877627E+02 0.  0.
         11    1    3    3    0    0  0.12776423534E+02  0.40856311763E+02 -0.58039738974E+02  0.72118558703E+02  0.00000000000E+00 0.  1.
        -11    1    3    3    0    0 -0.28468374522E+02  0.16249256224E+03 -0.26617585973E+02  0.16710109818E+03  0.00000000000E+00 0. -1.
          4    1    6    6  502    0  0.13383710631E+03 -0.10992286374E+03  0.30978669316E+03  0.35491295025E+03  0.00000000000E+00 0. -1.
          1    1    5    5  503    0 -0.27084804401E+03  0.43080351695E+02  0.79864819474E+03  0.84442496328E+03  0.00000000000E+00 0. -1.
         -2    1    5    5    0  503 -0.14188424311E+03 -0.24008526429E+02  0.33073266205E+03  0.36068218909E+03  0.00000000000E+00 0.  1.
         -3    1    6    6    0  502  0.29458713179E+03 -0.11249783553E+03  0.63895799928E+03  0.71253397537E+03  0.00000000000E+00 0.  1.
<mgrwt>
<rscale>  0 0.15281007E+04</rscale>
<asrwt>0</asrwt>
<pdfrwt beam="1">  1        1 0.34655706E+00 0.15281007E+04</pdfrwt>
<pdfrwt beam="2">  1       -1 0.39869656E-01 0.15281007E+04</pdfrwt>
<totfact> 0.11876197E+01</totfact>
</mgrwt>
</event>
<event>
12    1  0.1114484E-007  0.1405925E+04  0.7818608E-02  0.8949541E-01
          2   -1    0    0  501    0  0.00000000000E+00  0.00000000000E+00  0.13930340294E+04  0.13930340294E+04  0.00000000000E+00 0. -1.
         -2   -1    0    0    0  501 -0.00000000000E+00 -0.00000000000E+00 -0.35473361831E+03  0.35473361831E+03  0.00000000000E+00 0.  1.
         23    2    1    2    0    0 -0.81569320825E+02 -0.35297922490E+03  0.75051967057E+02  0.38105763876E+03  0.91237267517E+02 0.  0.
        254    2    1    2    0    0  0.81569320825E+02  0.35297922490E+03  0.96324844407E+03  0.13667100090E+04  0.89933352898E+03 0.  0.
        -24    2    4    4    0    0 -0.16052844746E+03 -0.35806097253E+02 -0.98450688893E+02  0.20754005757E+03  0.79554247598E+02 0.  0.
         24    2    4    4    0    0  0.24209776828E+03  0.38878532215E+03  0.10616991330E+04  0.11591699514E+04  0.81881445975E+02 0.  0.
         11    1    3    3    0    0 -0.32178649682E+02 -0.47867447527E+02 -0.14094111504E+02  0.59375095850E+02  0.00000000000E+00 0. -1.
        -11    1    3    3    0    0 -0.49390671144E+02 -0.30511177737E+03  0.89146078560E+02  0.32168254291E+03  0.00000000000E+00 0.  1.
          2    1    6    6  502    0  0.31344181858E+02  0.13072329176E+02  0.92826103025E+02  0.98843456684E+02  0.00000000000E+00 0. -1.
          3    1    5    5  503    0 -0.51748154479E+02 -0.31167643327E+01  0.72919689169E+01  0.52352254227E+02  0.00000000000E+00 0. -1.
         -4    1    5    5    0  503 -0.10878029298E+03 -0.32689332920E+02 -0.10574265781E+03  0.15518780335E+03  0.00000000000E+00 0.  1.
         -1    1    6    6    0  502  0.21075358642E+03  0.37571299298E+03  0.96887302994E+03  0.10603264947E+04  0.00000000000E+00 0.  1.
<mgrwt>
<rscale>  0 0.14059246E+04</rscale>
<asrwt>0</asrwt>
<pdfrwt beam="1">  1        2 0.21431293E+00 0.14059246E+04</pdfrwt>
<pdfrwt beam="2">  1       -2 0.54574403E-01 0.14059246E+04</pdfrwt>
<totfact> 0.44885641E+01</totfact>
</mgrwt>
</event>
<event>
12    1  0.1114484E-007  0.2086548E+04  0.7818608E-02  0.8567192E-01
         -1   -1    0    0    0  501 -0.00000000000E+00  0.00000000000E+00  0.73469628305E+03  0.73469628305E+03  0.00000000000E+00 0.  1.
          1   -1    0    0  501    0  0.00000000000E+00 -0.00000000000E+00 -0.14814572505E+04  0.14814572505E+04  0.00000000000E+00 0. -1.
         23    2    1    2    0    0 -0.32920028026E+03 -0.45023846976E+02  0.52442018840E+03  0.62734480757E+03  0.90249666263E+02 0.  0.
        254    2    1    2    0    0  0.32920028026E+03  0.45023846976E+02 -0.12711811559E+04  0.15888087260E+04  0.89331498671E+03 0.  0.
        -24    2    4    4    0    0  0.66623598105E+01  0.81983846421E+02 -0.12494495149E+04  0.12550288043E+04  0.84896826643E+02 0.  0.
         24    2    4    4    0    0  0.32253792045E+03 -0.36959999444E+02 -0.21731640920E+02  0.33377992168E+03  0.74431312040E+02 0.  0.
         13    1    3    3    0    0 -0.12727172118E+03 -0.14182874455E+02  0.12622028371E+03  0.17980768882E+03  0.00000000000E+00 0. -1.
        -13    1    3    3    0    0 -0.20192855908E+03 -0.30840972521E+02  0.39819990469E+03  0.44753711874E+03  0.00000000000E+00 0.  1.
          2    1    6    6  502    0  0.31371033218E+03 -0.33063452019E+02 -0.34989378571E+02  0.31738245224E+03  0.00000000000E+00 0. -1.
          1    1    5    5  503    0  0.23096282554E+02  0.58367401802E+02 -0.11441117191E+04  0.11458323690E+04  0.00000000000E+00 0. -1.
         -2    1    5    5    0  503 -0.16433922744E+02  0.23616444619E+02 -0.10533779580E+03  0.10919643537E+03  0.00000000000E+00 0.  1.
         -1    1    6    6    0  502  0.88275882727E+01 -0.38965474252E+01  0.13257737651E+02  0.16397469444E+02  0.00000000000E+00 0.  1.
<mgrwt>
<rscale>  0 0.20865485E+04</rscale>
<asrwt>0</asrwt>
<pdfrwt beam="1">  1        1 0.22791650E+00 0.20865485E+04</pdfrwt>
<pdfrwt beam="2">  1       -1 0.11303020E+00 0.20865485E+04</pdfrwt>
<totfact> 0.44387766E+00</totfact>
</mgrwt>
</event>
<event>
12    1  0.1114484E-007  0.1796709E+04  0.7818608E-02  0.8708051E-01
          2   -1    0    0  501    0  0.00000000000E+00  0.00000000000E+00  0.47671239304E+03  0.47671239304E+03  0.00000000000E+00 0.  1.
         -2   -1    0    0    0  501 -0.00000000000E+00 -0.00000000000E+00 -0.16929307823E+04  0.16929307823E+04  0.00000000000E+00 0. -1.
         23    2    1    2    0    0  0.49905102204E+03 -0.46900179057E+02 -0.99244121531E+03  0.11155618256E+04  0.91033353838E+02 0.  0.
        254    2    1    2    0    0 -0.49905102204E+03  0.46900179057E+02 -0.22377717392E+03  0.10540813497E+04  0.89986650057E+03 0.  0.
        -24    2    4    4    0    0  0.21628530622E+03 -0.10064726098E+03 -0.19477611239E+03  0.31858579922E+03  0.81547364654E+02 0.  0.
         24    2    4    4    0    0 -0.71533632825E+03  0.14754744003E+03 -0.29001061528E+02  0.73549555049E+03  0.81463695200E+02 0.  0.
         13    1    3    3    0    0  0.10198621180E+03 -0.41375218021E+02 -0.26149630459E+03  0.28371361154E+03  0.00000000000E+00 0.  1.
        -13    1    3    3    0    0  0.39706481024E+03 -0.55249610354E+01 -0.73094491073E+03  0.83184821406E+03  0.00000000000E+00 0. -1.
          4    1    6    6  502    0 -0.21671773169E+03  0.68238856069E+02  0.20808282410E+02  0.22815806215E+03  0.00000000000E+00 0. -1.
          1    1    5    5  503    0  0.17295527619E+03 -0.90513305266E+02 -0.19230055893E+03  0.27401768366E+03  0.00000000000E+00 0. -1.
         -2    1    5    5    0  503  0.43330030023E+02 -0.10133955711E+02 -0.24755534622E+01  0.44568115566E+02  0.00000000000E+00 0.  1.
         -3    1    6    6    0  502 -0.49861859656E+03  0.79308583965E+02 -0.49809343938E+02  0.50733748834E+03  0.00000000000E+00 0.  1.
<mgrwt>
<rscale>  0 0.17967093E+04</rscale>
<asrwt>0</asrwt>
<pdfrwt beam="1">  1        2 0.73340368E-01 0.17967093E+04</pdfrwt>
<pdfrwt beam="2">  1       -2 0.26045089E+00 0.17967093E+04</pdfrwt>
<totfact> 0.34081044E+00</totfact>
</mgrwt>
</event>
<event>
12    1  0.1114484E-007  0.1915413E+04  0.7818608E-02  0.8647222E-01
          2   -1    0    0  501    0  0.00000000000E+00  0.00000000000E+00  0.76118063731E+03  0.76118063731E+03  0.00000000000E+00 0. -1.
         -2   -1    0    0    0  501 -0.00000000000E+00 -0.00000000000E+00 -0.12049727857E+04  0.12049727857E+04  0.00000000000E+00 0.  1.
         23    2    1    2    0    0 -0.12650915853E+03 -0.41907401021E+03 -0.79025243238E+03  0.90819017163E+03  0.93182013975E+02 0.  0.
        254    2    1    2    0    0  0.12650915853E+03  0.41907401021E+03  0.34646028401E+03  0.10579632514E+04  0.89867898584E+03 0.  0.
        -24    2    4    4    0    0  0.60484626413E+02 -0.12301420415E+03  0.46645292942E+03  0.49280283373E+03  0.80532062638E+02 0.  0.
         24    2    4    4    0    0  0.66024532118E+02  0.54208821436E+03 -0.11999264541E+03  0.56516041762E+03  0.82396551535E+02 0.  0.
         11    1    3    3    0    0 -0.69480042252E+02 -0.25534483257E+03 -0.56533582726E+03  0.62420594148E+03  0.00000000000E+00 0.  1.
        -11    1    3    3    0    0 -0.57029116280E+02 -0.16372917764E+03 -0.22491660512E+03  0.28398423015E+03  0.00000000000E+00 0. -1.
          4    1    6    6  502    0  0.83703392942E+02  0.42968935345E+03 -0.10689654345E+03  0.45062852712E+03  0.00000000000E+00 0. -1.
          1    1    5    5  503    0  0.52161905894E+02 -0.13031437871E+03  0.45754943764E+03  0.47859606101E+03  0.00000000000E+00 0. -1.
         -4    1    5    5    0  503  0.83227205196E+01  0.73001745546E+01  0.89034917759E+01  0.14206772722E+02  0.00000000000E+00 0.  1.
         -3    1    6    6    0  502 -0.17678860823E+02  0.11239886092E+03 -0.13096101954E+02  0.11453189050E+03  0.00000000000E+00 0.  1.
<mgrwt>
<rscale>  0 0.19154132E+04</rscale>
<asrwt>0</asrwt>
<pdfrwt beam="1">  1        2 0.11710471E+00 0.19154132E+04</pdfrwt>
<pdfrwt beam="2">  1       -2 0.18538043E+00 0.19154132E+04</pdfrwt>
<totfact> 0.57273937E+00</totfact>
</mgrwt>
</event>
<event>
12    1  0.1114484E-007  0.1582606E+04  0.7818608E-02  0.8831306E-01
          1   -1    0    0  501    0  0.00000000000E+00  0.00000000000E+00  0.44863429683E+03  0.44863429683E+03  0.00000000000E+00 0.  1.
         -1   -1    0    0    0  501 -0.00000000000E+00 -0.00000000000E+00 -0.13957034106E+04  0.13957034106E+04  0.00000000000E+00 0. -1.
         23    2    1    2    0    0  0.15011042835E+03 -0.23532877883E+03  0.20373763295E+03  0.35716645756E+03  0.90255639621E+02 0.  0.
        254    2    1    2    0    0 -0.15011042835E+03  0.23532877883E+03 -0.11508067467E+04  0.14871712499E+04  0.89967181980E+03 0.  0.
        -24    2    4    4    0    0 -0.49309864397E+03  0.82490685286E+02 -0.88821444435E+03  0.10224642875E+04  0.80977368067E+02 0.  0.
         24    2    4    4    0    0  0.34298821563E+03  0.15283809355E+03 -0.26259230239E+03  0.46470696243E+03  0.77443171168E+02 0.  0.
         11    1    3    3    0    0  0.14198407763E+03 -0.20720404680E+03  0.20979402899E+03  0.32727133988E+03  0.00000000000E+00 0.  1.
        -11    1    3    3    0    0  0.81263507189E+01 -0.28124732035E+02 -0.60563960423E+01  0.29895117679E+02  0.00000000000E+00 0. -1.
          2    1    6    6  502    0  0.34022399516E+03  0.13730846021E+03 -0.25710703734E+03  0.44800670617E+03  0.00000000000E+00 0. -1.
          1    1    5    5  503    0 -0.26953365130E+03  0.93381902984E+01 -0.51401271980E+03  0.58046935070E+03  0.00000000000E+00 0. -1.
         -2    1    5    5    0  503 -0.22356499267E+03  0.73152494987E+02 -0.37420172455E+03  0.44199493677E+03  0.00000000000E+00 0.  1.
         -1    1    6    6    0  502  0.27642204695E+01  0.15529633338E+02 -0.54852650442E+01  0.16700256257E+02  0.00000000000E+00 0.  1.
<mgrwt>
<rscale>  0 0.15826060E+04</rscale>
<asrwt>0</asrwt>
<pdfrwt beam="1">  1        1 0.69020661E-01 0.15826060E+04</pdfrwt>
<pdfrwt beam="2">  1       -1 0.21472360E+00 0.15826060E+04</pdfrwt>
<totfact> 0.58995414E+00</totfact>
</mgrwt>
</event>
<event>
12    1  0.1114484E-007  0.1426579E+04  0.7818608E-02  0.8934801E-01
          2   -1    0    0  501    0  0.00000000000E+00  0.00000000000E+00  0.10014886479E+04  0.10014886479E+04  0.00000000000E+00 0. -1.
         -2   -1    0    0    0  501 -0.00000000000E+00 -0.00000000000E+00 -0.50802589462E+03  0.50802589462E+03  0.00000000000E+00 0.  1.
         23    2    1    2    0    0 -0.39234255548E+03  0.15173373451E+03  0.12338620462E+03  0.44801048388E+03  0.92376572499E+02 0.  0.
        254    2    1    2    0    0  0.39234255548E+03 -0.15173373451E+03  0.37007654866E+03  0.10615040586E+04  0.90159769721E+03 0.  0.
        -24    2    4    4    0    0 -0.20797404998E+02 -0.44933525569E+03  0.28604362298E+03  0.53906638158E+03  0.80230327426E+02 0.  0.
         24    2    4    4    0    0  0.41313996048E+03  0.29760152119E+03  0.84032925677E+02  0.52243767706E+03  0.81414381123E+02 0.  0.
         11    1    3    3    0    0 -0.80112741251E+01  0.84508894043E+01  0.22929131230E+02  0.25716591994E+02  0.00000000000E+00 0. -1.
        -11    1    3    3    0    0 -0.38433128136E+03  0.14328284510E+03  0.10045707339E+03  0.42229389189E+03  0.00000000000E+00 0.  1.
          2    1    6    6  502    0  0.24954446454E+03  0.20024381901E+03  0.16279484711E+02  0.32036705271E+03  0.00000000000E+00 0. -1.
          1    1    5    5  503    0 -0.51725244425E+02 -0.27103388092E+03  0.17555765487E+03  0.32704029676E+03  0.00000000000E+00 0. -1.
         -2    1    5    5    0  503  0.30927839427E+02 -0.17830137477E+03  0.11048596811E+03  0.21202608483E+03  0.00000000000E+00 0.  1.
         -1    1    6    6    0  502  0.16359549594E+03  0.97357702176E+02  0.67753440965E+02  0.20207062435E+03  0.00000000000E+00 0.  1.
<mgrwt>
<rscale>  0 0.14265794E+04</rscale>
<asrwt>0</asrwt>
<pdfrwt beam="1">  1        2 0.15407518E+00 0.14265794E+04</pdfrwt>
<pdfrwt beam="2">  1       -2 0.78157830E-01 0.14265794E+04</pdfrwt>
<totfact> 0.35570410E+01</totfact>
</mgrwt>
</event>
<event>
12    1  0.1114484E-007  0.3134965E+04  0.7818608E-02  0.8206207E-01
         -2   -1    0    0    0  501 -0.00000000000E+00  0.00000000000E+00  0.92518874905E+03  0.92518874905E+03  0.00000000000E+00 0.  1.
          2   -1    0    0  501    0  0.00000000000E+00 -0.00000000000E+00 -0.26556754996E+04  0.26556754996E+04  0.00000000000E+00 0. -1.
         23    2    1    2    0    0 -0.22016312203E+03  0.12859658336E+04 -0.11274886619E+03  0.13128649918E+04  0.93393009763E+02 0.  0.
        254    2    1    2    0    0  0.22016312203E+03 -0.12859658336E+04 -0.16177378844E+04  0.22679992569E+04  0.90805552747E+03 0.  0.
        -24    2    4    4    0    0  0.33315107456E+03 -0.13757120354E+04 -0.13774802799E+04  0.19767514076E+04  0.80752480407E+02 0.  0.
         24    2    4    4    0    0 -0.11298795253E+03  0.89746201713E+02 -0.24025760447E+03  0.29124784929E+03  0.79252350578E+02 0.  0.
         11    1    3    3    0    0 -0.65725413577E+01  0.24462918477E+03 -0.10496349176E+02  0.24494246199E+03  0.00000000000E+00 0.  1.
        -11    1    3    3    0    0 -0.21359058067E+03  0.10413366489E+04 -0.10225251701E+03  0.10679225298E+04  0.00000000000E+00 0. -1.
          4    1    6    6  502    0 -0.18941090063E+01  0.24129913064E+02 -0.89989178815E+02  0.93187406109E+02  0.00000000000E+00 0. -1.
          1    1    5    5  503    0  0.11829350219E+02 -0.12520858019E+03 -0.10308089258E+03  0.16261239958E+03  0.00000000000E+00 0. -1.
         -4    1    5    5    0  503  0.32132172434E+03 -0.12505034552E+04 -0.12743993873E+04  0.18141390080E+04  0.00000000000E+00 0.  1.
         -3    1    6    6    0  502 -0.11109384352E+03  0.65616288649E+02 -0.15026842566E+03  0.19806044318E+03  0.00000000000E+00 0.  1.
<mgrwt>
<rscale>  0 0.31349648E+04</rscale>
<asrwt>0</asrwt>
<pdfrwt beam="1">  1        2 0.40856545E+00 0.31349648E+04</pdfrwt>
<pdfrwt beam="2">  1       -2 0.14233673E+00 0.31349648E+04</pdfrwt>
<totfact> 0.82139851E-01</totfact>
</mgrwt>
</event>
<event>
12    1  0.1114484E-007  0.2057004E+04  0.7818608E-02  0.8580424E-01
          2   -1    0    0  501    0  0.00000000000E+00  0.00000000000E+00  0.11020115834E+04  0.11020115834E+04  0.00000000000E+00 0. -1.
         -2   -1    0    0    0  501 -0.00000000000E+00 -0.00000000000E+00 -0.95989589055E+03  0.95989589055E+03  0.00000000000E+00 0.  1.
         23    2    1    2    0    0 -0.52928221602E+03  0.12559921749E+03 -0.62139195058E+03  0.83083014486E+03  0.90752111490E+02 0.  0.
        254    2    1    2    0    0  0.52928221602E+03 -0.12559921749E+03  0.76350764341E+03  0.12310773291E+04  0.79793022312E+03 0.  0.
        -24    2    4    4    0    0 -0.59055895392E+02 -0.11946476241E+03  0.59280548986E+03  0.61283617898E+03  0.79940010105E+02 0.  0.
         24    2    4    4    0    0  0.58833811141E+03 -0.61344550819E+01  0.17070215355E+03  0.61824115009E+03  0.83087481400E+02 0.  0.
         13    1    3    3    0    0 -0.39239039107E+03  0.73211736583E+02 -0.50475602530E+03  0.64351287668E+03  0.00000000000E+00 0. -1.
        -13    1    3    3    0    0 -0.13689182494E+03  0.52387480910E+02 -0.11663592528E+03  0.18731726818E+03  0.00000000000E+00 0.  1.
          2    1    6    6  502    0  0.54397078136E+03 -0.24251144989E+02  0.16957162368E+03  0.57030418600E+03  0.00000000000E+00 0. -1.
          3    1    5    5  503    0 -0.77306745654E+02 -0.11040017285E+03  0.52596910415E+03  0.54296227273E+03  0.00000000000E+00 0. -1.
         -4    1    5    5    0  503  0.18250850262E+02 -0.90645895634E+01  0.66836385712E+02  0.69873906248E+02  0.00000000000E+00 0.  1.
         -1    1    6    6    0  502  0.44367330046E+02  0.18116689907E+02  0.11305298639E+01  0.47936964092E+02  0.00000000000E+00 0.  1.
<mgrwt>
<rscale>  0 0.20570040E+04</rscale>
<asrwt>0</asrwt>
<pdfrwt beam="1">  1        2 0.16954024E+00 0.20570040E+04</pdfrwt>
<pdfrwt beam="2">  1       -2 0.14767629E+00 0.20570040E+04</pdfrwt>
<totfact> 0.62733787E+00</totfact>
</mgrwt>
</event>
<event>
12    1  0.1114484E-007  0.2084754E+04  0.7818608E-02  0.8567989E-01
          2   -1    0    0  501    0  0.00000000000E+00  0.00000000000E+00  0.13886275487E+04  0.13886275487E+04  0.00000000000E+00 0. -1.
         -2   -1    0    0    0  501 -0.00000000000E+00 -0.00000000000E+00 -0.78246287203E+03  0.78246287203E+03  0.00000000000E+00 0.  1.
         23    2    1    2    0    0  0.37296097715E+03  0.74922401942E+03  0.41101344304E+03  0.93686131504E+03  0.91326619864E+02 0.  0.
        254    2    1    2    0    0 -0.37296097715E+03 -0.74922401942E+03  0.19515123366E+03  0.12342291057E+04  0.88588992525E+03 0.  0.
        -24    2    4    4    0    0 -0.10842485581E+03 -0.66010801000E+02 -0.30771252848E+03  0.34224182407E+03  0.79555582798E+02 0.  0.
         24    2    4    4    0    0 -0.26453612135E+03 -0.68321321842E+03  0.50286376214E+03  0.89198728166E+03  0.77522164829E+02 0.  0.
         13    1    3    3    0    0  0.35768641357E+03  0.74358053507E+03  0.40717108668E+03  0.92013035839E+03  0.00000000000E+00 0.  1.
        -13    1    3    3    0    0  0.15274563577E+02  0.56434843502E+01  0.38423563600E+01  0.16730956652E+02  0.00000000000E+00 0. -1.
          2    1    6    6  502    0 -0.17563116771E+03 -0.43392594019E+03  0.36477227627E+03  0.59346174450E+03  0.00000000000E+00 0. -1.
          3    1    5    5  503    0 -0.93482026229E+02 -0.27206912342E+02 -0.26636939461E+03  0.28360493595E+03  0.00000000000E+00 0. -1.
         -4    1    5    5    0  503 -0.14942829576E+02 -0.38803888658E+02 -0.41343133862E+02  0.58636888119E+02  0.00000000000E+00 0.  1.
         -1    1    6    6    0  502 -0.88904953638E+02 -0.24928727823E+03  0.13809148587E+03  0.29852553716E+03  0.00000000000E+00 0.  1.
<mgrwt>
<rscale>  0 0.20847537E+04</rscale>
<asrwt>0</asrwt>
<pdfrwt beam="1">  1        2 0.21363501E+00 0.20847537E+04</pdfrwt>
<pdfrwt beam="2">  1       -2 0.12037890E+00 0.20847537E+04</pdfrwt>
<totfact> 0.71422507E+00</totfact>
</mgrwt>
</event>
<event>
12    1  0.1114484E-007  0.1453726E+04  0.7818608E-02  0.8915822E-01
          2   -1    0    0  501    0  0.00000000000E+00  0.00000000000E+00  0.83315674857E+03  0.83315674857E+03  0.00000000000E+00 0. -1.
         -2   -1    0    0    0  501 -0.00000000000E+00 -0.00000000000E+00 -0.63412984934E+03  0.63412984934E+03  0.00000000000E+00 0.  1.
         23    2    1    2    0    0  0.38913918563E+02  0.30462609944E+03  0.38205446564E+03  0.49821090317E+03  0.89090604438E+02 0.  0.
        254    2    1    2    0    0 -0.38913918563E+02 -0.30462609944E+03 -0.18302756642E+03  0.96907569474E+03  0.90072041086E+03 0.  0.
        -24    2    4    4    0    0  0.24087266996E+03  0.21183785831E+03  0.45273773683E+02  0.33402132840E+03  0.81397861757E+02 0.  0.
         24    2    4    4    0    0 -0.27978658852E+03 -0.51646395775E+03 -0.22830134010E+03  0.63505436634E+03  0.78466499437E+02 0.  0.
         11    1    3    3    0    0 -0.19404250389E+02  0.85173784478E+02  0.68184545840E+02  0.11081620273E+03  0.00000000000E+00 0.  1.
        -11    1    3    3    0    0  0.58318168953E+02  0.21945231497E+03  0.31386991980E+03  0.38739470044E+03  0.00000000000E+00 0. -1.
          4    1    6    6  502    0 -0.27949999273E+02 -0.54230561333E+02  0.69985324074E+00  0.61013490609E+02  0.00000000000E+00 0. -1.
          3    1    5    5  503    0 -0.32539606618E+01  0.19945210065E+02  0.56702641479E+01  0.20989320142E+02  0.00000000000E+00 0. -1.
         -4    1    5    5    0  503  0.24412663062E+03  0.19189264824E+03  0.39603509535E+02  0.31303200826E+03  0.00000000000E+00 0.  1.
         -3    1    6    6    0  502 -0.25183658925E+03 -0.46223339642E+03 -0.22900119334E+03  0.57404087573E+03  0.00000000000E+00 0.  1.
<mgrwt>
<rscale>  0 0.14537256E+04</rscale>
<asrwt>0</asrwt>
<pdfrwt beam="1">  1        2 0.12817796E+00 0.14537256E+04</pdfrwt>
<pdfrwt beam="2">  1       -2 0.97558438E-01 0.14537256E+04</pdfrwt>
<totfact> 0.27696452E+01</totfact>
</mgrwt>
</event>
<event>
12    1  0.1114484E-007  0.1920661E+04  0.7818608E-02  0.8644640E-01
          1   -1    0    0  501    0  0.00000000000E+00  0.00000000000E+00  0.96411298495E+03  0.96411298495E+03  0.00000000000E+00 0. -1.
         -1   -1    0    0    0  501 -0.00000000000E+00 -0.00000000000E+00 -0.95656309977E+03  0.95656309977E+03  0.00000000000E+00 0.  1.
         23    2    1    2    0    0 -0.24641669486E+03  0.56736771075E+02  0.64175273718E+03  0.69465022271E+03  0.82171208651E+02 0.  0.
        254    2    1    2    0    0  0.24641669486E+03 -0.56736771075E+02 -0.63420285201E+03  0.12260258620E+04  0.10183250503E+04 0.  0.
        -24    2    4    4    0    0 -0.37318343531E+03 -0.10389856737E+03 -0.11440790167E+03  0.41171083598E+03  0.79723621393E+02 0.  0.
         24    2    4    4    0    0  0.61960013017E+03  0.47161796293E+02 -0.51979495034E+03  0.81431502603E+03  0.82423387943E+02 0.  0.
         13    1    3    3    0    0 -0.18541191296E+03  0.87911725318E+01  0.49479812225E+03  0.52846952984E+03  0.00000000000E+00 0. -1.
        -13    1    3    3    0    0 -0.61004781895E+02  0.47945598543E+02  0.14695461494E+03  0.16618069288E+03  0.00000000000E+00 0.  1.
          4    1    6    6  502    0  0.23706297699E+03  0.37936354810E+02 -0.15585808237E+03  0.28623375747E+03  0.00000000000E+00 0. -1.
          1    1    5    5  503    0 -0.35347313876E+03 -0.80375619494E+02 -0.11700588269E+03  0.38091190138E+03  0.00000000000E+00 0. -1.
         -2    1    5    5    0  503 -0.19710296555E+02 -0.23522947873E+02  0.25979810224E+01  0.30798934597E+02  0.00000000000E+00 0.  1.
         -3    1    6    6    0  502  0.38253715318E+03  0.92254414824E+01 -0.36393686797E+03  0.52808126855E+03  0.00000000000E+00 0.  1.
<mgrwt>
<rscale>  0 0.19206612E+04</rscale>
<asrwt>0</asrwt>
<pdfrwt beam="1">  1        1 0.14832507E+00 0.19206612E+04</pdfrwt>
<pdfrwt beam="2">  1       -1 0.14716355E+00 0.19206612E+04</pdfrwt>
<totfact> 0.55405042E+00</totfact>
</mgrwt>
</event>
<event>
12    1  0.1114484E-007  0.1368869E+04  0.7818608E-02  0.8976666E-01
         -2   -1    0    0    0  501 -0.00000000000E+00  0.00000000000E+00  0.29493606330E+03  0.29493606330E+03  0.00000000000E+00 0.  1.
          2   -1    0    0  501    0  0.00000000000E+00 -0.00000000000E+00 -0.15883121931E+04  0.15883121931E+04  0.00000000000E+00 0. -1.
         23    2    1    2    0    0 -0.15039144610E+03  0.34907868596E+03 -0.42306444420E+03  0.57612609862E+03  0.92001312593E+02 0.  0.
        254    2    1    2    0    0  0.15039144610E+03 -0.34907868596E+03 -0.87031168565E+03  0.13071221578E+04  0.89813829071E+03 0.  0.
        -24    2    4    4    0    0 -0.20850274480E+03  0.85586637578E+02  0.30176005892E+02  0.24166758588E+03  0.81817868533E+02 0.  0.
         24    2    4    4    0    0  0.35889419089E+03 -0.43466532354E+03 -0.90048769154E+03  0.10654545719E+04  0.81094873539E+02 0.  0.
         11    1    3    3    0    0 -0.13896029204E+03  0.32294676587E+03 -0.34317630347E+03  0.49129884145E+03  0.00000000000E+00 0. -1.
        -11    1    3    3    0    0 -0.11431154058E+02  0.26131920099E+02 -0.79888140723E+02  0.84827257172E+02  0.00000000000E+00 0.  1.
          4    1    6    6  502    0  0.19677568844E+03 -0.29963856197E+03 -0.57190668738E+03  0.67496755363E+03  0.00000000000E+00 0. -1.
          1    1    5    5  503    0 -0.57522413365E+02  0.61977179212E+02  0.27195486770E+02  0.88823382525E+02  0.00000000000E+00 0. -1.
         -2    1    5    5    0  503 -0.15098033143E+03  0.23609458366E+02  0.29805191226E+01  0.15284420335E+03  0.00000000000E+00 0.  1.
         -3    1    6    6    0  502  0.16211850246E+03 -0.13502676157E+03 -0.32858100416E+03  0.39048701832E+03  0.00000000000E+00 0.  1.
<mgrwt>
<rscale>  0 0.13688689E+04</rscale>
<asrwt>0</asrwt>
<pdfrwt beam="1">  1        2 0.24435572E+00 0.13688689E+04</pdfrwt>
<pdfrwt beam="2">  1       -2 0.45374780E-01 0.13688689E+04</pdfrwt>
<totfact> 0.50854349E+01</totfact>
</mgrwt>
</event>
<event>
12    1  0.1114484E-007  0.1727776E+04  0.7818608E-02  0.8745679E-01
          1   -1    0    0  501    0  0.00000000000E+00  0.00000000000E+00  0.19183420970E+04  0.19183420970E+04  0.00000000000E+00 0. -1.
         -1   -1    0    0    0  501 -0.00000000000E+00 -0.00000000000E+00 -0.38903508150E+03  0.38903508150E+03  0.00000000000E+00 0.  1.
         23    2    1    2    0    0 -0.56423591633E+01  0.52013854647E+03  0.94018146622E+02  0.53641057778E+03  0.91219254085E+02 0.  0.
        254    2    1    2    0    0  0.56423591633E+01 -0.52013854647E+03  0.14352888689E+04  0.17709666008E+04  0.89760382130E+03 0.  0.
        -24    2    4    4    0    0  0.31628261184E+03  0.69951931386E+02  0.28280215960E+03  0.43705276041E+03  0.78167068834E+02 0.  0.
         24    2    4    4    0    0 -0.31064025268E+03 -0.59009047786E+03  0.11524867093E+04  0.13339138403E+04  0.79977369701E+02 0.  0.
         13    1    3    3    0    0  0.13933180583E+02  0.22244723001E+03 -0.23576812461E+01  0.22289563101E+03  0.00000000000E+00 0.  1.
        -13    1    3    3    0    0 -0.19575539746E+02  0.29769131646E+03  0.96375827868E+02  0.31351494677E+03  0.00000000000E+00 0. -1.
          2    1    6    6  502    0 -0.43697909506E+02 -0.14903977325E+03  0.24034942497E+03  0.28616465084E+03  0.00000000000E+00 0. -1.
          3    1    5    5  503    0  0.15717282075E+03 -0.51814839860E+01  0.13500344307E+03  0.20725846906E+03  0.00000000000E+00 0. -1.
         -4    1    5    5    0  503  0.15910979109E+03  0.75133415372E+02  0.14779871653E+03  0.22979429135E+03  0.00000000000E+00 0.  1.
         -1    1    6    6    0  502 -0.26694234317E+03 -0.44105070461E+03  0.91213728435E+03  0.10477491895E+04  0.00000000000E+00 0.  1.
<mgrwt>
<rscale>  0 0.17277759E+04</rscale>
<asrwt>0</asrwt>
<pdfrwt beam="1">  1        1 0.29512955E+00 0.17277759E+04</pdfrwt>
<pdfrwt beam="2">  1       -1 0.59851552E-01 0.17277759E+04</pdfrwt>
<totfact> 0.90988623E+00</totfact>
</mgrwt>
</event>
<event>
12    1  0.1114484E-007  0.3615853E+04  0.7818608E-02  0.8086870E-01
          1   -1    0    0  501    0  0.00000000000E+00  0.00000000000E+00  0.25574354449E+04  0.25574354449E+04  0.00000000000E+00 0. -1.
         -1   -1    0    0    0  501 -0.00000000000E+00 -0.00000000000E+00 -0.12780763324E+04  0.12780763324E+04  0.00000000000E+00 0.  1.
         23    2    1    2    0    0 -0.12151499521E+04 -0.10874264884E+04  0.11224408978E+03  0.16369726689E+04  0.89414816533E+02 0.  0.
        254    2    1    2    0    0  0.12151499521E+04  0.10874264884E+04  0.11671150227E+04  0.21985391084E+04  0.90129404816E+03 0.  0.
        -24    2    4    4    0    0  0.77188302479E+03  0.82200252526E+03  0.12318700182E+04  0.16719179891E+04  0.79463609306E+02 0.  0.
         24    2    4    4    0    0  0.44326692729E+03  0.26542396316E+03 -0.64754995517E+02  0.52662111926E+03  0.78747347597E+02 0.  0.
         11    1    3    3    0    0 -0.76596731419E+03 -0.64333608446E+03  0.99044416607E+02  0.10051850777E+04  0.00000000000E+00 0.  1.
        -11    1    3    3    0    0 -0.44918263789E+03 -0.44409040397E+03  0.13199673174E+02  0.63178759124E+03  0.00000000000E+00 0. -1.
          4    1    6    6  502    0  0.31239460174E+03  0.20919709257E+03 -0.16872731548E+02  0.37634890701E+03  0.00000000000E+00 0. -1.
          3    1    5    5  503    0  0.64987873574E+03  0.70912188491E+03  0.10865749308E+04  0.14511517147E+04  0.00000000000E+00 0. -1.
         -4    1    5    5    0  503  0.12200428905E+03  0.11288064035E+03  0.14529508740E+03  0.22076627445E+03  0.00000000000E+00 0.  1.
         -3    1    6    6    0  502  0.13087232555E+03  0.56226870592E+02 -0.47882263969E+02  0.15027221225E+03  0.00000000000E+00 0.  1.
<mgrwt>
<rscale>  0 0.36158527E+04</rscale>
<asrwt>0</asrwt>
<pdfrwt beam="1">  1        1 0.39345161E+00 0.36158527E+04</pdfrwt>
<pdfrwt beam="2">  1       -1 0.19662713E+00 0.36158527E+04</pdfrwt>
<totfact> 0.15853722E-01</totfact>
</mgrwt>
</event>
<event>
12    1  0.1114484E-007  0.3201432E+04  0.7818608E-02  0.8188439E-01
         -1   -1    0    0    0  501 -0.00000000000E+00  0.00000000000E+00  0.90657730325E+03  0.90657730325E+03  0.00000000000E+00 0.  1.
          1   -1    0    0  501    0  0.00000000000E+00 -0.00000000000E+00 -0.28263363819E+04  0.28263363819E+04  0.00000000000E+00 0. -1.
         23    2    1    2    0    0  0.12708516561E+03 -0.98571014033E+03 -0.21522509512E+04  0.23724109895E+04  0.91512983125E+02 0.  0.
        254    2    1    2    0    0 -0.12708516561E+03  0.98571014033E+03  0.23249187253E+03  0.13605026957E+04  0.89952209206E+03 0.  0.
        -24    2    4    4    0    0 -0.23718066555E+03 -0.31373075268E+02  0.22103126417E+03  0.33422948605E+03  0.74937251353E+02 0.  0.
         24    2    4    4    0    0  0.11009549994E+03  0.10170832156E+04  0.11460608362E+02  0.10262732096E+04  0.80784087079E+02 0.  0.
         13    1    3    3    0    0  0.67830224568E+02 -0.61709251604E+03 -0.14435619036E+04  0.15713927206E+04  0.00000000000E+00 0.  1.
        -13    1    3    3    0    0  0.59254941046E+02 -0.36861762429E+03 -0.70868904758E+03  0.80101826892E+03  0.00000000000E+00 0. -1.
          2    1    6    6  502    0  0.11759586701E+03  0.92065582032E+03 -0.50843116100E+01  0.92814965262E+03  0.00000000000E+00 0. -1.
          1    1    5    5  503    0 -0.14592394736E+03 -0.30130234056E+02  0.18134877656E+03  0.23471047735E+03  0.00000000000E+00 0. -1.
         -2    1    5    5    0  503 -0.91256718190E+02 -0.12428412119E+01  0.39682487604E+02  0.99519008695E+02  0.00000000000E+00 0.  1.
         -1    1    6    6    0  502 -0.75003670728E+01  0.96427395272E+02  0.16544919972E+02  0.98123557019E+02  0.00000000000E+00 0.  1.
<mgrwt>
<rscale>  0 0.32014324E+04</rscale>
<asrwt>0</asrwt>
<pdfrwt beam="1">  1        1 0.43482098E+00 0.32014324E+04</pdfrwt>
<pdfrwt beam="2">  1       -1 0.13947343E+00 0.32014324E+04</pdfrwt>
<totfact> 0.28242449E-01</totfact>
</mgrwt>
</event>
<event>
12    1  0.1114484E-007  0.3056279E+04  0.7818608E-02  0.8227840E-01
          1   -1    0    0  501    0  0.00000000000E+00  0.00000000000E+00  0.17883221971E+04  0.17883221971E+04  0.00000000000E+00 0. -1.
         -1   -1    0    0    0  501 -0.00000000000E+00 -0.00000000000E+00 -0.13058111075E+04  0.13058111075E+04  0.00000000000E+00 0.  1.
         23    2    1    2    0    0  0.10363334958E+04  0.34601795274E+03 -0.65481339667E+03  0.12774176909E+04  0.96435649388E+02 0.  0.
        254    2    1    2    0    0 -0.10363334958E+04 -0.34601795274E+03  0.11373244862E+04  0.18167156137E+04  0.90179437567E+03 0.  0.
        -24    2    4    4    0    0 -0.88191227790E+03 -0.17126922213E+03  0.12532520080E+04  0.15439822911E+04  0.78347349438E+02 0.  0.
         24    2    4    4    0    0 -0.15442121792E+03 -0.17474873061E+03 -0.11592752179E+03  0.27273332265E+03  0.81001503568E+02 0.  0.
         13    1    3    3    0    0  0.19464537646E+03  0.50583283172E+02 -0.81263586706E+02  0.21690841763E+03  0.00000000000E+00 0. -1.
        -13    1    3    3    0    0  0.84168811936E+03  0.29543466957E+03 -0.57354980996E+03  0.10605092733E+04  0.00000000000E+00 0.  1.
          2    1    6    6  502    0  0.64396078341E+01 -0.19832687750E+02  0.54338219683E+00  0.20859034414E+02  0.00000000000E+00 0. -1.
          3    1    5    5  503    0 -0.20780363637E+03 -0.11881183350E+02  0.26025103949E+03  0.33324783175E+03  0.00000000000E+00 0. -1.
         -4    1    5    5    0  503 -0.67410864153E+03 -0.15938803878E+03  0.99300096855E+03  0.12107344593E+04  0.00000000000E+00 0.  1.
         -1    1    6    6    0  502 -0.16086082576E+03 -0.15491604286E+03 -0.11647090399E+03  0.25187428824E+03  0.00000000000E+00 0.  1.
<mgrwt>
<rscale>  0 0.30562794E+04</rscale>
<asrwt>0</asrwt>
<pdfrwt beam="1">  1        1 0.27512649E+00 0.30562794E+04</pdfrwt>
<pdfrwt beam="2">  1       -1 0.20089402E+00 0.30562794E+04</pdfrwt>
<totfact> 0.52148781E-01</totfact>
</mgrwt>
</event>
<event>
12    1  0.1114484E-007  0.2226122E+04  0.7818608E-02  0.8507634E-01
          1   -1    0    0  501    0  0.00000000000E+00  0.00000000000E+00  0.35507130792E+04  0.35507130792E+04  0.00000000000E+00 0. -1.
         -1   -1    0    0    0  501 -0.00000000000E+00 -0.00000000000E+00 -0.34891717296E+03  0.34891717296E+03  0.00000000000E+00 0.  1.
         23    2    1    2    0    0  0.47767850760E+03  0.79571354661E+03  0.12495412968E+04  0.15591679587E+04  0.91183694708E+02 0.  0.
        254    2    1    2    0    0 -0.47767850760E+03 -0.79571354661E+03  0.19522546094E+04  0.23404622934E+04  0.89728974255E+03 0.  0.
        -24    2    4    4    0    0  0.36262085910E+02  0.14472651228E+03  0.54389519765E+03  0.56895299882E+03  0.74998844058E+02 0.  0.
         24    2    4    4    0    0 -0.51394059351E+03 -0.94044005890E+03  0.14083594117E+04  0.17715092945E+04  0.78781407156E+02 0.  0.
         13    1    3    3    0    0  0.45265100843E+03  0.70459377434E+03  0.11054140858E+04  0.13868257365E+04  0.00000000000E+00 0. -1.
        -13    1    3    3    0    0  0.25027499171E+02  0.91119772276E+02  0.14412721104E+03  0.17234222227E+03  0.00000000000E+00 0.  1.
          4    1    6    6  502    0 -0.30558076766E+03 -0.63351571037E+03  0.94083624327E+03  0.11746891493E+04  0.00000000000E+00 0. -1.
          1    1    5    5  503    0 -0.13203589846E+02  0.79370382006E+02  0.33561260152E+03  0.34512289206E+03  0.00000000000E+00 0. -1.
         -2    1    5    5    0  503  0.49465675757E+02  0.65356130277E+02  0.20828259614E+03  0.22383010677E+03  0.00000000000E+00 0.  1.
         -3    1    6    6    0  502 -0.20835982586E+03 -0.30692434852E+03  0.46752316843E+03  0.59682014524E+03  0.00000000000E+00 0.  1.
<mgrwt>
<rscale>  0 0.22261220E+04</rscale>
<asrwt>0</asrwt>
<pdfrwt beam="1">  1        1 0.54626353E+00 0.22261220E+04</pdfrwt>
<pdfrwt beam="2">  1       -1 0.53679568E-01 0.22261220E+04</pdfrwt>
<totfact> 0.72772222E-01</totfact>
</mgrwt>
</event>
<event>
12    1  0.1137521E-007  0.1393357E+04  0.7818608E-02  0.8958641E-01
          2   -1    0    0  501    0  0.00000000000E+00  0.00000000000E+00  0.18081058721E+04  0.18081058721E+04  0.00000000000E+00 0. -1.
         -2   -1    0    0    0  501 -0.00000000000E+00 -0.00000000000E+00 -0.26843601429E+03  0.26843601429E+03  0.00000000000E+00 0.  1.
         23    2    1    2    0    0 -0.28587096003E+03  0.26665431883E+03  0.23554997981E+03  0.46566695969E+03  0.92386107263E+02 0.  0.
        254    2    1    2    0    0  0.28587096003E+03 -0.26665431883E+03  0.13041198780E+04  0.16108749267E+04  0.86102418185E+03 0.  0.
        -24    2    4    4    0    0  0.13874587062E+03  0.23419451879E+03  0.10932403120E+03  0.30431873844E+03  0.80997910622E+02 0.  0.
         24    2    4    4    0    0  0.14712508941E+03 -0.50084883762E+03  0.11947958468E+04  0.13065561882E+04  0.84003615839E+02 0.  0.
         11    1    3    3    0    0 -0.59245238696E+02  0.74062087319E+02  0.16429297261E+02  0.96255456441E+02  0.00000000000E+00 0. -1.
        -11    1    3    3    0    0 -0.22662572133E+03  0.19259223152E+03  0.21912068255E+03  0.36941150325E+03  0.00000000000E+00 0.  1.
          4    1    6    6  502    0  0.15507289423E+03 -0.49094136742E+03  0.11498793626E+04  0.12598783978E+04  0.00000000000E+00 0. -1.
          3    1    5    5  503    0  0.10533844354E+03  0.22367391369E+03  0.84073563350E+02  0.26114090336E+03  0.00000000000E+00 0. -1.
         -4    1    5    5    0  503  0.33407427077E+02  0.10520605093E+02  0.25250467848E+02  0.43177835077E+02  0.00000000000E+00 0.  1.
         -3    1    6    6    0  502 -0.79478048275E+01 -0.99074701971E+01  0.44916484152E+02  0.46677790392E+02  0.00000000000E+00 0.  1.
<mgrwt>
<rscale>  0 0.13933567E+04</rscale>
<asrwt>0</asrwt>
<pdfrwt beam="1">  1        2 0.27817013E+00 0.13933567E+04</pdfrwt>
<pdfrwt beam="2">  1       -2 0.41297850E-01 0.13933567E+04</pdfrwt>
<totfact> 0.46191962E+01</totfact>
</mgrwt>
</event>
<event>
12    1  0.1114484E-007  0.1928303E+04  0.7818608E-02  0.8640895E-01
         -2   -1    0    0    0  501 -0.00000000000E+00  0.00000000000E+00  0.10078901200E+04  0.10078901200E+04  0.00000000000E+00 0.  1.
          2   -1    0    0  501    0  0.00000000000E+00 -0.00000000000E+00 -0.92231099657E+03  0.92231099657E+03  0.00000000000E+00 0. -1.
         23    2    1    2    0    0 -0.56902895500E+03  0.28584125498E+02 -0.45603603797E+03  0.73598739763E+03  0.95381222865E+02 0.  0.
        254    2    1    2    0    0  0.56902895500E+03 -0.28584125498E+02  0.54161516145E+03  0.11942137190E+04  0.89899300312E+03 0.  0.
        -24    2    4    4    0    0  0.79874978871E+03  0.54905534327E+02  0.44644865074E+03  0.92020399891E+03  0.80269291710E+02 0.  0.
         24    2    4    4    0    0 -0.22972083371E+03 -0.83489659825E+02  0.95166510702E+02  0.27400972008E+03  0.79262079205E+02 0.  0.
         13    1    3    3    0    0 -0.10172218263E+03 -0.25165264576E+02 -0.57862926507E+02  0.11970301268E+03  0.00000000000E+00 0.  1.
        -13    1    3    3    0    0 -0.46730677237E+03  0.53749390074E+02 -0.39817311146E+03  0.61628438494E+03  0.00000000000E+00 0. -1.
          2    1    6    6  502    0 -0.11501897835E+03 -0.51161594157E+01  0.63663078096E+02  0.13156187891E+03  0.00000000000E+00 0. -1.
          3    1    5    5  503    0  0.13080102381E+03  0.11190520621E+02  0.40654079017E+02  0.13742958096E+03  0.00000000000E+00 0. -1.
         -4    1    5    5    0  503  0.66794876490E+03  0.43715013705E+02  0.40579457173E+03  0.78277441795E+03  0.00000000000E+00 0.  1.
         -1    1    6    6    0  502 -0.11470185536E+03 -0.78373500409E+02  0.31503432607E+02  0.14244784117E+03  0.00000000000E+00 0.  1.
<mgrwt>
<rscale>  0 0.19283030E+04</rscale>
<asrwt>0</asrwt>
<pdfrwt beam="1">  1        2 0.14189400E+00 0.19283030E+04</pdfrwt>
<pdfrwt beam="2">  1       -2 0.15506002E+00 0.19283030E+04</pdfrwt>
<totfact> 0.72567470E+00</totfact>
</mgrwt>
</event>
<event>
12    1  0.1114484E-007  0.2537886E+04  0.7818608E-02  0.8389611E-01
         -1   -1    0    0    0  501 -0.00000000000E+00  0.00000000000E+00  0.80525746764E+03  0.80525746764E+03  0.00000000000E+00 0.  1.
          1   -1    0    0  501    0  0.00000000000E+00 -0.00000000000E+00 -0.19996298383E+04  0.19996298383E+04  0.00000000000E+00 0. -1.
         23    2    1    2    0    0 -0.42887855588E+02 -0.74560483312E+03 -0.14272479820E+04  0.16133507677E+04  0.89988678642E+02 0.  0.
        254    2    1    2    0    0  0.42887855588E+02  0.74560483312E+03  0.23287561131E+03  0.11915365382E+04  0.89875599373E+03 0.  0.
        -24    2    4    4    0    0 -0.40010210668E+03  0.53053761261E+03  0.15441183665E+03  0.68652025982E+03  0.76910322334E+02 0.  0.
         24    2    4    4    0    0  0.44298996226E+03  0.21506722051E+03  0.78463774658E+02  0.50501627842E+03  0.79942864137E+02 0.  0.
         13    1    3    3    0    0 -0.10683600836E+02 -0.72051006586E+02 -0.20305724782E+03  0.21572605955E+03  0.00000000000E+00 0.  1.
        -13    1    3    3    0    0 -0.32204254752E+02 -0.67355382654E+03 -0.12241907342E+04  0.13976247082E+04  0.00000000000E+00 0. -1.
          2    1    6    6  502    0  0.23480818845E+03  0.87850788002E+02  0.70454468637E+01  0.25080327876E+03  0.00000000000E+00 0. -1.
          1    1    5    5  503    0 -0.34511832553E+03  0.41913525534E+03  0.14481048894E+03  0.56191734142E+03  0.00000000000E+00 0. -1.
         -2    1    5    5    0  503 -0.54983781147E+02  0.11140235727E+03  0.96013477139E+01  0.12460291840E+03  0.00000000000E+00 0.  1.
         -1    1    6    6    0  502  0.20818177382E+03  0.12721643251E+03  0.71418327795E+02  0.25421299966E+03  0.00000000000E+00 0.  1.
<mgrwt>
<rscale>  0 0.25378864E+04</rscale>
<asrwt>0</asrwt>
<pdfrwt beam="1">  1        1 0.30763536E+00 0.25378864E+04</pdfrwt>
<pdfrwt beam="2">  1       -1 0.12388577E+00 0.25378864E+04</pdfrwt>
<totfact> 0.15106195E+00</totfact>
</mgrwt>
</event>
<event>
12    1  0.1114484E-007  0.1675529E+04  0.7818608E-02  0.8775446E-01
          1   -1    0    0  501    0  0.00000000000E+00  0.00000000000E+00  0.15443133776E+04  0.15443133776E+04  0.00000000000E+00 0. -1.
         -1   -1    0    0    0  501 -0.00000000000E+00 -0.00000000000E+00 -0.45447315496E+03  0.45447315496E+03  0.00000000000E+00 0.  1.
         23    2    1    2    0    0  0.31874587265E+03  0.45673911283E+03  0.62947273702E+03  0.84526275553E+03  0.89574833012E+02 0.  0.
        254    2    1    2    0    0 -0.31874587265E+03 -0.45673911283E+03  0.46036748566E+03  0.11535237771E+04  0.89914922783E+03 0.  0.
        -24    2    4    4    0    0  0.33484176563E+02 -0.64147975926E+03  0.34003169346E+03  0.73063591528E+03  0.74765075526E+02 0.  0.
         24    2    4    4    0    0 -0.35223004922E+03  0.18474064643E+03  0.12033579219E+03  0.42288786180E+03  0.78475007227E+02 0.  0.
         13    1    3    3    0    0  0.21113079666E+03  0.33763202187E+03  0.39323101303E+03  0.55964473115E+03  0.00000000000E+00 0. -1.
        -13    1    3    3    0    0  0.10761507600E+03  0.11910709096E+03  0.23624172399E+03  0.28561802438E+03  0.00000000000E+00 0.  1.
          2    1    6    6  502    0 -0.12662643968E+03  0.95190623666E+02  0.17872072536E+02  0.15942057909E+03  0.00000000000E+00 0. -1.
          3    1    5    5  503    0 -0.16047719676E+02 -0.33821986615E+03  0.19650625050E+03  0.39149063035E+03  0.00000000000E+00 0. -1.
         -4    1    5    5    0  503  0.49531896239E+02 -0.30325989311E+03  0.14352544297E+03  0.33914528493E+03  0.00000000000E+00 0.  1.
         -1    1    6    6    0  502 -0.22560360953E+03  0.89550022761E+02  0.10246371966E+03  0.26346728271E+03  0.00000000000E+00 0.  1.
<mgrwt>
<rscale>  0 0.16755285E+04</rscale>
<asrwt>0</asrwt>
<pdfrwt beam="1">  1        1 0.23758667E+00 0.16755285E+04</pdfrwt>
<pdfrwt beam="2">  1       -1 0.69918947E-01 0.16755285E+04</pdfrwt>
<totfact> 0.12020454E+01</totfact>
</mgrwt>
</event>
<event>
12    1  0.1114484E-007  0.1076794E+04  0.7818608E-02  0.9228110E-01
         -2   -1    0    0    0  501 -0.00000000000E+00  0.00000000000E+00  0.10433671646E+03  0.10433671646E+03  0.00000000000E+00 0.  1.
          2   -1    0    0  501    0  0.00000000000E+00 -0.00000000000E+00 -0.27782280743E+04  0.27782280743E+04  0.00000000000E+00 0. -1.
         23    2    1    2    0    0 -0.47391512168E+02 -0.10237291055E+03 -0.10804298223E+03  0.18155807535E+03  0.92541236625E+02 0.  0.
        254    2    1    2    0    0  0.47391512168E+02  0.10237291055E+03 -0.25658483757E+04  0.27010067155E+04  0.83614186704E+03 0.  0.
        -24    2    4    4    0    0  0.32512149211E+03  0.17700223661E+03 -0.21805204059E+04  0.22132207372E+04  0.81504690164E+02 0.  0.
         24    2    4    4    0    0 -0.27772997995E+03 -0.74629326060E+02 -0.38532796978E+03  0.48778597830E+03  0.82182956024E+02 0.  0.
         13    1    3    3    0    0 -0.35170486029E+02 -0.12013241770E+02 -0.76541551757E+02  0.85087544393E+02  0.00000000000E+00 0. -1.
        -13    1    3    3    0    0 -0.12221026139E+02 -0.90359668776E+02 -0.31501430472E+02  0.96470530956E+02  0.00000000000E+00 0.  1.
          2    1    6    6  502    0 -0.60803766309E+02 -0.53098720609E+02 -0.11523216462E+03  0.14069478985E+03  0.00000000000E+00 0. -1.
          1    1    5    5  503    0  0.12140744317E+02  0.30397365787E+02 -0.22990781655E+03  0.23222618636E+03  0.00000000000E+00 0. -1.
         -2    1    5    5    0  503  0.31298074780E+03  0.14660487082E+03 -0.19506125893E+04  0.19809945508E+04  0.00000000000E+00 0.  1.
         -1    1    6    6    0  502 -0.21692621364E+03 -0.21530605451E+02 -0.27009580516E+03  0.34709118845E+03  0.00000000000E+00 0.  1.
<mgrwt>
<rscale>  0 0.10767937E+04</rscale>
<asrwt>0</asrwt>
<pdfrwt beam="1">  1        2 0.42741974E+00 0.10767937E+04</pdfrwt>
<pdfrwt beam="2">  1       -2 0.16051801E-01 0.10767937E+04</pdfrwt>
<totfact> 0.75264703E+01</totfact>
</mgrwt>
</event>
<event>
12    1  0.1114484E-007  0.1696748E+04  0.7818608E-02  0.8763221E-01
         -2   -1    0    0    0  501 -0.00000000000E+00  0.00000000000E+00  0.13556207911E+04  0.13556207911E+04  0.00000000000E+00 0. -1.
          2   -1    0    0  501    0  0.00000000000E+00 -0.00000000000E+00 -0.53092907616E+03  0.53092907616E+03  0.00000000000E+00 0.  1.
         23    2    1    2    0    0 -0.18241831605E+03 -0.25643011513E+03  0.86615170740E+03  0.92565837364E+03  0.87130927166E+02 0.  0.
        254    2    1    2    0    0  0.18241831605E+03  0.25643011513E+03 -0.41459992460E+02  0.96089149363E+03  0.90695131379E+03 0.  0.
        -24    2    4    4    0    0 -0.18415618270E+03 -0.40302422597E+02 -0.34047254223E+03  0.39670040628E+03  0.76888721149E+02 0.  0.
         24    2    4    4    0    0  0.36657449875E+03  0.29673253773E+03  0.29901254977E+03  0.56419108735E+03  0.80473697856E+02 0.  0.
         13    1    3    3    0    0 -0.13207942120E+03 -0.13338289306E+03  0.59057322408E+03  0.61968758473E+03  0.00000000000E+00 0. -1.
        -13    1    3    3    0    0 -0.50338894848E+02 -0.12304722208E+03  0.27557848333E+03  0.30597078891E+03  0.00000000000E+00 0.  1.
          4    1    6    6  502    0  0.10525817454E+03  0.10240398076E+03  0.53250464259E+02  0.15620970049E+03  0.00000000000E+00 0. -1.
          3    1    5    5  503    0 -0.15372743733E+02 -0.27677039089E+02 -0.33066649446E+02  0.45779286236E+02  0.00000000000E+00 0. -1.
         -4    1    5    5    0  503 -0.16878343896E+03 -0.12625383508E+02 -0.30740589278E+03  0.35092112005E+03  0.00000000000E+00 0.  1.
         -3    1    6    6    0  502  0.26131632421E+03  0.19432855697E+03  0.24576208551E+03  0.40798138686E+03  0.00000000000E+00 0.  1.
<mgrwt>
<rscale>  0 0.16967481E+04</rscale>
<asrwt>0</asrwt>
<pdfrwt beam="1">  1        2 0.81681397E-01 0.16967481E+04</pdfrwt>
<pdfrwt beam="2">  1       -2 0.20855704E+00 0.16967481E+04</pdfrwt>
<totfact> 0.63856867E+00</totfact>
</mgrwt>
</event>
<event>
12    1  0.1114484E-007  0.1655912E+04  0.7818608E-02  0.8786917E-01
          2   -1    0    0  501    0  0.00000000000E+00  0.00000000000E+00  0.60069644151E+03  0.60069644151E+03  0.00000000000E+00 0. -1.
         -2   -1    0    0    0  501 -0.00000000000E+00 -0.00000000000E+00 -0.11411933882E+04  0.11411933882E+04  0.00000000000E+00 0.  1.
         23    2    1    2    0    0 -0.74985893388E+02 -0.28187380184E+03 -0.71369018075E+03  0.77877052875E+03  0.10979133835E+03 0.  0.
        254    2    1    2    0    0  0.74985893388E+02  0.28187380184E+03  0.17319323409E+03  0.96311930092E+03  0.90140288834E+03 0.  0.
        -24    2    4    4    0    0  0.76993987181E+00 -0.32033515578E+03  0.11224002681E+03  0.34841444235E+03  0.78610401214E+02 0.  0.
         24    2    4    4    0    0  0.74215953516E+02  0.60220895763E+03  0.60953207279E+02  0.61470485857E+03  0.77350716050E+02 0.  0.
         11    1    3    3    0    0  0.17681534802E+02 -0.11850111739E+02 -0.22644141768E+02  0.31077628249E+02  0.00000000000E+00 0. -1.
        -11    1    3    3    0    0 -0.92667428190E+02 -0.27002369010E+03 -0.69104603898E+03  0.74769290050E+03  0.00000000000E+00 0.  1.
          4    1    6    6  502    0  0.55841397267E+02  0.54000114974E+03  0.32437980297E+02  0.54384899185E+03  0.00000000000E+00 0. -1.
          1    1    5    5  503    0  0.76501534476E+01 -0.30278365394E+03  0.12277546755E+03  0.32681842264E+03  0.00000000000E+00 0. -1.
         -2    1    5    5    0  503 -0.68802135758E+01 -0.17551501844E+02 -0.10535440740E+02  0.21596019713E+02  0.00000000000E+00 0.  1.
         -3    1    6    6    0  502  0.18374556249E+02  0.62207807889E+02  0.28515226982E+02  0.70855866726E+02  0.00000000000E+00 0.  1.
<mgrwt>
<rscale>  0 0.16559116E+04</rscale>
<asrwt>0</asrwt>
<pdfrwt beam="1">  1        2 0.92414838E-01 0.16559116E+04</pdfrwt>
<pdfrwt beam="2">  1       -2 0.17556821E+00 0.16559116E+04</pdfrwt>
<totfact> 0.91979422E+00</totfact>
</mgrwt>
</event>
<event>
12    1  0.1114484E-007  0.5211198E+04  0.7818608E-02  0.7796729E-01
         -1   -1    0    0    0  501 -0.00000000000E+00  0.00000000000E+00  0.28643799444E+04  0.28643799444E+04  0.00000000000E+00 0.  1.
          1   -1    0    0  501    0  0.00000000000E+00 -0.00000000000E+00 -0.23701970757E+04  0.23701970757E+04  0.00000000000E+00 0. -1.
         23    2    1    2    0    0  0.20748495693E+04 -0.14224425461E+04  0.11712703585E+02  0.25173470336E+04  0.92495232007E+02 0.  0.
        254    2    1    2    0    0 -0.20748495693E+04  0.14224425461E+04  0.48247016507E+03  0.27172299865E+04  0.90676226598E+03 0.  0.
        -24    2    4    4    0    0 -0.19436959678E+04  0.12981174133E+04  0.16631869174E+03  0.23445661934E+04  0.79157398997E+02 0.  0.
         24    2    4    4    0    0 -0.13115360151E+03  0.12432513275E+03  0.31615147333E+03  0.37266379310E+03  0.79174129474E+02 0.  0.
         13    1    3    3    0    0  0.17382851277E+04 -0.11560650409E+04  0.28302590136E+02  0.20878032954E+04  0.00000000000E+00 0. -1.
        -13    1    3    3    0    0  0.33656444166E+03 -0.26637750522E+03 -0.16589886552E+02  0.42954373819E+03  0.00000000000E+00 0.  1.
          4    1    6    6  502    0 -0.89363038570E+02  0.10693934028E+03  0.28637589395E+03  0.31848536512E+03  0.00000000000E+00 0. -1.
          1    1    5    5  503    0 -0.19283468015E+04  0.12860571007E+04  0.15766576734E+03  0.23232138833E+04  0.00000000000E+00 0. -1.
         -2    1    5    5    0  503 -0.15349166328E+02  0.12060312612E+02  0.86529244037E+01  0.21352310133E+02  0.00000000000E+00 0.  1.
         -3    1    6    6    0  502 -0.41790562945E+02  0.17385792469E+02  0.29775579382E+02  0.54178427982E+02  0.00000000000E+00 0.  1.
<mgrwt>
<rscale>  0 0.52111975E+04</rscale>
<asrwt>0</asrwt>
<pdfrwt beam="1">  1        1 0.36464571E+00 0.52111975E+04</pdfrwt>
<pdfrwt beam="2">  1       -1 0.44067383E+00 0.52111975E+04</pdfrwt>
<totfact> 0.44479799E-03</totfact>
</mgrwt>
</event>
<event>
12    1  0.1114484E-007  0.1353301E+04  0.7818608E-02  0.8988333E-01
          2   -1    0    0  501    0  0.00000000000E+00  0.00000000000E+00  0.10589145510E+04  0.10589145510E+04  0.00000000000E+00 0.  1.
         -2   -1    0    0    0  501 -0.00000000000E+00 -0.00000000000E+00 -0.43238245640E+03  0.43238245640E+03  0.00000000000E+00 0. -1.
         23    2    1    2    0    0 -0.11867368164E+02  0.33317648809E+03  0.14157014708E+03  0.37363565210E+03  0.91728334426E+02 0.  0.
        254    2    1    2    0    0  0.11867368164E+02 -0.33317648809E+03  0.48496194748E+03  0.11176613553E+04  0.95017440920E+03 0.  0.
        -24    2    4    4    0    0 -0.35743780146E+03 -0.47533696922E+03  0.33547245418E+03  0.68765810429E+03  0.81393394456E+02 0.  0.
         24    2    4    4    0    0  0.36930516963E+03  0.14216048114E+03  0.14948949329E+03  0.43000325096E+03  0.77199588897E+02 0.  0.
         13    1    3    3    0    0  0.21954275984E+02  0.32839964032E+02  0.36138422345E+02  0.53539135604E+02  0.00000000000E+00 0.  1.
        -13    1    3    3    0    0 -0.33821644147E+02  0.30033652405E+03  0.10543172474E+03  0.32009651650E+03  0.00000000000E+00 0. -1.
          2    1    6    6  502    0  0.24504131355E+03  0.13142249322E+03  0.11194764212E+03  0.29974888097E+03  0.00000000000E+00 0. -1.
          3    1    5    5  503    0 -0.30685455221E+03 -0.39083455607E+03  0.31091796404E+03  0.58615812440E+03  0.00000000000E+00 0. -1.
         -4    1    5    5    0  503 -0.50583249251E+02 -0.84502413148E+02  0.24554490143E+02  0.10149997990E+03  0.00000000000E+00 0.  1.
         -1    1    6    6    0  502  0.12426385608E+03  0.10737987915E+02  0.37541851175E+02  0.13025436999E+03  0.00000000000E+00 0.  1.
<mgrwt>
<rscale>  0 0.13533013E+04</rscale>
<asrwt>0</asrwt>
<pdfrwt beam="1">  1        2 0.16290993E+00 0.13533013E+04</pdfrwt>
<pdfrwt beam="2">  1       -2 0.66520378E-01 0.13533013E+04</pdfrwt>
<totfact> 0.46875694E+01</totfact>
</mgrwt>
</event>
<event>
12    1  0.1114484E-007  0.2056643E+04  0.7818608E-02  0.8580587E-01
          1   -1    0    0  501    0  0.00000000000E+00  0.00000000000E+00  0.25808454280E+04  0.25808454280E+04  0.00000000000E+00 0. -1.
         -1   -1    0    0    0  501 -0.00000000000E+00 -0.00000000000E+00 -0.40972803217E+03  0.40972803217E+03  0.00000000000E+00 0.  1.
         23    2    1    2    0    0 -0.60370068407E+03  0.24569599411E+03  0.13512666666E+03  0.67215848692E+03  0.93363686845E+02 0.  0.
        254    2    1    2    0    0  0.60370068407E+03 -0.24569599411E+03  0.20359907291E+04  0.23184149732E+04  0.89720048008E+03 0.  0.
        -24    2    4    4    0    0  0.18858003137E+03  0.32722895808E+03  0.57174609072E+03  0.69026910447E+03  0.83286404064E+02 0.  0.
         24    2    4    4    0    0  0.41512065270E+03 -0.57292495219E+03  0.14642446384E+04  0.16281458687E+04  0.79236681205E+02 0.  0.
         11    1    3    3    0    0 -0.36472536002E+03  0.12135114646E+03  0.39968199567E+02  0.38645587842E+03  0.00000000000E+00 0.  1.
        -11    1    3    3    0    0 -0.23897532406E+03  0.12434484765E+03  0.95158467092E+02  0.28570260850E+03  0.00000000000E+00 0. -1.
          2    1    6    6  502    0  0.29741640846E+01 -0.30334836625E+02  0.67745118416E+02  0.74286264102E+02  0.00000000000E+00 0. -1.
          1    1    5    5  503    0  0.70982093592E+02  0.54324611718E+02  0.14184712162E+03  0.16766104783E+03  0.00000000000E+00 0. -1.
         -2    1    5    5    0  503  0.11759793778E+03  0.27290434636E+03  0.42989896910E+03  0.52260805664E+03  0.00000000000E+00 0.  1.
         -1    1    6    6    0  502  0.41214648862E+03 -0.54259011556E+03  0.13964995200E+04  0.15538596046E+04  0.00000000000E+00 0.  1.
<mgrwt>
<rscale>  0 0.20566426E+04</rscale>
<asrwt>0</asrwt>
<pdfrwt beam="1">  1        1 0.39705313E+00 0.20566426E+04</pdfrwt>
<pdfrwt beam="2">  1       -1 0.63035083E-01 0.20566426E+04</pdfrwt>
<totfact> 0.28054576E+00</totfact>
</mgrwt>
</event>
<event>
12    1  0.1114484E-007  0.1813286E+04  0.7818608E-02  0.8699266E-01
         -2   -1    0    0    0  501 -0.00000000000E+00  0.00000000000E+00  0.26565907710E+03  0.26565907710E+03  0.00000000000E+00 0.  1.
          2   -1    0    0  501    0  0.00000000000E+00 -0.00000000000E+00 -0.30941967314E+04  0.30941967314E+04  0.00000000000E+00 0. -1.
         23    2    1    2    0    0  0.53226964759E+03  0.10765119513E+03 -0.30214334428E+03  0.62829414129E+03  0.92537397478E+02 0.  0.
        254    2    1    2    0    0 -0.53226964759E+03 -0.10765119513E+03 -0.25263943100E+04  0.27315616672E+04  0.88535934768E+03 0.  0.
        -24    2    4    4    0    0 -0.24814175278E+03  0.63063034572E+01 -0.91025118343E+02  0.27572353996E+03  0.78254708359E+02 0.  0.
         24    2    4    4    0    0 -0.28412789481E+03 -0.11395749859E+03 -0.24353691917E+04  0.24558381272E+04  0.80017719426E+02 0.  0.
         13    1    3    3    0    0  0.19509221175E+03 -0.20545721878E+01 -0.87630117078E+02  0.21387900732E+03  0.00000000000E+00 0. -1.
        -13    1    3    3    0    0  0.33717743584E+03  0.10970576732E+03 -0.21451322721E+03  0.41441513397E+03  0.00000000000E+00 0.  1.
          4    1    6    6  502    0 -0.29257813289E+01  0.88586798507E+01 -0.57532233605E+02  0.58283739659E+02  0.00000000000E+00 0. -1.
          1    1    5    5  503    0 -0.18078902048E+03  0.18076717743E+02 -0.98957702829E+02  0.20689143192E+03  0.00000000000E+00 0. -1.
         -2    1    5    5    0  503 -0.67352732298E+02 -0.11770414286E+02  0.79325844867E+01  0.68832108039E+02  0.00000000000E+00 0.  1.
         -1    1    6    6    0  502 -0.28120211348E+03 -0.12281617844E+03 -0.23778369581E+04  0.23975543876E+04  0.00000000000E+00 0.  1.
<mgrwt>
<rscale>  0 0.18132859E+04</rscale>
<asrwt>0</asrwt>
<pdfrwt beam="1">  1        2 0.47603024E+00 0.18132859E+04</pdfrwt>
<pdfrwt beam="2">  1       -2 0.40870629E-01 0.18132859E+04</pdfrwt>
<totfact> 0.81507165E+00</totfact>
</mgrwt>
</event>
<event>
12    1  0.1114484E-007  0.1992275E+04  0.7818608E-02  0.8610241E-01
         -2   -1    0    0    0  501 -0.00000000000E+00  0.00000000000E+00  0.16977834798E+04  0.16977834798E+04  0.00000000000E+00 0. -1.
          2   -1    0    0  501    0  0.00000000000E+00 -0.00000000000E+00 -0.58446195286E+03  0.58446195286E+03  0.00000000000E+00 0.  1.
         23    2    1    2    0    0 -0.48561723661E+03 -0.63347908401E+02 -0.26539091383E+03  0.56574515661E+03  0.98985792390E+02 0.  0.
        254    2    1    2    0    0  0.48561723661E+03  0.63347908401E+02  0.13787124407E+04  0.17165002760E+04  0.89760132873E+03 0.  0.
        -24    2    4    4    0    0  0.70977397922E+03  0.20368599397E+03  0.94093070962E+03  0.11988279524E+04  0.81060306813E+02 0.  0.
         24    2    4    4    0    0 -0.22415674261E+03 -0.14033808557E+03  0.43778173111E+03  0.51767232366E+03  0.79942273326E+02 0.  0.
         11    1    3    3    0    0 -0.32243032860E+02 -0.28781944152E+02 -0.10471833707E+02  0.44471033026E+02  0.00000000000E+00 0. -1.
        -11    1    3    3    0    0 -0.45337420375E+03 -0.34565964249E+02 -0.25491908012E+03  0.52127412359E+03  0.00000000000E+00 0.  1.
          2    1    6    6  502    0 -0.14400092144E+02 -0.23138118250E+02  0.14308691653E+02  0.30781062794E+02  0.00000000000E+00 0. -1.
          3    1    5    5  503    0  0.25344399359E+02  0.94550239599E+01  0.64747167663E+02  0.70170733054E+02  0.00000000000E+00 0. -1.
         -4    1    5    5    0  503  0.68442957986E+03  0.19423097001E+03  0.87618354196E+03  0.11286572193E+04  0.00000000000E+00 0.  1.
         -1    1    6    6    0  502 -0.20975665046E+03 -0.11719996732E+03  0.42347303946E+03  0.48689126086E+03  0.00000000000E+00 0.  1.
<mgrwt>
<rscale>  0 0.19922749E+04</rscale>
<asrwt>0</asrwt>
<pdfrwt beam="1">  1        2 0.89917224E-01 0.19922749E+04</pdfrwt>
<pdfrwt beam="2">  1       -2 0.26119746E+00 0.19922749E+04</pdfrwt>
<totfact> 0.26109526E+00</totfact>
</mgrwt>
</event>
<event>
12    1  0.1114484E-007  0.1356169E+04  0.7818608E-02  0.8986171E-01
         -2   -1    0    0    0  501 -0.00000000000E+00  0.00000000000E+00  0.19719155325E+03  0.19719155325E+03  0.00000000000E+00 0.  1.
          2   -1    0    0  501    0  0.00000000000E+00 -0.00000000000E+00 -0.23317373568E+04  0.23317373568E+04  0.00000000000E+00 0. -1.
         23    2    1    2    0    0  0.37137432113E+02 -0.16490140613E+03 -0.12164914420E+04  0.12315675265E+04  0.91298855801E+02 0.  0.
        254    2    1    2    0    0 -0.37137432113E+02  0.16490140613E+03 -0.91805436151E+03  0.12973613836E+04  0.90097230054E+03 0.  0.
        -24    2    4    4    0    0  0.25104004529E+03  0.28925850989E+02  0.55216647767E+02  0.27027300522E+03  0.78363320265E+02 0.  0.
         24    2    4    4    0    0 -0.28817747740E+03  0.13597555515E+03 -0.97327100927E+03  0.10270883784E+04  0.78220645734E+02 0.  0.
         11    1    3    3    0    0  0.52300964639E+01 -0.58635247323E+01 -0.51061989487E+01  0.93705975803E+01  0.00000000000E+00 0.  1.
        -11    1    3    3    0    0  0.31907335649E+02 -0.15903788140E+03 -0.12113852431E+04  0.12221969289E+04  0.00000000000E+00 0. -1.
          2    1    6    6  502    0 -0.60927158693E+02  0.65492805504E+02 -0.23644746088E+03  0.25280195410E+03  0.00000000000E+00 0. -1.
          3    1    5    5  503    0  0.55347649996E+01  0.64554496499E+01 -0.12032554398E+02  0.14733934272E+02  0.00000000000E+00 0. -1.
         -4    1    5    5    0  503  0.24550528029E+03  0.22470401339E+02  0.67249202165E+02  0.25553907094E+03  0.00000000000E+00 0.  1.
         -1    1    6    6    0  502 -0.22725031871E+03  0.70482749641E+02 -0.73682354839E+03  0.77428642427E+03  0.00000000000E+00 0.  1.
<mgrwt>
<rscale>  0 0.13561695E+04</rscale>
<asrwt>0</asrwt>
<pdfrwt beam="1">  1        2 0.35872883E+00 0.13561695E+04</pdfrwt>
<pdfrwt beam="2">  1       -2 0.30337161E-01 0.13561695E+04</pdfrwt>
<totfact> 0.42757392E+01</totfact>
</mgrwt>
</event>
<event>
12    1  0.1114484E-007  0.2230432E+04  0.7818608E-02  0.8505867E-01
          2   -1    0    0  501    0  0.00000000000E+00  0.00000000000E+00  0.95784103765E+03  0.95784103765E+03  0.00000000000E+00 0. -1.
         -2   -1    0    0    0  501 -0.00000000000E+00 -0.00000000000E+00 -0.12984482273E+04  0.12984482273E+04  0.00000000000E+00 0.  1.
         23    2    1    2    0    0  0.81170208015E+03 -0.41501039863E+03 -0.32582955485E+03  0.97238802832E+03  0.90992752015E+02 0.  0.
        254    2    1    2    0    0 -0.81170208015E+03  0.41501039863E+03 -0.14777634768E+02  0.12839012366E+04  0.90393036731E+03 0.  0.
        -24    2    4    4    0    0 -0.28643675285E+03  0.56907510071E+03  0.22501359697E+03  0.68097187784E+03  0.84847486461E+02 0.  0.
         24    2    4    4    0    0 -0.52526532730E+03 -0.15406470208E+03 -0.23979123174E+03  0.60292935875E+03  0.79902317460E+02 0.  0.
         11    1    3    3    0    0  0.52683180268E+02 -0.33599410113E+02  0.26484129652E+00  0.62486062318E+02  0.00000000000E+00 0. -1.
        -11    1    3    3    0    0  0.75901889988E+03 -0.38141098852E+03 -0.32609439615E+03  0.90990196601E+03  0.00000000000E+00 0.  1.
          2    1    6    6  502    0 -0.93826712900E+02 -0.44296320398E+02 -0.17109130005E+02  0.10515863438E+03  0.00000000000E+00 0. -1.
          3    1    5    5  503    0 -0.72236524390E+02  0.13029885401E+03  0.15972183020E+02  0.14983663585E+03  0.00000000000E+00 0. -1.
         -4    1    5    5    0  503 -0.21420022846E+03  0.43877624670E+03  0.20904141395E+03  0.53113524199E+03  0.00000000000E+00 0.  1.
         -1    1    6    6    0  502 -0.43143861440E+03 -0.10976838168E+03 -0.22268210173E+03  0.49777072437E+03  0.00000000000E+00 0.  1.
<mgrwt>
<rscale>  0 0.22304322E+04</rscale>
<asrwt>0</asrwt>
<pdfrwt beam="1">  1        2 0.14736016E+00 0.22304322E+04</pdfrwt>
<pdfrwt beam="2">  1       -2 0.19976127E+00 0.22304322E+04</pdfrwt>
<totfact> 0.32643087E+00</totfact>
</mgrwt>
</event>
<event>
12    1  0.1114484E-007  0.2261981E+04  0.7818608E-02  0.8493064E-01
          2   -1    0    0  501    0  0.00000000000E+00  0.00000000000E+00  0.12060950436E+04  0.12060950436E+04  0.00000000000E+00 0. -1.
         -2   -1    0    0    0  501 -0.00000000000E+00 -0.00000000000E+00 -0.10605628984E+04  0.10605628984E+04  0.00000000000E+00 0.  1.
         23    2    1    2    0    0  0.28277864361E+03  0.16928732489E+03 -0.82365743308E+03  0.89184721417E+03  0.91421697097E+02 0.  0.
        254    2    1    2    0    0 -0.28277864361E+03 -0.16928732489E+03  0.96918957819E+03  0.13748107278E+04  0.91768956585E+03 0.  0.
        -24    2    4    4    0    0 -0.99352812887E+02 -0.13524390726E+03  0.11112921285E+04  0.11269179707E+04  0.82534973068E+02 0.  0.
         24    2    4    4    0    0 -0.18342583072E+03 -0.34043417630E+02 -0.14210255033E+03  0.24789275719E+03  0.80334890269E+02 0.  0.
         11    1    3    3    0    0  0.15537343511E+03  0.44575417441E+02 -0.34265343510E+03  0.37886573976E+03  0.00000000000E+00 0. -1.
        -11    1    3    3    0    0  0.12740520850E+03  0.12471190745E+03 -0.48100399798E+03  0.51298147441E+03  0.00000000000E+00 0.  1.
          4    1    6    6  502    0 -0.51568463740E+01  0.42770797099E+01 -0.36643855517E+02  0.37251290212E+02  0.00000000000E+00 0. -1.
          3    1    5    5  503    0  0.23023282796E+01 -0.50086608449E+01  0.28021079099E+01  0.61837858716E+01  0.00000000000E+00 0. -1.
         -4    1    5    5    0  503 -0.10165514117E+03 -0.13023524642E+03  0.11084900206E+04  0.11207341848E+04  0.00000000000E+00 0.  1.
         -3    1    6    6    0  502 -0.17826898435E+03 -0.38320497339E+02 -0.10545869482E+03  0.21064146697E+03  0.00000000000E+00 0.  1.
<mgrwt>
<rscale>  0 0.22619811E+04</rscale>
<asrwt>0</asrwt>
<pdfrwt beam="1">  1        2 0.18555308E+00 0.22619811E+04</pdfrwt>
<pdfrwt beam="2">  1       -2 0.16316352E+00 0.22619811E+04</pdfrwt>
<totfact> 0.40784814E+00</totfact>
</mgrwt>
</event>
<event>
12    1  0.1114484E-007  0.1580125E+04  0.7818608E-02  0.8832852E-01
          3   -1    0    0  501    0  0.00000000000E+00  0.00000000000E+00  0.55646581535E+03  0.55646581535E+03  0.00000000000E+00 0. -1.
         -3   -1    0    0    0  501 -0.00000000000E+00 -0.00000000000E+00 -0.11217195989E+04  0.11217195989E+04  0.00000000000E+00 0.  1.
         23    2    1    2    0    0  0.10818841815E+03 -0.45559370193E+03  0.74713381566E+02  0.48275021387E+03  0.90528031817E+02 0.  0.
        254    2    1    2    0    0 -0.10818841815E+03  0.45559370193E+03 -0.63996716515E+03  0.11954352004E+04  0.89455966310E+03 0.  0.
        -24    2    4    4    0    0 -0.20321224841E+03 -0.22753217459E+03 -0.19592250949E+03  0.37095399790E+03  0.78454639474E+02 0.  0.
         24    2    4    4    0    0  0.95023830262E+02  0.68312587652E+03 -0.44404465566E+03  0.82448120251E+03  0.83084929885E+02 0.  0.
         11    1    3    3    0    0  0.10014058889E+03 -0.22776199460E+03  0.45142154257E+02  0.25286652175E+03  0.00000000000E+00 0. -1.
        -11    1    3    3    0    0  0.80478292603E+01 -0.22783170733E+03  0.29571227309E+02  0.22988369212E+03  0.00000000000E+00 0.  1.
          2    1    6    6  502    0  0.27234691927E+02  0.46214257436E+03 -0.31216316869E+03  0.55835770915E+03  0.00000000000E+00 0. -1.
          1    1    5    5  503    0 -0.69640994101E+02 -0.30290123309E+02 -0.36046720600E+02  0.84063819182E+02  0.00000000000E+00 0. -1.
         -2    1    5    5    0  503 -0.13357125431E+03 -0.19724205128E+03 -0.15987578889E+03  0.28689017872E+03  0.00000000000E+00 0.  1.
         -1    1    6    6    0  502  0.67789138335E+02  0.22098330216E+03 -0.13188148697E+03  0.26612349336E+03  0.00000000000E+00 0.  1.
<mgrwt>
<rscale>  0 0.15801248E+04</rscale>
<asrwt>0</asrwt>
<pdfrwt beam="1">  1        3 0.85610126E-01 0.15801248E+04</pdfrwt>
<pdfrwt beam="2">  1       -3 0.17257225E+00 0.15801248E+04</pdfrwt>
<totfact> 0.69777789E-01</totfact>
</mgrwt>
</event>
<event>
12    1  0.1114484E-007  0.1665925E+04  0.7818608E-02  0.8781041E-01
         -1   -1    0    0    0  501 -0.00000000000E+00  0.00000000000E+00  0.94699479755E+03  0.94699479755E+03  0.00000000000E+00 0.  1.
          1   -1    0    0  501    0  0.00000000000E+00 -0.00000000000E+00 -0.73266127255E+03  0.73266127255E+03  0.00000000000E+00 0. -1.
         23    2    1    2    0    0  0.13179291972E+02 -0.94415894496E+02  0.64850168026E+03  0.66173357807E+03  0.90823147781E+02 0.  0.
        254    2    1    2    0    0 -0.13179291972E+02  0.94415894496E+02 -0.43416815526E+03  0.10179224920E+04  0.91573803998E+03 0.  0.
        -24    2    4    4    0    0  0.33866518400E+02  0.98850656971E+02 -0.71254486627E+03  0.72447415328E+03  0.78893718801E+02 0.  0.
         24    2    4    4    0    0 -0.47045810372E+02 -0.44347624754E+01  0.27837671101E+03  0.29344833875E+03  0.79908440690E+02 0.  0.
         13    1    3    3    0    0 -0.17328870630E+01 -0.52695405860E+02  0.11632452981E+03  0.12771532771E+03  0.00000000000E+00 0. -1.
        -13    1    3    3    0    0  0.14912179035E+02 -0.41720488636E+02  0.53217715045E+03  0.53401825036E+03  0.00000000000E+00 0.  1.
          2    1    6    6  502    0 -0.12748200457E+02 -0.21807561956E+02  0.19979638417E+02  0.32206712415E+02  0.00000000000E+00 0. -1.
          3    1    5    5  503    0  0.54663371838E+02  0.83231191485E+02 -0.46355138558E+03  0.47412593531E+03  0.00000000000E+00 0. -1.
         -4    1    5    5    0  503 -0.20796853438E+02  0.15619465486E+02 -0.24899348069E+03  0.25034821797E+03  0.00000000000E+00 0.  1.
         -1    1    6    6    0  502 -0.34297609916E+02  0.17372799481E+02  0.25839707259E+03  0.26124162634E+03  0.00000000000E+00 0.  1.
<mgrwt>
<rscale>  0 0.16659249E+04</rscale>
<asrwt>0</asrwt>
<pdfrwt beam="1">  1        1 0.11271712E+00 0.16659249E+04</pdfrwt>
<pdfrwt beam="2">  1       -1 0.14569151E+00 0.16659249E+04</pdfrwt>
<totfact> 0.91462121E+00</totfact>
</mgrwt>
</event>
<event>
12    1  0.1114484E-007  0.2279547E+04  0.7818608E-02  0.8486030E-01
          2   -1    0    0  501    0  0.00000000000E+00  0.00000000000E+00  0.29818706992E+04  0.29818706992E+04  0.00000000000E+00 0. -1.
         -2   -1    0    0    0  501 -0.00000000000E+00 -0.00000000000E+00 -0.43566045235E+03  0.43566045235E+03  0.00000000000E+00 0.  1.
         23    2    1    2    0    0  0.29386641345E+03 -0.16630083419E+03  0.24251887517E+04  0.24502705732E+04  0.90950338554E+02 0.  0.
        254    2    1    2    0    0 -0.29386641345E+03  0.16630083419E+03  0.12102149515E+03  0.96726057836E+03  0.89829471097E+03 0.  0.
        -24    2    4    4    0    0  0.22515702665E+03  0.17158320241E+03 -0.19614140637E+03  0.35372824127E+03  0.80720105157E+02 0.  0.
         24    2    4    4    0    0 -0.51902344010E+03 -0.52823682218E+01  0.31716290152E+03  0.61353233709E+03  0.80102358107E+02 0.  0.
         13    1    3    3    0    0  0.48780141666E+02 -0.71711064201E+02  0.64347578456E+03  0.64929428171E+03  0.00000000000E+00 0.  1.
        -13    1    3    3    0    0  0.24508627178E+03 -0.94589769988E+02  0.17817129671E+04  0.18009762914E+04  0.00000000000E+00 0. -1.
          2    1    6    6  502    0 -0.84749185747E+02 -0.13712878600E+02  0.22798282372E+02  0.88826962142E+02  0.00000000000E+00 0. -1.
          1    1    5    5  503    0  0.67342616601E+00  0.16082885617E+02 -0.30089474238E+02  0.34124612416E+02  0.00000000000E+00 0. -1.
         -2    1    5    5    0  503  0.22448360049E+03  0.15550031679E+03 -0.16605193213E+03  0.31960362885E+03  0.00000000000E+00 0.  1.
         -1    1    6    6    0  502 -0.43427425435E+03  0.84305103779E+01  0.29436461915E+03  0.52470537495E+03  0.00000000000E+00 0.  1.
<mgrwt>
<rscale>  0 0.22795466E+04</rscale>
<asrwt>0</asrwt>
<pdfrwt beam="1">  1        2 0.45874932E+00 0.22795466E+04</pdfrwt>
<pdfrwt beam="2">  1       -2 0.67024687E-01 0.22795466E+04</pdfrwt>
<totfact> 0.33190802E+00</totfact>
</mgrwt>
</event>
<event>
12    1  0.1114484E-007  0.1536144E+04  0.7818608E-02  0.8860767E-01
          1   -1    0    0  501    0  0.00000000000E+00  0.00000000000E+00  0.20652884209E+04  0.20652884209E+04  0.00000000000E+00 0. -1.
         -1   -1    0    0    0  501 -0.00000000000E+00 -0.00000000000E+00 -0.28564281910E+03  0.28564281910E+03  0.00000000000E+00 0.  1.
         23    2    1    2    0    0 -0.34838740396E+03  0.94347998662E+02  0.60179457815E+02  0.37731557846E+03  0.92033420650E+02 0.  0.
        254    2    1    2    0    0  0.34838740396E+03 -0.94347998662E+02  0.17194661440E+04  0.19736156616E+04  0.89906597706E+03 0.  0.
        -24    2    4    4    0    0  0.19206040558E+03 -0.49053508204E+03  0.10131750725E+04  0.11449214601E+04  0.82520035367E+02 0.  0.
         24    2    4    4    0    0  0.15632699838E+03  0.39618708338E+03  0.70629107157E+03  0.82869420149E+03  0.80527426038E+02 0.  0.
         13    1    3    3    0    0 -0.24176260756E+03  0.59577208463E+02  0.83772499780E+02  0.26270979026E+03  0.00000000000E+00 0.  1.
        -13    1    3    3    0    0 -0.10662479640E+03  0.34770790199E+02 -0.23593041965E+02  0.11460578820E+03  0.00000000000E+00 0. -1.
          2    1    6    6  502    0  0.14172867128E+03  0.28388022330E+03  0.56058445216E+03  0.64415054564E+03  0.00000000000E+00 0. -1.
          1    1    5    5  503    0  0.39678974497E+02 -0.21114898020E+03  0.42092965902E+03  0.47258871199E+03  0.00000000000E+00 0. -1.
         -2    1    5    5    0  503  0.15238143108E+03 -0.27938610184E+03  0.59224541344E+03  0.67233274811E+03  0.00000000000E+00 0.  1.
         -1    1    6    6    0  502  0.14598327099E+02  0.11230686008E+03  0.14570661941E+03  0.18454365585E+03  0.00000000000E+00 0.  1.
<mgrwt>
<rscale>  0 0.15361443E+04</rscale>
<asrwt>0</asrwt>
<pdfrwt beam="1">  1        1 0.31773667E+00 0.15361443E+04</pdfrwt>
<pdfrwt beam="2">  1       -1 0.43945050E-01 0.15361443E+04</pdfrwt>
<totfact> 0.13295114E+01</totfact>
</mgrwt>
</event>
<event>
12    1  0.1114484E-007  0.1809415E+04  0.7818608E-02  0.8701309E-01
          2   -1    0    0  501    0  0.00000000000E+00  0.00000000000E+00  0.33757472347E+04  0.33757472347E+04  0.00000000000E+00 0. -1.
         -2   -1    0    0    0  501 -0.00000000000E+00 -0.00000000000E+00 -0.24246359677E+03  0.24246359677E+03  0.00000000000E+00 0.  1.
         23    2    1    2    0    0 -0.14615064451E+03 -0.63491959840E+03  0.78425369465E+03  0.10236760669E+04  0.91520079470E+02 0.  0.
        254    2    1    2    0    0  0.14615064451E+03  0.63491959840E+03  0.23490299433E+04  0.25945347647E+04  0.88836144842E+03 0.  0.
        -24    2    4    4    0    0 -0.32963877624E+03  0.41101440636E+03  0.15161291733E+04  0.16068974153E+04  0.76662038506E+02 0.  0.
         24    2    4    4    0    0  0.47578942075E+03  0.22390519204E+03  0.83290077002E+03  0.98763734934E+03  0.72074497600E+02 0.  0.
         13    1    3    3    0    0 -0.85198266401E+02 -0.38872199027E+03  0.54647426264E+03  0.67601601316E+03  0.00000000000E+00 0.  1.
        -13    1    3    3    0    0 -0.60952378110E+02 -0.24619760813E+03  0.23777943200E+03  0.34766005369E+03  0.00000000000E+00 0. -1.
          4    1    6    6  502    0  0.12751620481E+02  0.92100090552E+01  0.81027155512E+01  0.17694125890E+02  0.00000000000E+00 0. -1.
          1    1    5    5  503    0 -0.14355804717E+03  0.12253617567E+03  0.50874027799E+03  0.54262390079E+03  0.00000000000E+00 0. -1.
         -2    1    5    5    0  503 -0.18608072907E+03  0.28847823069E+03  0.10073888953E+04  0.10642735145E+04  0.00000000000E+00 0.  1.
         -3    1    6    6    0  502  0.46303780027E+03  0.21469518299E+03  0.82479805447E+03  0.96994322345E+03  0.00000000000E+00 0.  1.
<mgrwt>
<rscale>  0 0.18094152E+04</rscale>
<asrwt>0</asrwt>
<pdfrwt beam="1">  1        2 0.51934569E+00 0.18094152E+04</pdfrwt>
<pdfrwt beam="2">  1       -2 0.37302094E-01 0.18094152E+04</pdfrwt>
<totfact> 0.63745515E+00</totfact>
</mgrwt>
</event>
<event>
12    1  0.1114484E-007  0.1204266E+04  0.7818608E-02  0.9109131E-01
         -2   -1    0    0    0  501 -0.00000000000E+00  0.00000000000E+00  0.23360870800E+03  0.23360870800E+03  0.00000000000E+00 0.  1.
          2   -1    0    0  501    0  0.00000000000E+00 -0.00000000000E+00 -0.15520151318E+04  0.15520151318E+04  0.00000000000E+00 0. -1.
         23    2    1    2    0    0  0.10655089926E+03 -0.69654236812E+02  0.29484706821E+02  0.16009061933E+03  0.92492440880E+02 0.  0.
        254    2    1    2    0    0 -0.10655089926E+03  0.69654236812E+02 -0.13478911306E+04  0.16255332205E+04  0.89963489484E+03 0.  0.
        -24    2    4    4    0    0  0.17122458566E+03 -0.34757263054E+03 -0.49702790567E+03  0.63537848209E+03  0.80897986684E+02 0.  0.
         24    2    4    4    0    0 -0.27777548493E+03  0.41722686735E+03 -0.85086322497E+03  0.99015473840E+03  0.72115875509E+02 0.  0.
         11    1    3    3    0    0  0.39766636165E+01 -0.13814599781E+02 -0.26826399235E+02  0.30435385927E+02  0.00000000000E+00 0. -1.
        -11    1    3    3    0    0  0.10257423565E+03 -0.55839637031E+02  0.56311106056E+02  0.12965523340E+03  0.00000000000E+00 0.  1.
          2    1    6    6  502    0 -0.12984026944E+03  0.25934724489E+03 -0.48502129622E+03  0.56512401009E+03  0.00000000000E+00 0. -1.
          1    1    5    5  503    0  0.12837303546E+03 -0.31823896992E+03 -0.44407678380E+03  0.56121285456E+03  0.00000000000E+00 0. -1.
         -2    1    5    5    0  503  0.42851550197E+02 -0.29333660620E+02 -0.52951121873E+02  0.74165627532E+02  0.00000000000E+00 0.  1.
         -1    1    6    6    0  502 -0.14793521549E+03  0.15787962247E+03 -0.36584192875E+03  0.42503072831E+03  0.00000000000E+00 0.  1.
<mgrwt>
<rscale>  0 0.12042662E+04</rscale>
<asrwt>0</asrwt>
<pdfrwt beam="1">  1        2 0.23877156E+00 0.12042662E+04</pdfrwt>
<pdfrwt beam="2">  1       -2 0.35939801E-01 0.12042662E+04</pdfrwt>
<totfact> 0.85176602E+01</totfact>
</mgrwt>
</event>
<event>
12    1  0.1114484E-007  0.1633797E+04  0.7818608E-02  0.8800050E-01
         -2   -1    0    0    0  501 -0.00000000000E+00  0.00000000000E+00  0.42426683124E+03  0.42426683124E+03  0.00000000000E+00 0. -1.
          2   -1    0    0  501    0  0.00000000000E+00 -0.00000000000E+00 -0.15728851203E+04  0.15728851203E+04  0.00000000000E+00 0.  1.
         23    2    1    2    0    0  0.53350769994E+02 -0.54508449759E+03 -0.49511863145E+03  0.74808655783E+03  0.12053059627E+03 0.  0.
        254    2    1    2    0    0 -0.53350769994E+02  0.54508449759E+03 -0.65349965765E+03  0.12490653937E+04  0.91276455953E+03 0.  0.
        -24    2    4    4    0    0  0.37620386931E+03  0.38857038150E+02 -0.17108441703E+03  0.42409910468E+03  0.86896214735E+02 0.  0.
         24    2    4    4    0    0 -0.42955463931E+03  0.50622745944E+03 -0.48241524061E+03  0.82496628906E+03  0.84032641729E+02 0.  0.
         13    1    3    3    0    0  0.23265589814E+02 -0.45111005669E+03 -0.34476749220E+03  0.56824835644E+03  0.00000000000E+00 0.  1.
        -13    1    3    3    0    0  0.30085180180E+02 -0.93974440893E+02 -0.15035113925E+03  0.17983820139E+03  0.00000000000E+00 0. -1.
          2    1    6    6  502    0 -0.65393155560E+02  0.88153539902E+02 -0.11980202187E+03  0.16248026291E+03  0.00000000000E+00 0. -1.
          1    1    5    5  503    0  0.21516256703E+03 -0.14117591579E+02 -0.69918386644E+02  0.22667778328E+03  0.00000000000E+00 0. -1.
         -2    1    5    5    0  503  0.16104130228E+03  0.52974629729E+02 -0.10116603039E+03  0.19742132139E+03  0.00000000000E+00 0.  1.
         -1    1    6    6    0  502 -0.36416148375E+03  0.41807391954E+03 -0.36261321875E+03  0.66248602615E+03  0.00000000000E+00 0.  1.
<mgrwt>
<rscale>  0 0.16337968E+04</rscale>
<asrwt>0</asrwt>
<pdfrwt beam="1">  1        2 0.24198233E+00 0.16337968E+04</pdfrwt>
<pdfrwt beam="2">  1       -2 0.65271820E-01 0.16337968E+04</pdfrwt>
<totfact> 0.23897126E+01</totfact>
</mgrwt>
</event>
<event>
12    1  0.1114484E-007  0.4055909E+04  0.7818608E-02  0.7993362E-01
          2   -1    0    0  501    0  0.00000000000E+00  0.00000000000E+00  0.21873019100E+04  0.21873019100E+04  0.00000000000E+00 0. -1.
         -2   -1    0    0    0  501 -0.00000000000E+00 -0.00000000000E+00 -0.18802160967E+04  0.18802160967E+04  0.00000000000E+00 0.  1.
         23    2    1    2    0    0  0.63055105092E+03 -0.15821844474E+04  0.10519139967E+04  0.20040036842E+04  0.92765598418E+02 0.  0.
        254    2    1    2    0    0 -0.63055105092E+03  0.15821844474E+04 -0.74482818328E+03  0.20635143225E+04  0.89577903704E+03 0.  0.
        -24    2    4    4    0    0  0.22491695989E+03  0.35345528412E+03 -0.17806202377E+03  0.46071956090E+03  0.70979946257E+02 0.  0.
         24    2    4    4    0    0 -0.85546801080E+03  0.12287291633E+04 -0.56676615951E+03  0.16027947616E+04  0.78270646361E+02 0.  0.
         13    1    3    3    0    0  0.22548262948E+02 -0.12119493737E+03  0.75774767176E+02  0.14470125206E+03  0.00000000000E+00 0.  1.
        -13    1    3    3    0    0  0.60800278797E+03 -0.14609895101E+04  0.97613922948E+03  0.18593024321E+04  0.00000000000E+00 0. -1.
          4    1    6    6  502    0 -0.43246852427E+03  0.66268874325E+03 -0.33256518490E+03  0.85836181014E+03  0.00000000000E+00 0. -1.
          1    1    5    5  503    0  0.17313613021E+03  0.23923243497E+03 -0.94674076812E+02  0.31011523398E+03  0.00000000000E+00 0. -1.
         -2    1    5    5    0  503  0.51780829678E+02  0.11422284915E+03 -0.83387946955E+02  0.15060432692E+03  0.00000000000E+00 0.  1.
         -3    1    6    6    0  502 -0.42299948654E+03  0.56604042008E+03 -0.23420097461E+03  0.74443295150E+03  0.00000000000E+00 0.  1.
<mgrwt>
<rscale>  0 0.40559094E+04</rscale>
<asrwt>0</asrwt>
<pdfrwt beam="1">  1        2 0.33650799E+00 0.40559094E+04</pdfrwt>
<pdfrwt beam="2">  1       -2 0.28926401E+00 0.40559094E+04</pdfrwt>
<totfact> 0.15242303E-01</totfact>
</mgrwt>
</event>
<event>
12    1  0.1114484E-007  0.1577134E+04  0.7818608E-02  0.8834720E-01
         -1   -1    0    0    0  501 -0.00000000000E+00  0.00000000000E+00  0.45770437550E+03  0.45770437550E+03  0.00000000000E+00 0.  1.
          1   -1    0    0  501    0  0.00000000000E+00 -0.00000000000E+00 -0.13586020503E+04  0.13586020503E+04  0.00000000000E+00 0. -1.
         23    2    1    2    0    0  0.19332895679E+03  0.46729936867E+03 -0.47825366225E+03  0.70176740024E+03  0.89476997590E+02 0.  0.
        254    2    1    2    0    0 -0.19332895679E+03 -0.46729936867E+03 -0.42264401255E+03  0.11145390256E+04  0.89879057220E+03 0.  0.
        -24    2    4    4    0    0 -0.38133705246E+03 -0.35495223397E+02 -0.49508168372E+03  0.63142155465E+03  0.83123087446E+02 0.  0.
         24    2    4    4    0    0  0.18800809567E+03 -0.43180414527E+03  0.72437671163E+02  0.48311747092E+03  0.79708284345E+02 0.  0.
         13    1    3    3    0    0  0.58028169906E+02  0.69645227073E+02 -0.11505186730E+03  0.14647408755E+03  0.00000000000E+00 0.  1.
        -13    1    3    3    0    0  0.13530078688E+03  0.39765414159E+03 -0.36320179496E+03  0.55529331269E+03  0.00000000000E+00 0. -1.
          4    1    6    6  502    0  0.18433929697E+03 -0.43432600846E+03  0.67772323930E+02  0.47666880108E+03  0.00000000000E+00 0. -1.
          1    1    5    5  503    0 -0.18105933138E+03  0.24187218427E+02 -0.21961002449E+03  0.28565025096E+03  0.00000000000E+00 0. -1.
         -2    1    5    5    0  503 -0.20027772108E+03 -0.59682441824E+02 -0.27547165923E+03  0.34577130370E+03  0.00000000000E+00 0.  1.
         -3    1    6    6    0  502  0.36687986923E+01  0.25218631925E+01  0.46653472337E+01  0.64486698331E+01  0.00000000000E+00 0.  1.
<mgrwt>
<rscale>  0 0.15771342E+04</rscale>
<asrwt>0</asrwt>
<pdfrwt beam="1">  1        1 0.20901570E+00 0.15771342E+04</pdfrwt>
<pdfrwt beam="2">  1       -1 0.70416059E-01 0.15771342E+04</pdfrwt>
<totfact> 0.16100683E+01</totfact>
</mgrwt>
</event>
<event>
12    1  0.1114484E-007  0.1298463E+04  0.7818608E-02  0.9030785E-01
          1   -1    0    0  501    0  0.00000000000E+00  0.00000000000E+00  0.27941453016E+04  0.27941453016E+04  0.00000000000E+00 0. -1.
         -1   -1    0    0    0  501 -0.00000000000E+00 -0.00000000000E+00 -0.15085169706E+03  0.15085169706E+03  0.00000000000E+00 0.  1.
         23    2    1    2    0    0  0.29243867897E+03 -0.57735254150E+02  0.38769029152E+03  0.49798587850E+03  0.93981022089E+02 0.  0.
        254    2    1    2    0    0 -0.29243867897E+03  0.57735254150E+02  0.22556033130E+04  0.24470111202E+04  0.90070160206E+03 0.  0.
        -24    2    4    4    0    0 -0.52811013456E+02  0.38956114661E+02  0.21801643286E+04  0.21827472954E+04  0.83442639036E+02 0.  0.
         24    2    4    4    0    0 -0.23962766552E+03  0.18779139489E+02  0.75438984455E+02  0.26426382477E+03  0.79813874381E+02 0.  0.
         13    1    3    3    0    0 -0.22376704308E+01 -0.13070558507E+02  0.27073321078E+02  0.30146498683E+02  0.00000000000E+00 0. -1.
        -13    1    3    3    0    0  0.29467634940E+03 -0.44664695643E+02  0.36061697044E+03  0.46783937982E+03  0.00000000000E+00 0.  1.
          2    1    6    6  502    0 -0.16362064988E+03 -0.84390604139E+01  0.17245875431E+02  0.16474330040E+03  0.00000000000E+00 0. -1.
          1    1    5    5  503    0 -0.56777330160E+02  0.54619907315E+02  0.20594428470E+04  0.20609492569E+04  0.00000000000E+00 0. -1.
         -2    1    5    5    0  503  0.39663167039E+01 -0.15663792654E+02  0.12072148155E+03  0.12179803848E+03  0.00000000000E+00 0.  1.
         -1    1    6    6    0  502 -0.76007015636E+02  0.27218199903E+02  0.58193109025E+02  0.99520524365E+02  0.00000000000E+00 0.  1.
<mgrwt>
<rscale>  0 0.12984630E+04</rscale>
<asrwt>0</asrwt>
<pdfrwt beam="1">  1        1 0.42986847E+00 0.12984630E+04</pdfrwt>
<pdfrwt beam="2">  1       -1 0.23207955E-01 0.12984630E+04</pdfrwt>
<totfact> 0.13253997E+01</totfact>
</mgrwt>
</event>
<event>
12    1  0.1114484E-007  0.2453548E+04  0.7818608E-02  0.8419724E-01
         -2   -1    0    0    0  501 -0.00000000000E+00  0.00000000000E+00  0.45416322641E+03  0.45416322641E+03  0.00000000000E+00 0.  1.
          2   -1    0    0  501    0  0.00000000000E+00 -0.00000000000E+00 -0.33137295033E+04  0.33137295033E+04  0.00000000000E+00 0. -1.
         23    2    1    2    0    0  0.49491433993E+03  0.30493808548E+02  0.19474124175E+03  0.54121224308E+03  0.95480179034E+02 0.  0.
        254    2    1    2    0    0 -0.49491433993E+03 -0.30493808548E+02 -0.30543075186E+04  0.32266804866E+04  0.91476907913E+03 0.  0.
        -24    2    4    4    0    0 -0.58840688529E+03 -0.14867657208E+03 -0.29766738585E+04  0.30389650596E+04  0.79962416933E+02 0.  0.
         24    2    4    4    0    0  0.93492545354E+02  0.11818276353E+03 -0.77633660153E+02  0.18771542700E+03  0.80635443267E+02 0.  0.
         13    1    3    3    0    0  0.41543642978E+03  0.56110091829E+02  0.14275667489E+03  0.44284900115E+03  0.00000000000E+00 0.  1.
        -13    1    3    3    0    0  0.79477910157E+02 -0.25616283281E+02  0.51984566855E+02  0.98363241931E+02  0.00000000000E+00 0. -1.
          2    1    6    6  502    0  0.56865811174E+02  0.95129042325E+02 -0.89928436715E+02  0.14272483633E+03  0.00000000000E+00 0. -1.
          1    1    5    5  503    0 -0.41861931849E+03 -0.10273316697E+03 -0.22832324339E+04  0.23235633377E+04  0.00000000000E+00 0. -1.
         -2    1    5    5    0  503 -0.16978756680E+03 -0.45943405108E+02 -0.69344142462E+03  0.71540172190E+03  0.00000000000E+00 0.  1.
         -3    1    6    6    0  502  0.36626734180E+02  0.23053721208E+02  0.12294776562E+02  0.44990590672E+02  0.00000000000E+00 0.  1.
<mgrwt>
<rscale>  0 0.24535477E+04</rscale>
<asrwt>0</asrwt>
<pdfrwt beam="1">  1        2 0.50980455E+00 0.24535477E+04</pdfrwt>
<pdfrwt beam="2">  1       -2 0.69871264E-01 0.24535477E+04</pdfrwt>
<totfact> 0.18241207E+00</totfact>
</mgrwt>
</event>
<event>
12    1  0.1114484E-007  0.1865564E+04  0.7818608E-02  0.8672190E-01
          2   -1    0    0  501    0  0.00000000000E+00  0.00000000000E+00  0.70444001547E+03  0.70444001547E+03  0.00000000000E+00 0. -1.
         -2   -1    0    0    0  501 -0.00000000000E+00 -0.00000000000E+00 -0.12351409722E+04  0.12351409722E+04  0.00000000000E+00 0.  1.
         23    2    1    2    0    0  0.14520558763E+03  0.63077835611E+02 -0.92288239438E+03  0.94101813358E+03  0.93486565091E+02 0.  0.
        254    2    1    2    0    0 -0.14520558763E+03 -0.63077835611E+02  0.39218143763E+03  0.99856285410E+03  0.90457615354E+03 0.  0.
        -24    2    4    4    0    0  0.83146551753E+02  0.12542899160E+03 -0.24055601638E+03  0.29529415438E+03  0.81765882807E+02 0.  0.
         24    2    4    4    0    0 -0.22835213938E+03 -0.18850682721E+03  0.63273745401E+03  0.70326869972E+03  0.80936115768E+02 0.  0.
         13    1    3    3    0    0 -0.27925663343E+01  0.24064034645E+02 -0.23865740922E+03  0.23988379513E+03  0.00000000000E+00 0. -1.
        -13    1    3    3    0    0  0.14799815396E+03  0.39013800965E+02 -0.68422498516E+03  0.70113433845E+03  0.00000000000E+00 0.  1.
          4    1    6    6  502    0 -0.97458222135E+02 -0.10784769200E+03  0.22890776276E+03  0.27116045727E+03  0.00000000000E+00 0. -1.
          1    1    5    5  503    0  0.13594062205E+02  0.80750177128E+02 -0.78824720394E+02  0.11366057443E+03  0.00000000000E+00 0. -1.
         -2    1    5    5    0  503  0.69552489548E+02  0.44678814467E+02 -0.16173129599E+03  0.18163357995E+03  0.00000000000E+00 0.  1.
         -3    1    6    6    0  502 -0.13089391724E+03 -0.80659135207E+02  0.40382969125E+03  0.43210824246E+03  0.00000000000E+00 0.  1.
<mgrwt>
<rscale>  0 0.18655645E+04</rscale>
<asrwt>0</asrwt>
<pdfrwt beam="1">  1        2 0.10837539E+00 0.18655645E+04</pdfrwt>
<pdfrwt beam="2">  1       -2 0.19002169E+00 0.18655645E+04</pdfrwt>
<totfact> 0.59105002E+00</totfact>
</mgrwt>
</event>
<event>
12    1  0.1114484E-007  0.2951022E+04  0.7818608E-02  0.8257857E-01
          2   -1    0    0  501    0  0.00000000000E+00  0.00000000000E+00  0.66910286493E+03  0.66910286493E+03  0.00000000000E+00 0. -1.
         -2   -1    0    0    0  501 -0.00000000000E+00 -0.00000000000E+00 -0.32538084538E+04  0.32538084538E+04  0.00000000000E+00 0.  1.
         23    2    1    2    0    0  0.10262463994E+04 -0.14047651461E+03 -0.48751253007E+02  0.10409293520E+04  0.90784953091E+02 0.  0.
        254    2    1    2    0    0 -0.10262463994E+04  0.14047651461E+03 -0.25359543358E+04  0.28819819667E+04  0.89545538118E+03 0.  0.
        -24    2    4    4    0    0  0.51641073546E+02  0.23303980358E+03 -0.27164336476E+03  0.37112031006E+03  0.83461466498E+02 0.  0.
         24    2    4    4    0    0 -0.10778874729E+04 -0.92563288972E+02 -0.22643109711E+04  0.25108616567E+04  0.83142759264E+02 0.  0.
         11    1    3    3    0    0  0.97571946077E+03 -0.11440262059E+03 -0.38520125309E+02  0.98315829132E+03  0.00000000000E+00 0. -1.
        -11    1    3    3    0    0  0.50526938619E+02 -0.26073894019E+02 -0.10231127698E+02  0.57771060657E+02  0.00000000000E+00 0.  1.
          2    1    6    6  502    0 -0.48382375865E+03 -0.47054825710E+02 -0.92316548291E+03  0.10433283735E+04  0.00000000000E+00 0. -1.
          3    1    5    5  503    0  0.26973293548E+02  0.11514739997E+02 -0.23615962398E+02  0.37654501484E+02  0.00000000000E+00 0. -1.
         -4    1    5    5    0  503  0.24667779998E+02  0.22152506358E+03 -0.24802740236E+03  0.33346580857E+03  0.00000000000E+00 0.  1.
         -1    1    6    6    0  502 -0.59406371428E+03 -0.45508463262E+02 -0.13411454882E+04  0.14675332832E+04  0.00000000000E+00 0.  1.
<mgrwt>
<rscale>  0 0.29510219E+04</rscale>
<asrwt>0</asrwt>
<pdfrwt beam="1">  1        2 0.10293890E+00 0.29510219E+04</pdfrwt>
<pdfrwt beam="2">  1       -2 0.50058591E+00 0.29510219E+04</pdfrwt>
<totfact> 0.60768384E-02</totfact>
</mgrwt>
</event>
<event>
12    1  0.1114484E-007  0.1943424E+04  0.7818608E-02  0.8633538E-01
          1   -1    0    0  501    0  0.00000000000E+00  0.00000000000E+00  0.20057131859E+04  0.20057131859E+04  0.00000000000E+00 0. -1.
         -1   -1    0    0    0  501 -0.00000000000E+00 -0.00000000000E+00 -0.47076730001E+03  0.47076730001E+03  0.00000000000E+00 0.  1.
         23    2    1    2    0    0  0.47193585780E+03  0.29192020739E+03 -0.57034128263E+02  0.56556839187E+03  0.93133520980E+02 0.  0.
        254    2    1    2    0    0 -0.47193585780E+03 -0.29192020739E+03  0.15919800142E+04  0.19109120941E+04  0.89957979320E+03 0.  0.
        -24    2    4    4    0    0 -0.32611229404E+03 -0.42712224773E+03  0.16065481327E+04  0.16959469766E+04  0.80352982599E+02 0.  0.
         24    2    4    4    0    0 -0.14582356376E+03  0.13520204033E+03 -0.14568118532E+02  0.21496511749E+03  0.80334725997E+02 0.  0.
         11    1    3    3    0    0  0.92714686862E+02  0.10075780489E+03 -0.29031352797E+02  0.13996773861E+03  0.00000000000E+00 0. -1.
        -11    1    3    3    0    0  0.37922117094E+03  0.19116240250E+03 -0.28002775466E+02  0.42560065325E+03  0.00000000000E+00 0.  1.
          2    1    6    6  502    0 -0.13870941509E+03  0.11923428896E+03  0.11839734753E+02  0.18329565412E+03  0.00000000000E+00 0. -1.
          3    1    5    5  503    0 -0.15656310071E+03 -0.15966419651E+03  0.57779167312E+03  0.61955458006E+03  0.00000000000E+00 0. -1.
         -4    1    5    5    0  503 -0.16954919333E+03 -0.26745805121E+03  0.10287564596E+04  0.10763923965E+04  0.00000000000E+00 0.  1.
         -1    1    6    6    0  502 -0.71141486713E+01  0.15967751367E+02 -0.26407853285E+02  0.31669463370E+02  0.00000000000E+00 0.  1.
<mgrwt>
<rscale>  0 0.19434240E+04</rscale>
<asrwt>0</asrwt>
<pdfrwt beam="1">  1        1 0.30857125E+00 0.19434240E+04</pdfrwt>
<pdfrwt beam="2">  1       -1 0.72425740E-01 0.19434240E+04</pdfrwt>
<totfact> 0.52940787E+00</totfact>
</mgrwt>
</event>
<event>
12    1  0.1114484E-007  0.1892906E+04  0.7818608E-02  0.8658396E-01
         -1   -1    0    0    0  501 -0.00000000000E+00  0.00000000000E+00  0.14751347593E+04  0.14751347593E+04  0.00000000000E+00 0.  1.
          1   -1    0    0  501    0  0.00000000000E+00 -0.00000000000E+00 -0.60724846299E+03  0.60724846299E+03  0.00000000000E+00 0. -1.
         23    2    1    2    0    0  0.37211602819E+03 -0.34835173867E+03  0.84246252628E+03  0.98836108677E+03  0.85412278928E+02 0.  0.
        254    2    1    2    0    0 -0.37211602819E+03  0.34835173867E+03  0.25423770030E+02  0.10940221355E+04  0.96768734242E+03 0.  0.
        -24    2    4    4    0    0 -0.39323064738E+03  0.33766117219E+02 -0.39467899518E+03  0.56274714956E+03  0.71710197210E+02 0.  0.
         24    2    4    4    0    0  0.21114619195E+02  0.31458562145E+03  0.42010276521E+03  0.53127498597E+03  0.79729774956E+02 0.  0.
         11    1    3    3    0    0  0.36455410965E+03 -0.31469019188E+03  0.77183766553E+03  0.90975985714E+03  0.00000000000E+00 0.  1.
        -11    1    3    3    0    0  0.75619185396E+01 -0.33661546790E+02  0.70624860752E+02  0.78601229637E+02  0.00000000000E+00 0. -1.
          2    1    6    6  502    0  0.45537898486E+02  0.13430985482E+03  0.20935094609E+03  0.25286489660E+03  0.00000000000E+00 0. -1.
          1    1    5    5  503    0 -0.77159421199E+02  0.20145218098E+02 -0.46530141044E+02  0.92328002890E+02  0.00000000000E+00 0. -1.
         -2    1    5    5    0  503 -0.31607122618E+03  0.13620899122E+02 -0.34814885414E+03  0.47041914667E+03  0.00000000000E+00 0.  1.
         -1    1    6    6    0  502 -0.24423279292E+02  0.18027576662E+03  0.21075181912E+03  0.27841008938E+03  0.00000000000E+00 0.  1.
<mgrwt>
<rscale>  0 0.18929060E+04</rscale>
<asrwt>0</asrwt>
<pdfrwt beam="1">  1        1 0.93422841E-01 0.18929060E+04</pdfrwt>
<pdfrwt beam="2">  1       -1 0.22694381E+00 0.18929060E+04</pdfrwt>
<totfact> 0.31161129E+00</totfact>
</mgrwt>
</event>
<event>
12    1  0.1114484E-007  0.2384463E+04  0.7818608E-02  0.8445343E-01
         -1   -1    0    0    0  501 -0.00000000000E+00  0.00000000000E+00  0.86354938784E+03  0.86354938784E+03  0.00000000000E+00 0.  1.
          1   -1    0    0  501    0  0.00000000000E+00 -0.00000000000E+00 -0.16460160737E+04  0.16460160737E+04  0.00000000000E+00 0. -1.
         23    2    1    2    0    0  0.63451748951E+03  0.52098617918E+03  0.29558310364E+03  0.87732652471E+03  0.91068196482E+02 0.  0.
        254    2    1    2    0    0 -0.63451748951E+03 -0.52098617918E+03 -0.10780497895E+04  0.16322389368E+04  0.90993052200E+03 0.  0.
        -24    2    4    4    0    0 -0.58810409448E+03 -0.74446364567E+03 -0.99279550169E+03  0.13754936668E+04  0.79040329280E+02 0.  0.
         24    2    4    4    0    0 -0.46413395035E+02  0.22347746649E+03 -0.85254287805E+02  0.25674526999E+03  0.80953436051E+02 0.  0.
         13    1    3    3    0    0  0.27050739012E+03  0.23846251697E+03  0.83880377311E+02  0.37023578677E+03  0.00000000000E+00 0.  1.
        -13    1    3    3    0    0  0.36401009940E+03  0.28252366221E+03  0.21170272633E+03  0.50709073794E+03  0.00000000000E+00 0. -1.
          4    1    6    6  502    0 -0.54093100229E+02  0.22460566477E+03 -0.89664841374E+02  0.24781757791E+03  0.00000000000E+00 0. -1.
          1    1    5    5  503    0 -0.26806694302E+03 -0.39994517062E+03 -0.51996269296E+03  0.70864464121E+03  0.00000000000E+00 0. -1.
         -2    1    5    5    0  503 -0.32003715146E+03 -0.34451847505E+03 -0.47283280873E+03  0.66684902563E+03  0.00000000000E+00 0.  1.
         -3    1    6    6    0  502  0.76797051941E+01 -0.11281982852E+01  0.44105535683E+01  0.89276920880E+01  0.00000000000E+00 0.  1.
<mgrwt>
<rscale>  0 0.23844632E+04</rscale>
<asrwt>0</asrwt>
<pdfrwt beam="1">  1        1 0.25323324E+00 0.23844632E+04</pdfrwt>
<pdfrwt beam="2">  1       -1 0.13285375E+00 0.23844632E+04</pdfrwt>
<totfact> 0.22345200E+00</totfact>
</mgrwt>
</event>
<event>
12    1  0.1114484E-007  0.1615273E+04  0.7818608E-02  0.8811220E-01
         -1   -1    0    0    0  501 -0.00000000000E+00  0.00000000000E+00  0.58881524491E+03  0.58881524491E+03  0.00000000000E+00 0.  1.
          1   -1    0    0  501    0  0.00000000000E+00 -0.00000000000E+00 -0.11077776337E+04  0.11077776337E+04  0.00000000000E+00 0. -1.
         23    2    1    2    0    0 -0.30222845836E+03  0.23662129981E+03 -0.59075447233E+03  0.71018989950E+03  0.89705998737E+02 0.  0.
        254    2    1    2    0    0  0.30222845836E+03 -0.23662129981E+03  0.71792083557E+02  0.98640297909E+03  0.90581733994E+03 0.  0.
        -24    2    4    4    0    0  0.14722682431E+01 -0.50534382413E+03  0.20740561863E+03  0.55311071404E+03  0.86832155219E+02 0.  0.
         24    2    4    4    0    0  0.30075619012E+03  0.26872252433E+03 -0.13561353507E+03  0.43329226505E+03  0.81762308466E+02 0.  0.
         11    1    3    3    0    0  0.10011284847E+01  0.59719356760E+01 -0.40296226878E+02  0.40748646291E+02  0.00000000000E+00 0.  1.
        -11    1    3    3    0    0 -0.30322958685E+03  0.23064936413E+03 -0.55045824545E+03  0.66944125321E+03  0.00000000000E+00 0. -1.
          2    1    6    6  502    0  0.26807656624E+02  0.21587169237E+02  0.11215087437E+02  0.36199924248E+02  0.00000000000E+00 0. -1.
          3    1    5    5  503    0  0.22747536771E+02 -0.15256868407E+03  0.99607553711E+02  0.18362003851E+03  0.00000000000E+00 0. -1.
         -4    1    5    5    0  503 -0.21275268528E+02 -0.35277514006E+03  0.10779806492E+03  0.36949067552E+03  0.00000000000E+00 0.  1.
         -1    1    6    6    0  502  0.27394853350E+03  0.24713535509E+03 -0.14682862251E+03  0.39709234081E+03  0.00000000000E+00 0.  1.
<mgrwt>
<rscale>  0 0.16152726E+04</rscale>
<asrwt>0</asrwt>
<pdfrwt beam="1">  1        1 0.17042733E+00 0.16152726E+04</pdfrwt>
<pdfrwt beam="2">  1       -1 0.90586962E-01 0.16152726E+04</pdfrwt>
<totfact> 0.14275916E+01</totfact>
</mgrwt>
</event>
<event>
12    1  0.1114484E-007  0.2581707E+04  0.7818608E-02  0.8374442E-01
         -2   -1    0    0    0  501 -0.00000000000E+00  0.00000000000E+00  0.20039080039E+04  0.20039080039E+04  0.00000000000E+00 0.  1.
          2   -1    0    0  501    0  0.00000000000E+00 -0.00000000000E+00 -0.83152662100E+03  0.83152662100E+03  0.00000000000E+00 0. -1.
         23    2    1    2    0    0 -0.10901686380E+04  0.14896488341E+03  0.22273499757E+03  0.11263655506E+04  0.91816548412E+02 0.  0.
        254    2    1    2    0    0  0.10901686380E+04 -0.14896488341E+03  0.94964638535E+03  0.17090690743E+04  0.89912771496E+03 0.  0.
        -24    2    4    4    0    0  0.53620899162E+03  0.23008374786E+03  0.60014736128E+02  0.59176746346E+03  0.78283769288E+02 0.  0.
         24    2    4    4    0    0  0.55395964641E+03 -0.37904863127E+03  0.88963164922E+03  0.11173016109E+04  0.79807666596E+02 0.  0.
         13    1    3    3    0    0 -0.23821226996E+03  0.71026420557E+02  0.53835145370E+02  0.25433847694E+03  0.00000000000E+00 0. -1.
        -13    1    3    3    0    0 -0.85195636808E+03  0.77938462858E+02  0.16889985220E+03  0.87202707365E+03  0.00000000000E+00 0.  1.
          2    1    6    6  502    0  0.17297920934E+03 -0.15003466924E+03  0.25835168760E+03  0.34522138307E+03  0.00000000000E+00 0. -1.
          3    1    5    5  503    0  0.50019803567E+03  0.23219760744E+03  0.65267780349E+02  0.55531404353E+03  0.00000000000E+00 0. -1.
         -4    1    5    5    0  503  0.36010955951E+02 -0.21138595889E+01 -0.52530442216E+01  0.36453419928E+02  0.00000000000E+00 0.  1.
         -1    1    6    6    0  502  0.38098043707E+03 -0.22901396204E+03  0.63127996161E+03  0.77208022781E+03  0.00000000000E+00 0.  1.
<mgrwt>
<rscale>  0 0.25817071E+04</rscale>
<asrwt>0</asrwt>
<pdfrwt beam="1">  1        2 0.12792717E+00 0.25817071E+04</pdfrwt>
<pdfrwt beam="2">  1       -2 0.30829354E+00 0.25817071E+04</pdfrwt>
<totfact> 0.81913464E-01</totfact>
</mgrwt>
</event>
<event>
12    1  0.1114484E-007  0.1216096E+04  0.7818608E-02  0.9098884E-01
          2   -1    0    0  501    0  0.00000000000E+00  0.00000000000E+00  0.12935141335E+04  0.12935141335E+04  0.00000000000E+00 0. -1.
         -2   -1    0    0    0  501 -0.00000000000E+00 -0.00000000000E+00 -0.28582772183E+03  0.28582772183E+03  0.00000000000E+00 0.  1.
         23    2    1    2    0    0 -0.18286798772E+03 -0.54964582134E+02  0.46655239272E+03  0.51295721458E+03  0.94827014197E+02 0.  0.
        254    2    1    2    0    0  0.18286798772E+03  0.54964582134E+02  0.54113401894E+03  0.10663846407E+04  0.89882610627E+03 0.  0.
        -24    2    4    4    0    0  0.41066552154E+03  0.22238325185E+03  0.60211621415E+03  0.76616905047E+03  0.79816021421E+02 0.  0.
         24    2    4    4    0    0 -0.22779753382E+03 -0.16741866972E+03 -0.60982195207E+02  0.30021559026E+03  0.80559574980E+02 0.  0.
         13    1    3    3    0    0 -0.55545302059E+01 -0.10942980654E+01 -0.41955320162E+01  0.70464730869E+01  0.00000000000E+00 0.  1.
        -13    1    3    3    0    0 -0.17731345752E+03 -0.53870284069E+02  0.47074792473E+03  0.50591074150E+03  0.00000000000E+00 0. -1.
          4    1    6    6  502    0 -0.20967718155E+03 -0.12337996364E+03 -0.34475730686E+02  0.24571469614E+03  0.00000000000E+00 0. -1.
          3    1    5    5  503    0  0.19678531500E+03  0.68961498731E+02  0.23110667729E+03  0.31127230008E+03  0.00000000000E+00 0. -1.
         -4    1    5    5    0  503  0.21388020654E+03  0.15342175312E+03  0.37100953686E+03  0.45489675040E+03  0.00000000000E+00 0.  1.
         -3    1    6    6    0  502 -0.18120352266E+02 -0.44038706074E+02 -0.26506464520E+02  0.54500894124E+02  0.00000000000E+00 0.  1.
<mgrwt>
<rscale>  0 0.12160957E+04</rscale>
<asrwt>0</asrwt>
<pdfrwt beam="1">  1        2 0.19900217E+00 0.12160957E+04</pdfrwt>
<pdfrwt beam="2">  1       -2 0.43973496E-01 0.12160957E+04</pdfrwt>
<totfact> 0.80575818E+01</totfact>
</mgrwt>
</event>
<event>
12    1  0.1114484E-007  0.1532863E+04  0.7818608E-02  0.8862889E-01
         -2   -1    0    0    0  501 -0.00000000000E+00  0.00000000000E+00  0.50766260181E+03  0.50766260181E+03  0.00000000000E+00 0.  1.
          2   -1    0    0  501    0  0.00000000000E+00 -0.00000000000E+00 -0.11571022930E+04  0.11571022930E+04  0.00000000000E+00 0. -1.
         23    2    1    2    0    0 -0.34062858726E+03 -0.71847832549E+02  0.57599234664E+02  0.36466601332E+03  0.92052615058E+02 0.  0.
        254    2    1    2    0    0  0.34062858726E+03  0.71847832549E+02 -0.70703892583E+03  0.13000988815E+04  0.10340034398E+04 0.  0.
        -24    2    4    4    0    0 -0.20894745937E+03 -0.21679052294E+03 -0.58500977886E+03  0.66267886413E+03  0.79054816335E+02 0.  0.
         24    2    4    4    0    0  0.54957604663E+03  0.28863835549E+03 -0.12202914696E+03  0.63742001733E+03  0.77892454664E+02 0.  0.
         11    1    3    3    0    0 -0.20039117071E+03 -0.42768972323E+02  0.79488890915E+02  0.21978236979E+03  0.00000000000E+00 0. -1.
        -11    1    3    3    0    0 -0.14023741655E+03 -0.29078860226E+02 -0.21889656251E+02  0.14488364353E+03  0.00000000000E+00 0.  1.
          4    1    6    6  502    0  0.22448609558E+03  0.77210620707E+02 -0.57981758587E+02  0.24437138005E+03  0.00000000000E+00 0. -1.
          3    1    5    5  503    0 -0.25001148106E+02 -0.23316103455E+02 -0.25192423160E+02  0.42465942491E+02  0.00000000000E+00 0. -1.
         -4    1    5    5    0  503 -0.18394631127E+03 -0.19347441949E+03 -0.55981735570E+03  0.62021292164E+03  0.00000000000E+00 0.  1.
         -3    1    6    6    0  502  0.32508995105E+03  0.21142773478E+03 -0.64047388374E+02  0.39304863728E+03  0.00000000000E+00 0.  1.
<mgrwt>
<rscale>  0 0.15328634E+04</rscale>
<asrwt>0</asrwt>
<pdfrwt beam="1">  1        2 0.17801574E+00 0.15328634E+04</pdfrwt>
<pdfrwt beam="2">  1       -2 0.78101939E-01 0.15328634E+04</pdfrwt>
<totfact> 0.28269038E+01</totfact>
</mgrwt>
</event>
<event>
12    1  0.1114484E-007  0.1306676E+04  0.7818608E-02  0.9024287E-01
         -1   -1    0    0    0  501 -0.00000000000E+00  0.00000000000E+00  0.73742995263E+03  0.73742995263E+03  0.00000000000E+00 0.  1.
          1   -1    0    0  501    0  0.00000000000E+00 -0.00000000000E+00 -0.57883567663E+03  0.57883567663E+03  0.00000000000E+00 0. -1.
         23    2    1    2    0    0 -0.91288640330E+02  0.35877135843E+02  0.35535944874E+03  0.37955614359E+03  0.90342368800E+02 0.  0.
        254    2    1    2    0    0  0.91288640330E+02 -0.35877135843E+02 -0.19676517274E+03  0.93670948566E+03  0.91054233432E+03 0.  0.
        -24    2    4    4    0    0 -0.52179041805E+02 -0.43299737120E+03 -0.24229495547E+03  0.50522888195E+03  0.79624128515E+02 0.  0.
         24    2    4    4    0    0  0.14346768214E+03  0.39712023536E+03  0.45529782726E+02  0.43148060371E+03  0.76256757813E+02 0.  0.
         13    1    3    3    0    0 -0.36839248405E+02  0.19772102980E+02  0.28990832503E+03  0.29290767009E+03  0.00000000000E+00 0.  1.
        -13    1    3    3    0    0 -0.54449391925E+02  0.16105032863E+02  0.65451123714E+02  0.86648473501E+02  0.00000000000E+00 0. -1.
          2    1    6    6  502    0  0.15199820134E+03  0.38342176675E+03  0.47691601347E+02  0.41519898033E+03  0.00000000000E+00 0. -1.
          1    1    5    5  503    0  0.74569619824E+01 -0.15963154830E+03 -0.12014884513E+03  0.19993394529E+03  0.00000000000E+00 0. -1.
         -2    1    5    5    0  503 -0.59636003788E+02 -0.27336582291E+03 -0.12214611034E+03  0.30529493666E+03  0.00000000000E+00 0.  1.
         -1    1    6    6    0  502 -0.85305192023E+01  0.13698468611E+02 -0.21618186213E+01  0.16281623381E+02  0.00000000000E+00 0.  1.
<mgrwt>
<rscale>  0 0.13066763E+04</rscale>
<asrwt>0</asrwt>
<pdfrwt beam="1">  1        1 0.89051642E-01 0.13066763E+04</pdfrwt>
<pdfrwt beam="2">  1       -1 0.11345076E+00 0.13066763E+04</pdfrwt>
<totfact> 0.25126954E+01</totfact>
</mgrwt>
</event>
<event>
12    1  0.1114484E-007  0.1232519E+04  0.7818608E-02  0.9084859E-01
          1   -1    0    0  501    0  0.00000000000E+00  0.00000000000E+00  0.69732882218E+03  0.69732882218E+03  0.00000000000E+00 0. -1.
         -1   -1    0    0    0  501 -0.00000000000E+00 -0.00000000000E+00 -0.54461502580E+03  0.54461502580E+03  0.00000000000E+00 0.  1.
         23    2    1    2    0    0  0.43865412065E+02  0.25164966461E+03  0.15606917654E+03  0.31299193301E+03  0.91403688067E+02 0.  0.
        254    2    1    2    0    0 -0.43865412065E+02 -0.25164966461E+03 -0.33553801543E+01  0.92895191497E+03  0.89313418571E+03 0.  0.
        -24    2    4    4    0    0  0.91296992647E+02  0.19867055988E+03 -0.29034931870E+03  0.37239268552E+03  0.81045993930E+02 0.  0.
         24    2    4    4    0    0 -0.13516240471E+03 -0.45032022449E+03  0.28699393854E+03  0.55655922945E+03  0.79595696490E+02 0.  0.
         11    1    3    3    0    0 -0.11819338893E+02  0.14249702291E+01 -0.16408068792E+01  0.12017468919E+02  0.00000000000E+00 0.  1.
        -11    1    3    3    0    0  0.55684750958E+02  0.25022469438E+03  0.15770998341E+03  0.30097446409E+03  0.00000000000E+00 0. -1.
          4    1    6    6  502    0  0.62271007001E+01 -0.50474454852E+02  0.16210970625E+02  0.53378300313E+02  0.00000000000E+00 0. -1.
          3    1    5    5  503    0  0.41309577349E+02  0.39471891700E+02 -0.33898116496E+02  0.66434883285E+02  0.00000000000E+00 0. -1.
         -4    1    5    5    0  503  0.49987415298E+02  0.15919866818E+03 -0.25645120220E+03  0.30595780224E+03  0.00000000000E+00 0.  1.
         -3    1    6    6    0  502 -0.14138950541E+03 -0.39984576964E+03  0.27078296792E+03  0.50318092914E+03  0.00000000000E+00 0.  1.
<mgrwt>
<rscale>  0 0.12325190E+04</rscale>
<asrwt>0</asrwt>
<pdfrwt beam="1">  1        1 0.10728136E+00 0.12325190E+04</pdfrwt>
<pdfrwt beam="2">  1       -1 0.83786927E-01 0.12325190E+04</pdfrwt>
<totfact> 0.38236747E+01</totfact>
</mgrwt>
</event>
<event>
12    1  0.1114484E-007  0.2381586E+04  0.7818608E-02  0.8446430E-01
          2   -1    0    0  501    0  0.00000000000E+00  0.00000000000E+00  0.10422635549E+04  0.10422635549E+04  0.00000000000E+00 0. -1.
         -2   -1    0    0    0  501 -0.00000000000E+00 -0.00000000000E+00 -0.13604892349E+04  0.13604892349E+04  0.00000000000E+00 0.  1.
         23    2    1    2    0    0  0.23434562853E+02  0.70317118345E+02  0.88874229017E+03  0.89539596984E+03  0.79858678950E+02 0.  0.
        254    2    1    2    0    0 -0.23434562853E+02 -0.70317118345E+02 -0.12069679702E+04  0.15073568200E+04  0.89992178864E+03 0.  0.
        -24    2    4    4    0    0 -0.95895768038E+02 -0.46325379216E+03 -0.51009465718E+03  0.70021731636E+03  0.79420756544E+02 0.  0.
         24    2    4    4    0    0  0.72461205185E+02  0.39293667381E+03 -0.69687331306E+03  0.80713950362E+03  0.78688677466E+02 0.  0.
         13    1    3    3    0    0 -0.14834272961E+02  0.62703610789E+02  0.40620929010E+03  0.41128795973E+03  0.00000000000E+00 0. -1.
        -13    1    3    3    0    0  0.38268835814E+02  0.76135075562E+01  0.48253300007E+03  0.48410801011E+03  0.00000000000E+00 0.  1.
          4    1    6    6  502    0  0.70028967809E+01 -0.93994954272E+00 -0.20774867699E+02  0.21943545665E+02  0.00000000000E+00 0. -1.
          1    1    5    5  503    0 -0.81818892717E+01 -0.23857549671E+01 -0.20168743535E+02  0.21895509919E+02  0.00000000000E+00 0. -1.
         -2    1    5    5    0  503 -0.87713878766E+02 -0.46086803719E+03 -0.48992591364E+03  0.67832180644E+03  0.00000000000E+00 0.  1.
         -3    1    6    6    0  502  0.65458308404E+02  0.39387662335E+03 -0.67609844536E+03  0.78519595795E+03  0.00000000000E+00 0.  1.
<mgrwt>
<rscale>  0 0.23815863E+04</rscale>
<asrwt>0</asrwt>
<pdfrwt beam="1">  1        2 0.16034824E+00 0.23815863E+04</pdfrwt>
<pdfrwt beam="2">  1       -2 0.20930604E+00 0.23815863E+04</pdfrwt>
<totfact> 0.24661074E+00</totfact>
</mgrwt>
</event>
<event>
12    1  0.1114484E-007  0.1957100E+04  0.7818608E-02  0.8626945E-01
         -1   -1    0    0    0  501 -0.00000000000E+00  0.00000000000E+00  0.65588564511E+03  0.65588564511E+03  0.00000000000E+00 0.  1.
          1   -1    0    0  501    0  0.00000000000E+00 -0.00000000000E+00 -0.14599492969E+04  0.14599492969E+04  0.00000000000E+00 0. -1.
         23    2    1    2    0    0  0.68261466632E+03  0.25717989803E+03 -0.57847137847E+03  0.93512492923E+03  0.87893201872E+02 0.  0.
        254    2    1    2    0    0 -0.68261466632E+03 -0.25717989803E+03 -0.22559227334E+03  0.11807100128E+04  0.90059978787E+03 0.  0.
        -24    2    4    4    0    0 -0.79071688826E+02 -0.23789441396E+03 -0.45885465633E+03  0.52895240248E+03  0.79981024515E+02 0.  0.
         24    2    4    4    0    0 -0.60354297749E+03 -0.19285484069E+02  0.23326238300E+03  0.65175761032E+03  0.75766666217E+02 0.  0.
         13    1    3    3    0    0  0.61613314704E+03  0.22427529269E+03 -0.48378539426E+03  0.81484217459E+03  0.00000000000E+00 0. -1.
        -13    1    3    3    0    0  0.66481519280E+02  0.32904605343E+02 -0.94685984205E+02  0.12028275464E+03  0.00000000000E+00 0.  1.
          4    1    6    6  502    0 -0.19741908714E+03 -0.41158016438E+02  0.85399447648E+02  0.21900078525E+03  0.00000000000E+00 0. -1.
          1    1    5    5  503    0 -0.22970218432E+01 -0.67530253148E+02 -0.18899740262E+03  0.20071280377E+03  0.00000000000E+00 0. -1.
         -2    1    5    5    0  503 -0.76774666983E+02 -0.17036416081E+03 -0.26985725371E+03  0.32823959871E+03  0.00000000000E+00 0.  1.
         -3    1    6    6    0  502 -0.40612389036E+03  0.21872532369E+02  0.14786293535E+03  0.43275682506E+03  0.00000000000E+00 0.  1.
<mgrwt>
<rscale>  0 0.19570997E+04</rscale>
<asrwt>0</asrwt>
<pdfrwt beam="1">  1        1 0.22460758E+00 0.19570997E+04</pdfrwt>
<pdfrwt beam="2">  1       -1 0.10090548E+00 0.19570997E+04</pdfrwt>
<totfact> 0.60627964E+00</totfact>
</mgrwt>
</event>
<event>
12    1  0.1114484E-007  0.1564380E+04  0.7818608E-02  0.8842735E-01
          2   -1    0    0  501    0  0.00000000000E+00  0.00000000000E+00  0.71644984294E+03  0.71644984294E+03  0.00000000000E+00 0. -1.
         -2   -1    0    0    0  501 -0.00000000000E+00 -0.00000000000E+00 -0.85396191938E+03  0.85396191938E+03  0.00000000000E+00 0.  1.
         23    2    1    2    0    0 -0.81162951636E+02  0.34363189525E+02  0.46660417555E+03  0.48342609882E+03  0.90626060599E+02 0.  0.
        254    2    1    2    0    0  0.81162951636E+02 -0.34363189525E+02 -0.60411625200E+03  0.10869856635E+04  0.89934038785E+03 0.  0.
        -24    2    4    4    0    0  0.24237121599E+02  0.40337982506E+03 -0.45627508912E+03  0.61472063206E+03  0.79948590950E+02 0.  0.
         24    2    4    4    0    0  0.56925830038E+02 -0.43774301459E+03 -0.14784116288E+03  0.47226503145E+03  0.79484297469E+02 0.  0.
         13    1    3    3    0    0  0.10914123427E+02  0.32539877395E+02  0.12594740098E+03  0.13054006866E+03  0.00000000000E+00 0.  1.
        -13    1    3    3    0    0 -0.92077075063E+02  0.18233121300E+01  0.34065677457E+03  0.35288603016E+03  0.00000000000E+00 0. -1.
          2    1    6    6  502    0  0.39094860796E+02 -0.42314519387E+03 -0.13495340052E+03  0.44586173142E+03  0.00000000000E+00 0. -1.
          1    1    5    5  503    0  0.41514138290E+02  0.10311197850E+03 -0.12043767156E+03  0.16389245413E+03  0.00000000000E+00 0. -1.
         -2    1    5    5    0  503 -0.17277016691E+02  0.30026784657E+03 -0.33583741755E+03  0.45082817793E+03  0.00000000000E+00 0.  1.
         -1    1    6    6    0  502  0.17830969242E+02 -0.14597820720E+02 -0.12887762356E+02  0.26403300029E+02  0.00000000000E+00 0.  1.
<mgrwt>
<rscale>  0 0.15643796E+04</rscale>
<asrwt>0</asrwt>
<pdfrwt beam="1">  1        2 0.11022305E+00 0.15643796E+04</pdfrwt>
<pdfrwt beam="2">  1       -2 0.13137876E+00 0.15643796E+04</pdfrwt>
<totfact> 0.16167727E+01</totfact>
</mgrwt>
</event>
<event>
12    1  0.1114484E-007  0.1240926E+04  0.7818608E-02  0.9077770E-01
         -2   -1    0    0    0  501 -0.00000000000E+00  0.00000000000E+00  0.24340460178E+03  0.24340460178E+03  0.00000000000E+00 0.  1.
          2   -1    0    0  501    0  0.00000000000E+00 -0.00000000000E+00 -0.15816230305E+04  0.15816230305E+04  0.00000000000E+00 0. -1.
         23    2    1    2    0    0  0.27366531757E+03 -0.41099530617E+02 -0.20165937375E+03  0.35269018831E+03  0.84510286046E+02 0.  0.
        254    2    1    2    0    0 -0.27366531757E+03  0.41099530617E+02 -0.11365590549E+04  0.14723374439E+04  0.89410803935E+03 0.  0.
        -24    2    4    4    0    0 -0.51228960335E+01 -0.38686127303E+03 -0.68247527541E+03  0.78843971798E+03  0.78592612312E+02 0.  0.
         24    2    4    4    0    0 -0.26854242154E+03  0.42796080365E+03 -0.45408377953E+03  0.68389772597E+03  0.79110929255E+02 0.  0.
         13    1    3    3    0    0  0.20209870913E+03 -0.49274337936E+02 -0.18584016757E+03  0.27894160051E+03  0.00000000000E+00 0. -1.
        -13    1    3    3    0    0  0.71566608442E+02  0.81748073190E+01 -0.15819206186E+02  0.73748587803E+02  0.00000000000E+00 0.  1.
          2    1    6    6  502    0 -0.26202858196E+03  0.37261622352E+03 -0.39943017424E+03  0.60584345493E+03  0.00000000000E+00 0. -1.
          1    1    5    5  503    0  0.32290619357E+02 -0.13256595163E+03 -0.20665958100E+03  0.24763803837E+03  0.00000000000E+00 0. -1.
         -2    1    5    5    0  503 -0.37413515391E+02 -0.25429532140E+03 -0.47581569441E+03  0.54080167961E+03  0.00000000000E+00 0.  1.
         -1    1    6    6    0  502 -0.65138395829E+01  0.55344580124E+02 -0.54653605292E+02  0.78054271034E+02  0.00000000000E+00 0.  1.
<mgrwt>
<rscale>  0 0.12409260E+04</rscale>
<asrwt>0</asrwt>
<pdfrwt beam="1">  1        2 0.24332662E+00 0.12409260E+04</pdfrwt>
<pdfrwt beam="2">  1       -2 0.37446863E-01 0.12409260E+04</pdfrwt>
<totfact> 0.75550779E+01</totfact>
</mgrwt>
</event>
<event>
12    1  0.1114484E-007  0.1259417E+04  0.7818608E-02  0.9062382E-01
         -1   -1    0    0    0  501 -0.00000000000E+00  0.00000000000E+00  0.61989518510E+03  0.61989518510E+03  0.00000000000E+00 0.  1.
          1   -1    0    0  501    0  0.00000000000E+00 -0.00000000000E+00 -0.63967670180E+03  0.63967670180E+03  0.00000000000E+00 0. -1.
         23    2    1    2    0    0  0.20614522180E+03 -0.89845542891E+02  0.18831147499E+03  0.30716944188E+03  0.91234754134E+02 0.  0.
        254    2    1    2    0    0 -0.20614522180E+03  0.89845542891E+02 -0.20809299169E+03  0.95240244502E+03  0.90177583137E+03 0.  0.
        -24    2    4    4    0    0 -0.17135798113E+03  0.24882862172E+03  0.28644249470E+03  0.42489380710E+03  0.84889362454E+02 0.  0.
         24    2    4    4    0    0 -0.34787240678E+02 -0.15898307883E+03 -0.49453548640E+03  0.52750863792E+03  0.84936707655E+02 0.  0.
         13    1    3    3    0    0  0.86059214091E+02 -0.58822684117E+02  0.13889036778E+03  0.17365722202E+03  0.00000000000E+00 0. -1.
        -13    1    3    3    0    0  0.12008600771E+03 -0.31022858774E+02  0.49421107213E+02  0.13351221986E+03  0.00000000000E+00 0.  1.
          2    1    6    6  502    0 -0.47284774591E+01 -0.14378041199E+02 -0.17314612937E+03  0.17380641151E+03  0.00000000000E+00 0. -1.
          1    1    5    5  503    0 -0.37972423877E+02  0.12355608990E+03  0.13977144887E+03  0.19037875471E+03  0.00000000000E+00 0. -1.
         -4    1    5    5    0  503 -0.13338555725E+03  0.12527253183E+03  0.14667104583E+03  0.23451505239E+03  0.00000000000E+00 0.  1.
         -1    1    6    6    0  502 -0.30058763219E+02 -0.14460503763E+03 -0.32138935703E+03  0.35370222641E+03  0.00000000000E+00 0.  1.
<mgrwt>
<rscale>  0 0.12594165E+04</rscale>
<asrwt>0</asrwt>
<pdfrwt beam="1">  1        1 0.98411799E-01 0.12594165E+04</pdfrwt>
<pdfrwt beam="2">  1       -1 0.95368491E-01 0.12594165E+04</pdfrwt>
<totfact> 0.32640926E+01</totfact>
</mgrwt>
</event>
<event>
12    1  0.1114484E-007  0.1542662E+04  0.7818608E-02  0.8856568E-01
         -1   -1    0    0    0  501 -0.00000000000E+00  0.00000000000E+00  0.30066865273E+03  0.30066865273E+03  0.00000000000E+00 0.  1.
          1   -1    0    0  501    0  0.00000000000E+00 -0.00000000000E+00 -0.19787624725E+04  0.19787624725E+04  0.00000000000E+00 0. -1.
         23    2    1    2    0    0  0.20050225474E+03  0.43961224818E+03 -0.74759638966E+03  0.89521985552E+03  0.95174287397E+02 0.  0.
        254    2    1    2    0    0 -0.20050225474E+03 -0.43961224818E+03 -0.93049743008E+03  0.13842112697E+04  0.90374514595E+03 0.  0.
        -24    2    4    4    0    0 -0.33984963680E+03 -0.44579954836E+03 -0.10439519803E+04  0.11871063368E+04  0.71768411592E+02 0.  0.
         24    2    4    4    0    0  0.13934738206E+03  0.61873001787E+01  0.11345455018E+03  0.19710493285E+03  0.80761649480E+02 0.  0.
         13    1    3    3    0    0  0.12859367970E+03  0.29697138540E+03 -0.57666902698E+03  0.66126810363E+03  0.00000000000E+00 0. -1.
        -13    1    3    3    0    0  0.71908575041E+02  0.14264086278E+03 -0.17092736269E+03  0.23395175189E+03  0.00000000000E+00 0.  1.
          2    1    6    6  502    0  0.32186577218E+02  0.11039890798E+01  0.77555686927E+02  0.83976658184E+02  0.00000000000E+00 0. -1.
          3    1    5    5  503    0 -0.34803451312E+02 -0.76169672400E+02 -0.19501007522E+03  0.21223107373E+03  0.00000000000E+00 0. -1.
         -4    1    5    5    0  503 -0.30504618549E+03 -0.36962987596E+03 -0.84894190504E+03  0.97487526311E+03  0.00000000000E+00 0.  1.
         -1    1    6    6    0  502  0.10716080484E+03  0.50833110989E+01  0.35898863254E+02  0.11312827467E+03  0.00000000000E+00 0.  1.
<mgrwt>
<rscale>  0 0.15426624E+04</rscale>
<asrwt>0</asrwt>
<pdfrwt beam="1">  1        1 0.30442498E+00 0.15426624E+04</pdfrwt>
<pdfrwt beam="2">  1       -1 0.46256718E-01 0.15426624E+04</pdfrwt>
<totfact> 0.13818667E+01</totfact>
</mgrwt>
</event>
<event>
12    1  0.1114484E-007  0.2347096E+04  0.7818608E-02  0.8459580E-01
         -2   -1    0    0    0  501 -0.00000000000E+00  0.00000000000E+00  0.15452191411E+04  0.15452191411E+04  0.00000000000E+00 0.  1.
          2   -1    0    0  501    0  0.00000000000E+00 -0.00000000000E+00 -0.89127483633E+03  0.89127483633E+03  0.00000000000E+00 0. -1.
         23    2    1    2    0    0  0.64549677404E+03  0.65929115114E+03  0.67221315280E+03  0.11453990441E+04  0.93474809745E+02 0.  0.
        254    2    1    2    0    0 -0.64549677404E+03 -0.65929115114E+03 -0.18268848063E+02  0.12910949333E+04  0.90291830684E+03 0.  0.
        -24    2    4    4    0    0 -0.72568007033E+03 -0.70298473979E+03  0.20711002494E+03  0.10342125009E+04  0.76823341254E+02 0.  0.
         24    2    4    4    0    0  0.80183296290E+02  0.43693588644E+02 -0.22537887300E+03  0.25688243243E+03  0.82791648165E+02 0.  0.
         13    1    3    3    0    0  0.60333523493E+03  0.63223016771E+03  0.65603252548E+03  0.10927520602E+04  0.00000000000E+00 0. -1.
        -13    1    3    3    0    0  0.42161539112E+02  0.27060983429E+02  0.16180627321E+02  0.52646983816E+02  0.00000000000E+00 0.  1.
          4    1    6    6  502    0  0.53408810903E+02  0.62536670937E+02 -0.19728862910E+03  0.21374316238E+03  0.00000000000E+00 0. -1.
          3    1    5    5  503    0 -0.68214465252E+03 -0.64759860394E+03  0.20984303612E+03  0.96371125271E+03  0.00000000000E+00 0. -1.
         -4    1    5    5    0  503 -0.43535417805E+02 -0.55386135842E+02 -0.27330111850E+01  0.70501248195E+02  0.00000000000E+00 0.  1.
         -3    1    6    6    0  502  0.26774485387E+02 -0.18843082294E+02 -0.28090243902E+02  0.43139270051E+02  0.00000000000E+00 0.  1.
<mgrwt>
<rscale>  0 0.23470960E+04</rscale>
<asrwt>0</asrwt>
<pdfrwt beam="1">  1        2 0.13711921E+00 0.23470960E+04</pdfrwt>
<pdfrwt beam="2">  1       -2 0.23772602E+00 0.23470960E+04</pdfrwt>
<totfact> 0.20537622E+00</totfact>
</mgrwt>
</event>
<event>
12    1  0.1114484E-007  0.2274728E+04  0.7818608E-02  0.8487953E-01
         -2   -1    0    0    0  501 -0.00000000000E+00  0.00000000000E+00  0.44609895471E+03  0.44609895471E+03  0.00000000000E+00 0. -1.
          2   -1    0    0  501    0  0.00000000000E+00 -0.00000000000E+00 -0.28997973542E+04  0.28997973542E+04  0.00000000000E+00 0.  1.
         23    2    1    2    0    0 -0.51778574934E+03  0.60015212545E+03 -0.22546060495E+03  0.82925978698E+03  0.92491372594E+02 0.  0.
        254    2    1    2    0    0  0.51778574934E+03 -0.60015212545E+03 -0.22282377945E+04  0.25166365219E+04  0.86030869959E+03 0.  0.
        -24    2    4    4    0    0  0.61425552241E+03 -0.28257488696E+03 -0.81106313881E+03  0.10588329521E+04  0.78392549313E+02 0.  0.
         24    2    4    4    0    0 -0.96469773073E+02 -0.31757723849E+03 -0.14171746557E+04  0.14578035698E+04  0.81520082199E+02 0.  0.
         11    1    3    3    0    0 -0.45258421888E+03  0.52713957882E+03 -0.16463206351E+03  0.71401143343E+03  0.00000000000E+00 0. -1.
        -11    1    3    3    0    0 -0.65201530465E+02  0.73012546632E+02 -0.60828541445E+02  0.11524835355E+03  0.00000000000E+00 0.  1.
          2    1    6    6  502    0  0.10511044166E+02 -0.27850494412E+02 -0.19236644235E+03  0.19465605624E+03  0.00000000000E+00 0. -1.
          1    1    5    5  503    0  0.16393378234E+03 -0.60027523242E+02 -0.16255835885E+03  0.23854309583E+03  0.00000000000E+00 0. -1.
         -2    1    5    5    0  503  0.45032174008E+03 -0.22254736372E+03 -0.64850477996E+03  0.82028985628E+03  0.00000000000E+00 0.  1.
         -3    1    6    6    0  502 -0.10698081724E+03 -0.28972674408E+03 -0.12248082134E+04  0.12631475136E+04  0.00000000000E+00 0.  1.
<mgrwt>
<rscale>  0 0.22747277E+04</rscale>
<asrwt>0</asrwt>
<pdfrwt beam="1">  1        2 0.44612267E+00 0.22747277E+04</pdfrwt>
<pdfrwt beam="2">  1       -2 0.68630608E-01 0.22747277E+04</pdfrwt>
<totfact> 0.35456770E+00</totfact>
</mgrwt>
</event>
<event>
12    1  0.1114484E-007  0.1839054E+04  0.7818608E-02  0.8685802E-01
          1   -1    0    0  501    0  0.00000000000E+00  0.00000000000E+00  0.27979657429E+04  0.27979657429E+04  0.00000000000E+00 0. -1.
         -1   -1    0    0    0  501 -0.00000000000E+00 -0.00000000000E+00 -0.30219459342E+03  0.30219459342E+03  0.00000000000E+00 0.  1.
         23    2    1    2    0    0 -0.28893743438E+03 -0.62006935139E+03  0.74909401193E+03  0.10185641513E+04  0.91434403240E+02 0.  0.
        254    2    1    2    0    0  0.28893743438E+03  0.62006935139E+03  0.17466771376E+04  0.20815961850E+04  0.90232522582E+03 0.  0.
        -24    2    4    4    0    0 -0.44068565405E+02  0.71825471773E+03  0.14375493267E+04  0.16097869393E+04  0.83869214919E+02 0.  0.
         24    2    4    4    0    0  0.33300599979E+03 -0.98185366341E+02  0.30912781085E+03  0.47180924573E+03  0.80688282048E+02 0.  0.
         11    1    3    3    0    0 -0.16250084535E+03 -0.38358941624E+03  0.39226417881E+03  0.57220499033E+03  0.00000000000E+00 0. -1.
        -11    1    3    3    0    0 -0.12643658903E+03 -0.23647993515E+03  0.35682983313E+03  0.44635916097E+03  0.00000000000E+00 0.  1.
          4    1    6    6  502    0  0.15419487143E+03 -0.28056547825E+02  0.91241568546E+02  0.18135118439E+03  0.00000000000E+00 0. -1.
          1    1    5    5  503    0 -0.40656252805E+02  0.26557382288E+03  0.60909314577E+03  0.66571528938E+03  0.00000000000E+00 0. -1.
         -2    1    5    5    0  503 -0.34123125993E+01  0.45268089485E+03  0.82845618093E+03  0.94407164991E+03  0.00000000000E+00 0.  1.
         -1    1    6    6    0  502  0.17881112836E+03 -0.70128818516E+02  0.21788624230E+03  0.29045806134E+03  0.00000000000E+00 0.  1.
<mgrwt>
<rscale>  0 0.18390542E+04</rscale>
<asrwt>0</asrwt>
<pdfrwt beam="1">  1        1 0.43045625E+00 0.18390542E+04</pdfrwt>
<pdfrwt beam="2">  1       -1 0.46491478E-01 0.18390542E+04</pdfrwt>
<totfact> 0.36298712E+00</totfact>
</mgrwt>
</event>
<event>
12    1  0.1114484E-007  0.1810584E+04  0.7818608E-02  0.8700691E-01
         -2   -1    0    0    0  501 -0.00000000000E+00  0.00000000000E+00  0.27276088260E+03  0.27276088260E+03  0.00000000000E+00 0.  1.
          2   -1    0    0  501    0  0.00000000000E+00 -0.00000000000E+00 -0.30046595220E+04  0.30046595220E+04  0.00000000000E+00 0. -1.
         23    2    1    2    0    0  0.14042545610E+03 -0.18097315271E+03  0.12687409115E+03  0.27977557236E+03  0.98522815436E+02 0.  0.
        254    2    1    2    0    0 -0.14042545610E+03  0.18097315271E+03 -0.28587727305E+04  0.29976448322E+04  0.87225135397E+03 0.  0.
        -24    2    4    4    0    0 -0.81206902532E+02 -0.22042445156E+02  0.13994050109E+02  0.11605278129E+03  0.78689161887E+02 0.  0.
         24    2    4    4    0    0 -0.59218553567E+02  0.20301559787E+03 -0.28727667807E+04  0.28815920509E+04  0.77856290097E+02 0.  0.
         11    1    3    3    0    0  0.66230163548E+02 -0.87011074531E+02  0.11622423605E+03  0.15957892937E+03  0.00000000000E+00 0.  1.
        -11    1    3    3    0    0  0.74195292551E+02 -0.93962078181E+02  0.10649855109E+02  0.12019664299E+03  0.00000000000E+00 0. -1.
          4    1    6    6  502    0 -0.47461741143E+02  0.19204665877E+03 -0.22678949146E+04  0.22765065077E+04  0.00000000000E+00 0. -1.
          3    1    5    5  503    0 -0.92541000497E+02 -0.26718810483E+01  0.86522919495E+01  0.92982997786E+02  0.00000000000E+00 0. -1.
         -4    1    5    5    0  503  0.11334097964E+02 -0.19370564108E+02  0.53417581595E+01  0.23069783501E+02  0.00000000000E+00 0.  1.
         -3    1    6    6    0  502 -0.11756812424E+02  0.10968939096E+02 -0.60487186605E+03  0.60508554321E+03  0.00000000000E+00 0.  1.
<mgrwt>
<rscale>  0 0.18105840E+04</rscale>
<asrwt>0</asrwt>
<pdfrwt beam="1">  1        2 0.46225531E+00 0.18105840E+04</pdfrwt>
<pdfrwt beam="2">  1       -2 0.41963213E-01 0.18105840E+04</pdfrwt>
<totfact> 0.88130613E+00</totfact>
</mgrwt>
</event>
<event>
12    1  0.1114484E-007  0.1119268E+04  0.7818608E-02  0.9186613E-01
         -2   -1    0    0    0  501 -0.00000000000E+00  0.00000000000E+00  0.22048001658E+03  0.22048001658E+03  0.00000000000E+00 0.  1.
          2   -1    0    0  501    0  0.00000000000E+00 -0.00000000000E+00 -0.14204917836E+04  0.14204917836E+04  0.00000000000E+00 0. -1.
         23    2    1    2    0    0  0.98297364729E+02 -0.36145561210E+01  0.70527292656E+01  0.13440273511E+03  0.91317672363E+02 0.  0.
        254    2    1    2    0    0 -0.98297364729E+02  0.36145561210E+01 -0.12070644963E+04  0.15065690651E+04  0.89614184854E+03 0.  0.
        -24    2    4    4    0    0 -0.38696831342E+03 -0.12487774925E+03 -0.10806123703E+04  0.11573143223E+04  0.79463311616E+02 0.  0.
         24    2    4    4    0    0  0.28867094869E+03  0.12849230538E+03 -0.12645212607E+03  0.34925474285E+03  0.78406288385E+02 0.  0.
         13    1    3    3    0    0  0.96781422122E+02  0.19016159873E+02 -0.18375092909E+02  0.10032896911E+03  0.00000000000E+00 0. -1.
        -13    1    3    3    0    0  0.15159426076E+01 -0.22630715994E+02  0.25427822175E+02  0.34073765993E+02  0.00000000000E+00 0.  1.
          4    1    6    6  502    0  0.21149705638E+03  0.67355170462E+02 -0.58236135955E+02  0.22947586230E+03  0.00000000000E+00 0. -1.
          1    1    5    5  503    0 -0.36180513975E+03 -0.13458312525E+03 -0.10300549431E+04  0.11000130738E+04  0.00000000000E+00 0. -1.
         -2    1    5    5    0  503 -0.25163173671E+02  0.97053759909E+01 -0.50557427132E+02  0.57301248420E+02  0.00000000000E+00 0.  1.
         -3    1    6    6    0  502  0.77173892309E+02  0.61137134913E+02 -0.68215990116E+02  0.11977888055E+03  0.00000000000E+00 0.  1.
<mgrwt>
<rscale>  0 0.11192677E+04</rscale>
<asrwt>0</asrwt>
<pdfrwt beam="1">  1        2 0.21853719E+00 0.11192677E+04</pdfrwt>
<pdfrwt beam="2">  1       -2 0.33920004E-01 0.11192677E+04</pdfrwt>
<totfact> 0.11352007E+02</totfact>
</mgrwt>
</event>
<event>
12    1  0.1114484E-007  0.1285322E+04  0.7818608E-02  0.9041287E-01
          2   -1    0    0  501    0  0.00000000000E+00  0.00000000000E+00  0.34014731306E+03  0.34014731306E+03  0.00000000000E+00 0. -1.
         -2   -1    0    0    0  501 -0.00000000000E+00 -0.00000000000E+00 -0.12142177824E+04  0.12142177824E+04  0.00000000000E+00 0.  1.
         23    2    1    2    0    0 -0.46202124363E+02  0.31641499782E+03 -0.22788440238E+03  0.40199879658E+03  0.86131553227E+02 0.  0.
        254    2    1    2    0    0  0.46202124363E+02 -0.31641499782E+03 -0.64618606698E+03  0.11523662989E+04  0.89896527550E+03 0.  0.
        -24    2    4    4    0    0 -0.33140884408E+02  0.16546502080E+03 -0.63074516143E+03  0.65781529389E+03  0.80028188090E+02 0.  0.
         24    2    4    4    0    0  0.79343008770E+02 -0.48188001862E+03 -0.15440905556E+02  0.49455100501E+03  0.76410795080E+02 0.  0.
         13    1    3    3    0    0 -0.17974693315E+02  0.52694259551E+02 -0.56280699246E+01  0.55959358113E+02  0.00000000000E+00 0. -1.
        -13    1    3    3    0    0 -0.28227431048E+02  0.26372073827E+03 -0.22225633246E+03  0.34603943847E+03  0.00000000000E+00 0.  1.
          4    1    6    6  502    0  0.27363807737E+02 -0.17619032792E+03 -0.42491832078E+02  0.18329584125E+03  0.00000000000E+00 0. -1.
          3    1    5    5  503    0 -0.47102787326E+02  0.10095555535E+03 -0.28846241882E+03  0.30922688079E+03  0.00000000000E+00 0. -1.
         -4    1    5    5    0  503  0.13961902919E+02  0.64509465454E+02 -0.34228274260E+03  0.34858841310E+03  0.00000000000E+00 0.  1.
         -3    1    6    6    0  502  0.51979201034E+02 -0.30568969071E+03  0.27050926522E+02  0.31125516377E+03  0.00000000000E+00 0.  1.
<mgrwt>
<rscale>  0 0.12853216E+04</rscale>
<asrwt>0</asrwt>
<pdfrwt beam="1">  1        2 0.52330355E-01 0.12853216E+04</pdfrwt>
<pdfrwt beam="2">  1       -2 0.18680274E+00 0.12853216E+04</pdfrwt>
<totfact> 0.15232670E+01</totfact>
</mgrwt>
</event>
<event>
12    1  0.1114484E-007  0.1999529E+04  0.7818608E-02  0.8606841E-01
         -1   -1    0    0    0  501 -0.00000000000E+00  0.00000000000E+00  0.61073456612E+03  0.61073456612E+03  0.00000000000E+00 0.  1.
          1   -1    0    0  501    0  0.00000000000E+00 -0.00000000000E+00 -0.16366014451E+04  0.16366014451E+04  0.00000000000E+00 0. -1.
         23    2    1    2    0    0  0.30914841525E+03  0.42682810161E+03  0.26284992041E+03  0.59629162405E+03  0.93373707617E+02 0.  0.
        254    2    1    2    0    0 -0.30914841525E+03 -0.42682810161E+03 -0.12887167993E+04  0.16510443871E+04  0.88735652833E+03 0.  0.
        -24    2    4    4    0    0  0.29494750744E+02  0.10212511089E+03 -0.89440567910E+03  0.90453755945E+03  0.83229796662E+02 0.  0.
         24    2    4    4    0    0 -0.33864316599E+03 -0.52895321250E+03 -0.39431112025E+03  0.74650682768E+03  0.85559858199E+02 0.  0.
         11    1    3    3    0    0  0.85684896227E+02  0.12707676708E+03  0.12511029477E+03  0.19784587948E+03  0.00000000000E+00 0. -1.
        -11    1    3    3    0    0  0.22346351902E+03  0.29975133453E+03  0.13773962564E+03  0.39844574456E+03  0.00000000000E+00 0.  1.
          2    1    6    6  502    0 -0.46939198344E+02 -0.10618495074E+03 -0.10746478161E+03  0.15819990958E+03  0.00000000000E+00 0. -1.
          1    1    5    5  503    0 -0.12019747500E+01  0.15370128319E+02 -0.19754210616E+02  0.25058220705E+02  0.00000000000E+00 0. -1.
         -2    1    5    5    0  503  0.30696725494E+02  0.86754982568E+02 -0.87465146848E+03  0.87947933874E+03  0.00000000000E+00 0.  1.
         -1    1    6    6    0  502 -0.29170396765E+03 -0.42276826176E+03 -0.28684633863E+03  0.58830691810E+03  0.00000000000E+00 0.  1.
<mgrwt>
<rscale>  0 0.19995290E+04</rscale>
<asrwt>0</asrwt>
<pdfrwt beam="1">  1        1 0.25178483E+00 0.19995290E+04</pdfrwt>
<pdfrwt beam="2">  1       -1 0.93959167E-01 0.19995290E+04</pdfrwt>
<totfact> 0.53619253E+00</totfact>
</mgrwt>
</event>
<event>
12    1  0.1114484E-007  0.1344910E+04  0.7818608E-02  0.8994690E-01
         -1   -1    0    0    0  501 -0.00000000000E+00  0.00000000000E+00  0.60494512172E+03  0.60494512172E+03  0.00000000000E+00 0.  1.
          1   -1    0    0  501    0  0.00000000000E+00 -0.00000000000E+00 -0.74749894616E+03  0.74749894616E+03  0.00000000000E+00 0. -1.
         23    2    1    2    0    0 -0.30944989727E+03  0.16053808205E+03  0.60613804132E+02  0.36535147596E+03  0.90972265146E+02 0.  0.
        254    2    1    2    0    0  0.30944989727E+03 -0.16053808205E+03 -0.20316762856E+03  0.98709259192E+03  0.90085680606E+03 0.  0.
        -24    2    4    4    0    0  0.54248791810E+03 -0.35052075905E+01  0.10861619868E+03  0.55905592361E+03  0.80253469301E+02 0.  0.
         24    2    4    4    0    0 -0.23303802084E+03 -0.15703287446E+03 -0.31178382724E+03  0.42803666832E+03  0.83905850083E+02 0.  0.
         13    1    3    3    0    0 -0.72925889993E+02  0.40951979171E+02  0.55290942068E+02  0.10026135000E+03  0.00000000000E+00 0. -1.
        -13    1    3    3    0    0 -0.23652400727E+03  0.11958610288E+03  0.53228620641E+01  0.26509012595E+03  0.00000000000E+00 0.  1.
          4    1    6    6  502    0  0.39966173116E+01  0.25407470239E+01  0.48728731378E+00  0.47608606681E+01  0.00000000000E+00 0. -1.
          3    1    5    5  503    0  0.31902115974E+03 -0.41442329529E+02  0.66934039817E+02  0.32859113306E+03  0.00000000000E+00 0. -1.
         -4    1    5    5    0  503  0.22346675836E+03  0.37937121939E+02  0.41682158861E+02  0.23046479054E+03  0.00000000000E+00 0.  1.
         -3    1    6    6    0  502 -0.23703463815E+03 -0.15957362148E+03 -0.31227111456E+03  0.42327580765E+03  0.00000000000E+00 0.  1.
<mgrwt>
<rscale>  0 0.13449102E+04</rscale>
<asrwt>0</asrwt>
<pdfrwt beam="1">  1        1 0.11499984E+00 0.13449102E+04</pdfrwt>
<pdfrwt beam="2">  1       -1 0.93068480E-01 0.13449102E+04</pdfrwt>
<totfact> 0.27043755E+01</totfact>
</mgrwt>
</event>
<event>
12    1  0.1114484E-007  0.1525681E+04  0.7818608E-02  0.8867553E-01
         -2   -1    0    0    0  501 -0.00000000000E+00  0.00000000000E+00  0.31535908025E+03  0.31535908025E+03  0.00000000000E+00 0. -1.
          2   -1    0    0  501    0  0.00000000000E+00 -0.00000000000E+00 -0.18452783690E+04  0.18452783690E+04  0.00000000000E+00 0.  1.
         23    2    1    2    0    0 -0.45881069042E+03  0.18250133873E+03 -0.48617959286E+03  0.69926640486E+03  0.93749240941E+02 0.  0.
        254    2    1    2    0    0  0.45881069042E+03 -0.18250133873E+03 -0.10437396959E+04  0.14613710444E+04  0.89576715073E+03 0.  0.
        -24    2    4    4    0    0  0.37185916935E+02  0.21139702913E+03 -0.79630909392E+03  0.82857212827E+03  0.79700077471E+02 0.  0.
         24    2    4    4    0    0  0.42162477348E+03 -0.39389836787E+03 -0.24743060196E+03  0.63279891611E+03  0.79304423700E+02 0.  0.
         13    1    3    3    0    0 -0.66479240327E+02  0.64571269007E+02 -0.81334889582E+02  0.12330572752E+03  0.00000000000E+00 0. -1.
        -13    1    3    3    0    0 -0.39233145009E+03  0.11793006973E+03 -0.40484470328E+03  0.57596067734E+03  0.00000000000E+00 0.  1.
          4    1    6    6  502    0  0.18860229991E+03 -0.15580945581E+03 -0.65681417023E+02  0.25330113027E+03  0.00000000000E+00 0. -1.
          3    1    5    5  503    0  0.23463376568E+02  0.15982923080E+03 -0.70069219891E+03  0.71907264631E+03  0.00000000000E+00 0. -1.
         -4    1    5    5    0  503  0.13722540367E+02  0.51567798333E+02 -0.95616895007E+02  0.10949948196E+03  0.00000000000E+00 0.  1.
         -3    1    6    6    0  502  0.23302247357E+03 -0.23808891205E+03 -0.18174918493E+03  0.37949778584E+03  0.00000000000E+00 0.  1.
<mgrwt>
<rscale>  0 0.15256806E+04</rscale>
<asrwt>0</asrwt>
<pdfrwt beam="1">  1        2 0.28388899E+00 0.15256806E+04</pdfrwt>
<pdfrwt beam="2">  1       -2 0.48516781E-01 0.15256806E+04</pdfrwt>
<totfact> 0.31598969E+01</totfact>
</mgrwt>
</event>
<event>
12    1  0.1114484E-007  0.1120251E+04  0.7818608E-02  0.9185676E-01
          1   -1    0    0  501    0  0.00000000000E+00  0.00000000000E+00  0.87511527975E+03  0.87511527975E+03  0.00000000000E+00 0. -1.
         -1   -1    0    0    0  501 -0.00000000000E+00 -0.00000000000E+00 -0.35851349603E+03  0.35851349603E+03  0.00000000000E+00 0.  1.
         23    2    1    2    0    0  0.17182928968E+02 -0.10795674714E+03  0.25549136506E+03  0.29246051570E+03  0.91144957739E+02 0.  0.
        254    2    1    2    0    0 -0.17182928968E+02  0.10795674714E+03  0.26111041866E+03  0.94116826008E+03  0.89759073678E+03 0.  0.
        -24    2    4    4    0    0  0.99836711111E+02  0.35903867884E+03  0.45553470297E+03  0.59389874146E+03  0.79546889970E+02 0.  0.
         24    2    4    4    0    0 -0.11701964008E+03 -0.25108193170E+03 -0.19442428431E+03  0.34726951862E+03  0.77843327532E+02 0.  0.
         13    1    3    3    0    0 -0.14550373128E+02 -0.90240231889E+02  0.23155280456E+03  0.24894118605E+03  0.00000000000E+00 0. -1.
        -13    1    3    3    0    0  0.31733302096E+02 -0.17716515250E+02  0.23938560495E+02  0.43519329649E+02  0.00000000000E+00 0.  1.
          2    1    6    6  502    0 -0.46374304860E+02 -0.79704651027E+02 -0.11012388475E+03  0.14363383146E+03  0.00000000000E+00 0. -1.
          3    1    5    5  503    0  0.81435898437E+02  0.34873258485E+03  0.44187857729E+03  0.56877315193E+03  0.00000000000E+00 0. -1.
         -4    1    5    5    0  503  0.18400812674E+02  0.10306093989E+02  0.13656125686E+02  0.25125589528E+02  0.00000000000E+00 0.  1.
         -1    1    6    6    0  502 -0.70645335219E+02 -0.17137728068E+03 -0.84300399560E+02  0.20363568716E+03  0.00000000000E+00 0.  1.
<mgrwt>
<rscale>  0 0.11202511E+04</rscale>
<asrwt>0</asrwt>
<pdfrwt beam="1">  1        1 0.13463312E+00 0.11202511E+04</pdfrwt>
<pdfrwt beam="2">  1       -1 0.55155923E-01 0.11202511E+04</pdfrwt>
<totfact> 0.63082062E+01</totfact>
</mgrwt>
</event>
<event>
12    1  0.1114484E-007  0.1808940E+04  0.7818608E-02  0.8701560E-01
         -1   -1    0    0    0  501 -0.00000000000E+00  0.00000000000E+00  0.10886517816E+04  0.10886517816E+04  0.00000000000E+00 0.  1.
          1   -1    0    0  501    0  0.00000000000E+00 -0.00000000000E+00 -0.75144850953E+03  0.75144850953E+03  0.00000000000E+00 0. -1.
         23    2    1    2    0    0  0.20433561022E+03 -0.45667138234E+03 -0.33798844747E+03  0.61051496371E+03  0.90501586973E+02 0.  0.
        254    2    1    2    0    0 -0.20433561022E+03  0.45667138234E+03  0.67519171958E+03  0.12295853275E+04  0.89760482746E+03 0.  0.
        -24    2    4    4    0    0 -0.13134583153E+03 -0.25379189755E+03  0.28687528861E+03  0.41268694376E+03  0.79693334788E+02 0.  0.
         24    2    4    4    0    0 -0.72989778690E+02  0.71046327989E+03  0.38831643097E+03  0.81689838371E+03  0.80297813622E+02 0.  0.
         13    1    3    3    0    0  0.28159895439E+02 -0.63227096743E+02 -0.88799888035E+02  0.11258803484E+03  0.00000000000E+00 0.  1.
        -13    1    3    3    0    0  0.17617571478E+03 -0.39344428560E+03 -0.24918855943E+03  0.49792692887E+03  0.00000000000E+00 0. -1.
          2    1    6    6  502    0  0.15783425534E+02  0.54472799753E+02  0.32264204102E+02  0.65248611486E+02  0.00000000000E+00 0. -1.
          1    1    5    5  503    0 -0.42719824529E+02 -0.41426863568E+02  0.26336508838E+02  0.65075188287E+02  0.00000000000E+00 0. -1.
         -2    1    5    5    0  503 -0.88626006999E+02 -0.21236503398E+03  0.26053877978E+03  0.34761175547E+03  0.00000000000E+00 0.  1.
         -1    1    6    6    0  502 -0.88773204224E+02  0.65599048014E+03  0.35605222687E+03  0.75164977222E+03  0.00000000000E+00 0.  1.
<mgrwt>
<rscale>  0 0.18089398E+04</rscale>
<asrwt>0</asrwt>
<pdfrwt beam="1">  1        1 0.11560746E+00 0.18089398E+04</pdfrwt>
<pdfrwt beam="2">  1       -1 0.16748489E+00 0.18089398E+04</pdfrwt>
<totfact> 0.59128817E+00</totfact>
</mgrwt>
</event>
<event>
12    1  0.1114484E-007  0.1286400E+04  0.7818608E-02  0.9040420E-01
          2   -1    0    0  501    0  0.00000000000E+00  0.00000000000E+00  0.16798655489E+04  0.16798655489E+04  0.00000000000E+00 0. -1.
         -2   -1    0    0    0  501 -0.00000000000E+00 -0.00000000000E+00 -0.24627331246E+03  0.24627331246E+03  0.00000000000E+00 0.  1.
         23    2    1    2    0    0 -0.13611760624E+02  0.71295287615E+02 -0.97855479717E+02  0.15443693800E+03  0.94904029657E+02 0.  0.
        254    2    1    2    0    0  0.13611760624E+02 -0.71295287615E+02  0.15314477161E+04  0.17717019233E+04  0.88787797577E+03 0.  0.
        -24    2    4    4    0    0 -0.19674959145E+02  0.35885264458E+03  0.10850320236E+04  0.11458438465E+04  0.80630662818E+02 0.  0.
         24    2    4    4    0    0  0.33286719769E+02 -0.43014793220E+03  0.44641569254E+03  0.62585807684E+03  0.79221919449E+02 0.  0.
         13    1    3    3    0    0  0.24778116685E+01  0.30969616889E+02 -0.10582781600E+03  0.11029407672E+03  0.00000000000E+00 0.  1.
        -13    1    3    3    0    0 -0.16089572293E+02  0.40325670726E+02  0.79723362822E+01  0.44142861279E+02  0.00000000000E+00 0. -1.
          4    1    6    6  502    0  0.27868509654E+02 -0.41394377669E+03  0.39961763602E+03  0.57603850489E+03  0.00000000000E+00 0. -1.
          1    1    5    5  503    0 -0.48943018957E+02  0.27937163256E+03  0.83628600278E+03  0.88307316040E+03  0.00000000000E+00 0. -1.
         -2    1    5    5    0  503  0.29268059812E+02  0.79481012024E+02  0.24874602081E+03  0.26277068608E+03  0.00000000000E+00 0.  1.
         -3    1    6    6    0  502  0.54182101154E+01 -0.16204155505E+02  0.46798056511E+02  0.49819571954E+02  0.00000000000E+00 0.  1.
<mgrwt>
<rscale>  0 0.12863997E+04</rscale>
<asrwt>0</asrwt>
<pdfrwt beam="1">  1        2 0.25844085E+00 0.12863997E+04</pdfrwt>
<pdfrwt beam="2">  1       -2 0.37888203E-01 0.12863997E+04</pdfrwt>
<totfact> 0.64897022E+01</totfact>
</mgrwt>
</event>
<event>
12    1  0.1114484E-007  0.1577990E+04  0.7818608E-02  0.8834185E-01
          1   -1    0    0  501    0  0.00000000000E+00  0.00000000000E+00  0.25523811050E+03  0.25523811050E+03  0.00000000000E+00 0. -1.
         -1   -1    0    0    0  501 -0.00000000000E+00 -0.00000000000E+00 -0.24389501553E+04  0.24389501553E+04  0.00000000000E+00 0.  1.
         23    2    1    2    0    0  0.48253248591E+03  0.91624567393E+02 -0.42049028813E+03  0.65486177579E+03  0.10391920737E+03 0.  0.
        254    2    1    2    0    0 -0.48253248591E+03 -0.91624567393E+02 -0.17632217567E+04  0.20393264900E+04  0.89926020059E+03 0.  0.
        -24    2    4    4    0    0 -0.61425246815E+03 -0.31258153198E+03 -0.90706415207E+03  0.11418253118E+04  0.77371557714E+02 0.  0.
         24    2    4    4    0    0  0.13171998224E+03  0.22095696459E+03 -0.85615760459E+03  0.89750117821E+03  0.79563729527E+02 0.  0.
         13    1    3    3    0    0  0.66364484498E+02  0.32744132355E+02 -0.26049739176E+02  0.78453884018E+02  0.00000000000E+00 0.  1.
        -13    1    3    3    0    0  0.41616800141E+03  0.58880435038E+02 -0.39444054896E+03  0.57640789177E+03  0.00000000000E+00 0. -1.
          4    1    6    6  502    0  0.12710732501E+03  0.21523827562E+03 -0.85401838701E+03  0.88984897185E+03  0.00000000000E+00 0. -1.
          3    1    5    5  503    0 -0.36738424265E+03 -0.20289277091E+03 -0.49317650037E+03  0.64757989372E+03  0.00000000000E+00 0. -1.
         -4    1    5    5    0  503 -0.24686822550E+03 -0.10968876107E+03 -0.41388765170E+03  0.49424541808E+03  0.00000000000E+00 0.  1.
         -3    1    6    6    0  502  0.46126572272E+01  0.57186889651E+01 -0.21392175883E+01  0.76522063528E+01  0.00000000000E+00 0.  1.
<mgrwt>
<rscale>  0 0.15779899E+04</rscale>
<asrwt>0</asrwt>
<pdfrwt beam="1">  1        1 0.39267400E-01 0.15779899E+04</pdfrwt>
<pdfrwt beam="2">  1       -1 0.37522311E+00 0.15779899E+04</pdfrwt>
<totfact> 0.11021101E+00</totfact>
</mgrwt>
</event>
<event>
12    1  0.1114484E-007  0.1363151E+04  0.7818608E-02  0.8980932E-01
          1   -1    0    0  501    0  0.00000000000E+00  0.00000000000E+00  0.31803208548E+03  0.31803208548E+03  0.00000000000E+00 0. -1.
         -1   -1    0    0    0  501 -0.00000000000E+00 -0.00000000000E+00 -0.14606858262E+04  0.14606858262E+04  0.00000000000E+00 0.  1.
         23    2    1    2    0    0  0.97552522849E+02 -0.20734289620E+03  0.58556357163E+02  0.25371791930E+03  0.91849683130E+02 0.  0.
        254    2    1    2    0    0 -0.97552522849E+02  0.20734289620E+03 -0.12012100979E+04  0.15249999924E+04  0.91115953938E+03 0.  0.
        -24    2    4    4    0    0 -0.36002001067E+02  0.56064864596E+03 -0.65321109952E+03  0.86525436300E+03  0.79732828014E+02 0.  0.
         24    2    4    4    0    0 -0.61550521782E+02 -0.35330574976E+03 -0.54799899838E+03  0.65974562940E+03  0.79674172353E+02 0.  0.
         11    1    3    3    0    0  0.15763476577E+02 -0.61975408050E+02  0.58871047616E+02  0.86920875767E+02  0.00000000000E+00 0.  1.
        -11    1    3    3    0    0  0.81789046272E+02 -0.14536748815E+03 -0.31469045354E+00  0.16679704354E+03  0.00000000000E+00 0. -1.
          2    1    6    6  502    0 -0.37377090394E+02 -0.16750057815E+03 -0.19253048080E+03  0.25791757715E+03  0.00000000000E+00 0. -1.
          1    1    5    5  503    0  0.11783710543E+02  0.18047761947E+03 -0.25510226054E+03  0.31271103322E+03  0.00000000000E+00 0. -1.
         -2    1    5    5    0  503 -0.47785711610E+02  0.38017102649E+03 -0.39810883898E+03  0.55254332979E+03  0.00000000000E+00 0.  1.
         -3    1    6    6    0  502 -0.24173431388E+02 -0.18580517161E+03 -0.35546851758E+03  0.40182805225E+03  0.00000000000E+00 0.  1.
<mgrwt>
<rscale>  0 0.13631507E+04</rscale>
<asrwt>0</asrwt>
<pdfrwt beam="1">  1        1 0.48928013E-01 0.13631507E+04</pdfrwt>
<pdfrwt beam="2">  1       -1 0.22472090E+00 0.13631507E+04</pdfrwt>
<totfact> 0.81314172E+00</totfact>
</mgrwt>
</event>
<event>
12    1  0.1114484E-007  0.1600774E+04  0.7818608E-02  0.8820073E-01
          1   -1    0    0  501    0  0.00000000000E+00  0.00000000000E+00  0.58772078313E+03  0.58772078313E+03  0.00000000000E+00 0. -1.
         -1   -1    0    0    0  501 -0.00000000000E+00 -0.00000000000E+00 -0.10900063272E+04  0.10900063272E+04  0.00000000000E+00 0.  1.
         23    2    1    2    0    0  0.69220323982E+02  0.34154532374E+03 -0.60900691671E+03  0.70774378010E+03  0.92559020344E+02 0.  0.
        254    2    1    2    0    0 -0.69220323982E+02 -0.34154532374E+03  0.10672137262E+03  0.96998333024E+03  0.89890686289E+03 0.  0.
        -24    2    4    4    0    0 -0.31427654373E+03 -0.51211117341E+03 -0.76453251592E+02  0.61059171029E+03  0.77133242604E+02 0.  0.
         24    2    4    4    0    0  0.24505621975E+03  0.17056584967E+03  0.18317462422E+03  0.35939161996E+03  0.80399835976E+02 0.  0.
         11    1    3    3    0    0  0.54076944338E+02  0.31398323610E+03 -0.59124763462E+03  0.67162754106E+03  0.00000000000E+00 0.  1.
        -11    1    3    3    0    0  0.15143379644E+02  0.27562087641E+02 -0.17759282085E+02  0.36116239040E+02  0.00000000000E+00 0. -1.
          4    1    6    6  502    0  0.18866065958E+03  0.11401931901E+03  0.17016464715E+03  0.27847667177E+03  0.00000000000E+00 0. -1.
          1    1    5    5  503    0 -0.31650957676E+03 -0.50572395444E+03 -0.69087433568E+02  0.60058979657E+03  0.00000000000E+00 0. -1.
         -2    1    5    5    0  503  0.22330330250E+01 -0.63872189782E+01 -0.73658180244E+01  0.10001913714E+02  0.00000000000E+00 0.  1.
         -3    1    6    6    0  502  0.56395560175E+02  0.56546530660E+02  0.13009977069E+02  0.80914948189E+02  0.00000000000E+00 0.  1.
<mgrwt>
<rscale>  0 0.16007740E+04</rscale>
<asrwt>0</asrwt>
<pdfrwt beam="1">  1        1 0.90418583E-01 0.16007740E+04</pdfrwt>
<pdfrwt beam="2">  1       -1 0.16769328E+00 0.16007740E+04</pdfrwt>
<totfact> 0.86634963E+00</totfact>
</mgrwt>
</event>
<event>
12    1  0.1114484E-007  0.2676482E+04  0.7818608E-02  0.8342676E-01
         -1   -1    0    0    0  501 -0.00000000000E+00  0.00000000000E+00  0.66093033351E+03  0.66093033351E+03  0.00000000000E+00 0.  1.
          1   -1    0    0  501    0  0.00000000000E+00 -0.00000000000E+00 -0.27096490266E+04  0.27096490266E+04  0.00000000000E+00 0. -1.
         23    2    1    2    0    0 -0.25440121169E+03  0.16748954726E+03 -0.23876296347E+04  0.24087370002E+04  0.92010536395E+02 0.  0.
        254    2    1    2    0    0  0.25440121169E+03 -0.16748954726E+03  0.33891094159E+03  0.96184235991E+03  0.84705807004E+03 0.  0.
        -24    2    4    4    0    0  0.17858882289E+03 -0.48351800885E+03  0.56216864274E+02  0.52383839759E+03  0.74583499614E+02 0.  0.
         24    2    4    4    0    0  0.75812388807E+02  0.31602846159E+03  0.28269407732E+03  0.43800396232E+03  0.79435652139E+02 0.  0.
         11    1    3    3    0    0 -0.17758387000E+03  0.11179795767E+03 -0.12838100710E+04  0.13008470751E+04  0.00000000000E+00 0.  1.
        -11    1    3    3    0    0 -0.76817341692E+02  0.55691589593E+02 -0.11038195637E+04  0.11078899251E+04  0.00000000000E+00 0. -1.
          4    1    6    6  502    0  0.53545749774E+02  0.30494215269E+03  0.25909557105E+03  0.40371695375E+03  0.00000000000E+00 0. -1.
          3    1    5    5  503    0  0.15127879496E+03 -0.45881674843E+03  0.44324842476E+02  0.48514201436E+03  0.00000000000E+00 0. -1.
         -4    1    5    5    0  503  0.27310027930E+02 -0.24701260423E+02  0.11892021799E+02  0.38696383222E+02  0.00000000000E+00 0.  1.
         -3    1    6    6    0  502  0.22266639033E+02  0.11086308891E+02  0.23598506271E+02  0.34287008573E+02  0.00000000000E+00 0.  1.
<mgrwt>
<rscale>  0 0.26764822E+04</rscale>
<asrwt>0</asrwt>
<pdfrwt beam="1">  1        1 0.41686909E+00 0.26764822E+04</pdfrwt>
<pdfrwt beam="2">  1       -1 0.10168159E+00 0.26764822E+04</pdfrwt>
<totfact> 0.77492340E-01</totfact>
</mgrwt>
</event>
<event>
12    1  0.1114484E-007  0.1909358E+04  0.7818608E-02  0.8650212E-01
          1   -1    0    0  501    0  0.00000000000E+00  0.00000000000E+00  0.86630995576E+03  0.86630995576E+03  0.00000000000E+00 0. -1.
         -1   -1    0    0    0  501 -0.00000000000E+00 -0.00000000000E+00 -0.10520626766E+04  0.10520626766E+04  0.00000000000E+00 0.  1.
         23    2    1    2    0    0  0.13240082351E+03  0.54196378380E+03  0.41831493514E+03  0.70320744639E+03  0.90876876536E+02 0.  0.
        254    2    1    2    0    0 -0.13240082351E+03 -0.54196378380E+03 -0.60406765595E+03  0.12151651859E+04  0.89469211191E+03 0.  0.
        -24    2    4    4    0    0 -0.19546614191E+03 -0.38574030289E+03  0.12908269690E+03  0.45841304385E+03  0.80483428279E+02 0.  0.
         24    2    4    4    0    0  0.63065318397E+02 -0.15622348091E+03 -0.73315035285E+03  0.75675214207E+03  0.82348978640E+02 0.  0.
         13    1    3    3    0    0  0.15517073589E+02  0.71964746393E+01  0.68970097539E+01  0.18442818753E+02  0.00000000000E+00 0.  1.
        -13    1    3    3    0    0  0.11688374992E+03  0.53476730916E+03  0.41141792539E+03  0.68476462764E+03  0.00000000000E+00 0. -1.
          4    1    6    6  502    0  0.82607118494E+02 -0.12394103400E+03 -0.55423679732E+03  0.57390220720E+03  0.00000000000E+00 0. -1.
          1    1    5    5  503    0 -0.16996796227E+03 -0.33041621451E+03  0.13895307731E+03  0.39670132430E+03  0.00000000000E+00 0. -1.
         -2    1    5    5    0  503 -0.25498179635E+02 -0.55324088383E+02 -0.98703804136E+01  0.61711719549E+02  0.00000000000E+00 0.  1.
         -1    1    6    6    0  502 -0.19541800096E+02 -0.32282446911E+02 -0.17891355553E+03  0.18284993487E+03  0.00000000000E+00 0.  1.
<mgrwt>
<rscale>  0 0.19093584E+04</rscale>
<asrwt>0</asrwt>
<pdfrwt beam="1">  1        1 0.13327845E+00 0.19093584E+04</pdfrwt>
<pdfrwt beam="2">  1       -1 0.16185580E+00 0.19093584E+04</pdfrwt>
<totfact> 0.51331976E+00</totfact>
</mgrwt>
</event>
<event>
12    1  0.1114484E-007  0.1896543E+04  0.7818608E-02  0.8656579E-01
          1   -1    0    0  501    0  0.00000000000E+00  0.00000000000E+00  0.18727586779E+04  0.18727586779E+04  0.00000000000E+00 0. -1.
         -1   -1    0    0    0  501 -0.00000000000E+00 -0.00000000000E+00 -0.48015725380E+03  0.48015725380E+03  0.00000000000E+00 0.  1.
         23    2    1    2    0    0 -0.28095754950E+03  0.20737516955E+03  0.13522225583E+04  0.13995635382E+04  0.91272365503E+02 0.  0.
        254    2    1    2    0    0  0.28095754950E+03 -0.20737516955E+03  0.40378865783E+02  0.95335239348E+03  0.88617646538E+03 0.  0.
        -24    2    4    4    0    0 -0.20012937968E+03  0.14844802026E+03 -0.17233313748E+03  0.31331679716E+03  0.79875664470E+02 0.  0.
         24    2    4    4    0    0  0.48108692918E+03 -0.35582318981E+03  0.21271200326E+03  0.64003559633E+03  0.79651694242E+02 0.  0.
         11    1    3    3    0    0 -0.94545008605E+02  0.62996218078E+02  0.28941336745E+03  0.31091378130E+03  0.00000000000E+00 0.  1.
        -11    1    3    3    0    0 -0.18641254090E+03  0.14437895147E+03  0.10628091909E+04  0.10886497569E+04  0.00000000000E+00 0. -1.
          4    1    6    6  502    0  0.14272231569E+02 -0.30709823525E+02  0.40622301793E+01  0.34107060397E+02  0.00000000000E+00 0. -1.
          1    1    5    5  503    0 -0.80916781950E+02  0.19918829527E+02 -0.33979347434E+02  0.89993785468E+02  0.00000000000E+00 0. -1.
         -2    1    5    5    0  503 -0.11921259773E+03  0.12852919073E+03 -0.13835379005E+03  0.22332301169E+03  0.00000000000E+00 0.  1.
         -3    1    6    6    0  502  0.46681469761E+03 -0.32511336628E+03  0.20864977308E+03  0.60592853593E+03  0.00000000000E+00 0.  1.
<mgrwt>
<rscale>  0 0.18965428E+04</rscale>
<asrwt>0</asrwt>
<pdfrwt beam="1">  1        1 0.28811672E+00 0.18965428E+04</pdfrwt>
<pdfrwt beam="2">  1       -1 0.73870348E-01 0.18965428E+04</pdfrwt>
<totfact> 0.62792622E+00</totfact>
</mgrwt>
</event>
<event>
12    1  0.1114484E-007  0.1915456E+04  0.7818608E-02  0.8647201E-01
         -2   -1    0    0    0  501 -0.00000000000E+00  0.00000000000E+00  0.14266640667E+04  0.14266640667E+04  0.00000000000E+00 0.  1.
          2   -1    0    0  501    0  0.00000000000E+00 -0.00000000000E+00 -0.64292847506E+03  0.64292847506E+03  0.00000000000E+00 0. -1.
         23    2    1    2    0    0  0.88663304811E+02 -0.18949528704E+03  0.10793190151E+04  0.11032739131E+04  0.92272128114E+02 0.  0.
        254    2    1    2    0    0 -0.88663304811E+02  0.18949528704E+03 -0.29558342343E+03  0.96631862865E+03  0.89589758703E+03 0.  0.
        -24    2    4    4    0    0 -0.24920716931E+02 -0.35415604761E+03 -0.93934987396E+02  0.37732167951E+03  0.86604386622E+02 0.  0.
         24    2    4    4    0    0 -0.63742587880E+02  0.54365133464E+03 -0.20164843604E+03  0.58899694914E+03  0.81458106861E+02 0.  0.
         13    1    3    3    0    0  0.24387615880E+02 -0.19729125103E+02  0.57914670663E+02  0.65864279118E+02  0.00000000000E+00 0. -1.
        -13    1    3    3    0    0  0.64275688930E+02 -0.16976616193E+03  0.10214043444E+04  0.10374096340E+04  0.00000000000E+00 0.  1.
          2    1    6    6  502    0  0.30820814515E+01  0.27871202305E+02  0.65260139035E+01  0.28790484564E+02  0.00000000000E+00 0. -1.
          1    1    5    5  503    0  0.44910530700E+01 -0.57328215993E+02  0.15570327066E+02  0.59574566650E+02  0.00000000000E+00 0. -1.
         -4    1    5    5    0  503 -0.29411770001E+02 -0.29682783161E+03 -0.10950531446E+03  0.31774711286E+03  0.00000000000E+00 0.  1.
         -1    1    6    6    0  502 -0.66824669332E+02  0.51578013234E+03 -0.20817444994E+03  0.56020646458E+03  0.00000000000E+00 0.  1.
<mgrwt>
<rscale>  0 0.19154560E+04</rscale>
<asrwt>0</asrwt>
<pdfrwt beam="1">  1        2 0.98912073E-01 0.19154560E+04</pdfrwt>
<pdfrwt beam="2">  1       -2 0.21948678E+00 0.19154560E+04</pdfrwt>
<totfact> 0.42425861E+00</totfact>
</mgrwt>
</event>
<event>
12    1  0.1114484E-007  0.3230902E+04  0.7818608E-02  0.8180703E-01
          2   -1    0    0  501    0  0.00000000000E+00  0.00000000000E+00  0.17890378272E+04  0.17890378272E+04  0.00000000000E+00 0. -1.
         -2   -1    0    0    0  501 -0.00000000000E+00 -0.00000000000E+00 -0.14587069440E+04  0.14587069440E+04  0.00000000000E+00 0.  1.
         23    2    1    2    0    0  0.19773199356E+03 -0.10764071986E+04  0.11661640639E+04  0.16019677362E+04  0.92798736513E+02 0.  0.
        254    2    1    2    0    0 -0.19773199356E+03  0.10764071986E+04 -0.83583318062E+03  0.16457770350E+04  0.90122946282E+03 0.  0.
        -24    2    4    4    0    0 -0.82112599344E+02  0.11437220232E+04 -0.91827582280E+03  0.14712659807E+04  0.80935492620E+02 0.  0.
         24    2    4    4    0    0 -0.11561939422E+03 -0.67314824562E+02  0.82442642179E+02  0.17451105431E+03  0.75882731252E+02 0.  0.
         11    1    3    3    0    0  0.58409890574E+02 -0.42558979352E+03  0.39847149748E+03  0.58593337673E+03  0.00000000000E+00 0. -1.
        -11    1    3    3    0    0  0.13932210299E+03 -0.65081740510E+03  0.76769256639E+03  0.10160343595E+04  0.00000000000E+00 0.  1.
          2    1    6    6  502    0 -0.12288640926E+03 -0.55821371293E+02  0.58769879256E+02  0.14721071218E+03  0.00000000000E+00 0. -1.
          1    1    5    5  503    0  0.52783890255E+01  0.23865385395E+03 -0.16085213211E+03  0.28784880024E+03  0.00000000000E+00 0. -1.
         -2    1    5    5    0  503 -0.87390988370E+02  0.90506816923E+03 -0.75742369068E+03  0.11834171805E+04  0.00000000000E+00 0.  1.
         -1    1    6    6    0  502  0.72670150454E+01 -0.11493453270E+02  0.23672762924E+02  0.27300342126E+02  0.00000000000E+00 0.  1.
<mgrwt>
<rscale>  0 0.32309020E+04</rscale>
<asrwt>0</asrwt>
<pdfrwt beam="1">  1        2 0.27523659E+00 0.32309020E+04</pdfrwt>
<pdfrwt beam="2">  1       -2 0.22441645E+00 0.32309020E+04</pdfrwt>
<totfact> 0.68126733E-01</totfact>
</mgrwt>
</event>
<event>
12    1  0.1114484E-007  0.2835360E+04  0.7818608E-02  0.8292374E-01
          1   -1    0    0  501    0  0.00000000000E+00  0.00000000000E+00  0.16533606265E+04  0.16533606265E+04  0.00000000000E+00 0. -1.
         -1   -1    0    0    0  501 -0.00000000000E+00 -0.00000000000E+00 -0.12155949269E+04  0.12155949269E+04  0.00000000000E+00 0.  1.
         23    2    1    2    0    0 -0.62372055629E+03  0.89096975810E+03 -0.47586773513E+03  0.11905485914E+04  0.90007805134E+02 0.  0.
        254    2    1    2    0    0  0.62372055629E+03 -0.89096975810E+03  0.91363343467E+03  0.16784069620E+04  0.89413054684E+03 0.  0.
        -24    2    4    4    0    0  0.19460848419E+03 -0.52662904230E+03 -0.39663620416E+02  0.56836670576E+03  0.79100563312E+02 0.  0.
         24    2    4    4    0    0  0.42911207210E+03 -0.36434071580E+03  0.95329705509E+03  0.11100402562E+04  0.80825537564E+02 0.  0.
         13    1    3    3    0    0 -0.18842980002E+03  0.29396061041E+03 -0.19638354544E+03  0.40060594969E+03  0.00000000000E+00 0. -1.
        -13    1    3    3    0    0 -0.43529075627E+03  0.59700914769E+03 -0.27948418969E+03  0.78994264172E+03  0.00000000000E+00 0.  1.
          4    1    6    6  502    0  0.98406079775E+01 -0.28705022672E+02  0.69824466766E+02  0.76133251941E+02  0.00000000000E+00 0. -1.
          1    1    5    5  503    0  0.12155189464E+03 -0.26638654241E+03  0.12508646888E+02  0.29307527926E+03  0.00000000000E+00 0. -1.
         -2    1    5    5    0  503  0.73056589547E+02 -0.26024249989E+03 -0.52172267305E+02  0.27529142650E+03  0.00000000000E+00 0.  1.
         -3    1    6    6    0  502  0.41927146412E+03 -0.33563569312E+03  0.88347258832E+03  0.10339070043E+04  0.00000000000E+00 0.  1.
<mgrwt>
<rscale>  0 0.28353601E+04</rscale>
<asrwt>0</asrwt>
<pdfrwt beam="1">  1        1 0.25436317E+00 0.28353601E+04</pdfrwt>
<pdfrwt beam="2">  1       -1 0.18701460E+00 0.28353601E+04</pdfrwt>
<totfact> 0.82112404E-01</totfact>
</mgrwt>
</event>
<event>
12    1  0.1114484E-007  0.1313727E+04  0.7818608E-02  0.9018750E-01
         -2   -1    0    0    0  501 -0.00000000000E+00  0.00000000000E+00  0.62811180930E+03  0.62811180930E+03  0.00000000000E+00 0. -1.
          2   -1    0    0  501    0  0.00000000000E+00 -0.00000000000E+00 -0.68693077145E+03  0.68693077145E+03  0.00000000000E+00 0.  1.
         23    2    1    2    0    0  0.29727465744E+02 -0.43940614039E+02  0.32472516135E+03  0.34177596916E+03  0.92465576857E+02 0.  0.
        254    2    1    2    0    0 -0.29727465744E+02  0.43940614039E+02 -0.38354412351E+03  0.97326661159E+03  0.89293185785E+03 0.  0.
        -24    2    4    4    0    0 -0.20259424282E+03  0.33571710449E+03  0.64411107555E+02  0.40532898458E+03  0.79952445191E+02 0.  0.
         24    2    4    4    0    0  0.17286677707E+03 -0.29177649046E+03 -0.44795523106E+03  0.56793762701E+03  0.82902449511E+02 0.  0.
         11    1    3    3    0    0  0.87457275013E+01 -0.65029549432E+02  0.28315439035E+03  0.29065742520E+03  0.00000000000E+00 0. -1.
        -11    1    3    3    0    0  0.20981738242E+02  0.21088935392E+02  0.41570770995E+02  0.51118543962E+02  0.00000000000E+00 0.  1.
          2    1    6    6  502    0  0.16124548618E+03 -0.29564927147E+03 -0.43478253423E+03  0.54994949824E+03  0.00000000000E+00 0. -1.
          1    1    5    5  503    0 -0.18348759459E+03  0.26409967148E+03  0.28154037938E+02  0.32281416279E+03  0.00000000000E+00 0. -1.
         -2    1    5    5    0  503 -0.19106648224E+02  0.71617433019E+02  0.36257069617E+02  0.82514821795E+02  0.00000000000E+00 0.  1.
         -1    1    6    6    0  502  0.11621290897E+02  0.38727810176E+01 -0.13172696827E+02  0.17988128769E+02  0.00000000000E+00 0.  1.
<mgrwt>
<rscale>  0 0.13137265E+04</rscale>
<asrwt>0</asrwt>
<pdfrwt beam="1">  1        2 0.10568166E+00 0.13137265E+04</pdfrwt>
<pdfrwt beam="2">  1       -2 0.96632586E-01 0.13137265E+04</pdfrwt>
<totfact> 0.36808339E+01</totfact>
</mgrwt>
</event>
<event>
12    1  0.1114484E-007  0.2546586E+04  0.7818608E-02  0.8386574E-01
          2   -1    0    0  501    0  0.00000000000E+00  0.00000000000E+00  0.31086250006E+04  0.31086250006E+04  0.00000000000E+00 0. -1.
         -2   -1    0    0    0  501 -0.00000000000E+00 -0.00000000000E+00 -0.52154088213E+03  0.52154088213E+03  0.00000000000E+00 0.  1.
         23    2    1    2    0    0 -0.64392789274E+03 -0.88658378420E+03  0.86261645244E+03  0.13975927307E+04  0.92110582306E+02 0.  0.
        254    2    1    2    0    0  0.64392789274E+03  0.88658378420E+03  0.17244676661E+04  0.22325731521E+04  0.89995567150E+03 0.  0.
        -24    2    4    4    0    0  0.85039335473E+03  0.55763576285E+03  0.12048759663E+04  0.15788928710E+04  0.83964886004E+02 0.  0.
         24    2    4    4    0    0 -0.20646546199E+03  0.32894802135E+03  0.51959169974E+03  0.65368028109E+03  0.80545562889E+02 0.  0.
         11    1    3    3    0    0 -0.12797327289E+02 -0.43366049368E+01  0.19472167208E+02  0.23701118622E+02  0.00000000000E+00 0. -1.
        -11    1    3    3    0    0 -0.63113056545E+03 -0.88224717926E+03  0.84314428523E+03  0.13738916121E+04  0.00000000000E+00 0.  1.
          4    1    6    6  502    0 -0.67833702765E+02  0.98050736620E+02  0.22429412249E+03  0.25401419560E+03  0.00000000000E+00 0. -1.
          3    1    5    5  503    0  0.27750433458E+03  0.19527188842E+03  0.34436817128E+03  0.48345548245E+03  0.00000000000E+00 0. -1.
         -4    1    5    5    0  503  0.57288902015E+03  0.36236387443E+03  0.86050779504E+03  0.10954373885E+04  0.00000000000E+00 0.  1.
         -3    1    6    6    0  502 -0.13863175922E+03  0.23089728473E+03  0.29529757726E+03  0.39966608550E+03  0.00000000000E+00 0.  1.
<mgrwt>
<rscale>  0 0.25465860E+04</rscale>
<asrwt>0</asrwt>
<pdfrwt beam="1">  1        2 0.47824999E+00 0.25465860E+04</pdfrwt>
<pdfrwt beam="2">  1       -2 0.80237061E-01 0.25465860E+04</pdfrwt>
<totfact> 0.18130145E+00</totfact>
</mgrwt>
</event>
<event>
12    1  0.1114484E-007  0.1781506E+04  0.7818608E-02  0.8716197E-01
          2   -1    0    0  501    0  0.00000000000E+00  0.00000000000E+00  0.67330297994E+03  0.67330297994E+03  0.00000000000E+00 0. -1.
         -2   -1    0    0    0  501 -0.00000000000E+00 -0.00000000000E+00 -0.11784307365E+04  0.11784307365E+04  0.00000000000E+00 0.  1.
         23    2    1    2    0    0  0.50955281505E+03  0.41496181536E+03 -0.14262264717E+03  0.67814411991E+03  0.87754477639E+02 0.  0.
        254    2    1    2    0    0 -0.50955281505E+03 -0.41496181536E+03 -0.36250510942E+03  0.11735895966E+04  0.90225562191E+03 0.  0.
        -24    2    4    4    0    0 -0.44266409552E+03 -0.68438283705E+03 -0.20302016705E+03  0.84371853028E+03  0.79450619912E+02 0.  0.
         24    2    4    4    0    0 -0.66888719536E+02  0.26942102169E+03 -0.15948494237E+03  0.32987106628E+03  0.79483871318E+02 0.  0.
         13    1    3    3    0    0  0.15926826531E+03  0.16846104325E+03 -0.80110896957E+02  0.24528199942E+03  0.00000000000E+00 0. -1.
        -13    1    3    3    0    0  0.35028454975E+03  0.24650077211E+03 -0.62511750213E+02  0.43286212049E+03  0.00000000000E+00 0.  1.
          4    1    6    6  502    0 -0.15040976939E+02  0.12404993895E+03 -0.11354061026E+03  0.16883746183E+03  0.00000000000E+00 0. -1.
          1    1    5    5  503    0 -0.38244563892E+00  0.64584906952E+00 -0.44171555621E+01  0.44804741877E+01  0.00000000000E+00 0. -1.
         -2    1    5    5    0  503 -0.44228164988E+03 -0.68502868612E+03 -0.19860301148E+03  0.83923805609E+03  0.00000000000E+00 0.  1.
         -3    1    6    6    0  502 -0.51847742597E+02  0.14537108274E+03 -0.45944332114E+02  0.16103360445E+03  0.00000000000E+00 0.  1.
<mgrwt>
<rscale>  0 0.17815060E+04</rscale>
<asrwt>0</asrwt>
<pdfrwt beam="1">  1        2 0.10358507E+00 0.17815060E+04</pdfrwt>
<pdfrwt beam="2">  1       -2 0.18129704E+00 0.17815060E+04</pdfrwt>
<totfact> 0.72211555E+00</totfact>
</mgrwt>
</event>
<event>
12    1  0.1114484E-007  0.1427031E+04  0.7818608E-02  0.8934481E-01
         -3   -1    0    0    0  501 -0.00000000000E+00  0.00000000000E+00  0.93006368987E+03  0.93006368987E+03  0.00000000000E+00 0.  1.
          3   -1    0    0  501    0  0.00000000000E+00 -0.00000000000E+00 -0.54738653709E+03  0.54738653709E+03  0.00000000000E+00 0. -1.
         23    2    1    2    0    0  0.20804303804E+03 -0.17734010743E+03 -0.19475817875E+03  0.34869420022E+03  0.94474746329E+02 0.  0.
        254    2    1    2    0    0 -0.20804303804E+03  0.17734010743E+03  0.57743533153E+03  0.11287560267E+04  0.93055208689E+03 0.  0.
        -24    2    4    4    0    0 -0.27361743387E+02 -0.36290670921E+03  0.34850201313E+03  0.51015681237E+03  0.79726880424E+02 0.  0.
         24    2    4    4    0    0 -0.18068129466E+03  0.54024681665E+03  0.22893331840E+03  0.61859921437E+03  0.75777111380E+02 0.  0.
         11    1    3    3    0    0  0.20383916731E+03 -0.14351157242E+03 -0.19168656160E+03  0.31446735195E+03  0.00000000000E+00 0. -1.
        -11    1    3    3    0    0  0.42038707376E+01 -0.33828535016E+02 -0.30716171522E+01  0.34226848269E+02  0.00000000000E+00 0.  1.
          2    1    6    6  502    0 -0.47576714357E+02  0.14238081605E+03  0.97295330452E+02  0.17889164836E+03  0.00000000000E+00 0. -1.
          3    1    5    5  503    0 -0.19082986002E+02 -0.64238938562E+02  0.29919021976E+02  0.73389028188E+02  0.00000000000E+00 0. -1.
         -4    1    5    5    0  503 -0.82787573849E+01 -0.29866777065E+03  0.31858299115E+03  0.43676778418E+03  0.00000000000E+00 0.  1.
         -1    1    6    6    0  502 -0.13310458030E+03  0.39786600060E+03  0.13163798795E+03  0.43970756600E+03  0.00000000000E+00 0.  1.
<mgrwt>
<rscale>  0 0.14270310E+04</rscale>
<asrwt>0</asrwt>
<pdfrwt beam="1">  1        3 0.84213313E-01 0.14270310E+04</pdfrwt>
<pdfrwt beam="2">  1       -3 0.14308672E+00 0.14270310E+04</pdfrwt>
<totfact> 0.12023122E+00</totfact>
</mgrwt>
</event>
<event>
12    1  0.1114484E-007  0.2713951E+04  0.7818608E-02  0.8330492E-01
         -2   -1    0    0    0  501 -0.00000000000E+00  0.00000000000E+00  0.11687463975E+04  0.11687463975E+04  0.00000000000E+00 0.  1.
          2   -1    0    0  501    0  0.00000000000E+00 -0.00000000000E+00 -0.15755195219E+04  0.15755195219E+04  0.00000000000E+00 0. -1.
         23    2    1    2    0    0  0.17361960000E+03  0.60023892069E+03 -0.12362919001E+04  0.13882600120E+04  0.91747867930E+02 0.  0.
        254    2    1    2    0    0 -0.17361960000E+03 -0.60023892069E+03  0.82951877570E+03  0.13560059073E+04  0.87190601219E+03 0.  0.
        -24    2    4    4    0    0  0.18793705361E+03 -0.66519780345E+03  0.57057452221E+03  0.89993988625E+03  0.80796408589E+02 0.  0.
         24    2    4    4    0    0 -0.36155665360E+03  0.64958882762E+02  0.25894425349E+03  0.45606602109E+03  0.77467534889E+02 0.  0.
         13    1    3    3    0    0  0.53671580635E+02  0.75640464751E+02 -0.16016839202E+03  0.18508385202E+03  0.00000000000E+00 0.  1.
        -13    1    3    3    0    0  0.11994801936E+03  0.52459845593E+03 -0.10761235081E+04  0.12031761600E+04  0.00000000000E+00 0. -1.
          2    1    6    6  502    0 -0.16389835883E+03  0.53282155588E+02  0.83441372224E+02  0.19147877880E+03  0.00000000000E+00 0. -1.
          3    1    5    5  503    0  0.60795057042E+02 -0.35990328889E+03  0.28778947532E+03  0.46481092760E+03  0.00000000000E+00 0. -1.
         -4    1    5    5    0  503  0.12714199656E+03 -0.30529451456E+03  0.28278504689E+03  0.43512895865E+03  0.00000000000E+00 0.  1.
         -1    1    6    6    0  502 -0.19765829477E+03  0.11676727175E+02  0.17550288127E+03  0.26458724229E+03  0.00000000000E+00 0.  1.
<mgrwt>
<rscale>  0 0.27139512E+04</rscale>
<asrwt>0</asrwt>
<pdfrwt beam="1">  1        2 0.24238762E+00 0.27139512E+04</pdfrwt>
<pdfrwt beam="2">  1       -2 0.17980714E+00 0.27139512E+04</pdfrwt>
<totfact> 0.18347918E+00</totfact>
</mgrwt>
</event>
<event>
12    1  0.1114484E-007  0.1011728E+04  0.7818608E-02  0.9295774E-01
         -2   -1    0    0    0  501 -0.00000000000E+00  0.00000000000E+00  0.77993397919E+02  0.77993397919E+02  0.00000000000E+00 0.  1.
          2   -1    0    0  501    0  0.00000000000E+00 -0.00000000000E+00 -0.32810289741E+04  0.32810289741E+04  0.00000000000E+00 0. -1.
         23    2    1    2    0    0  0.52981417242E+02 -0.73286623790E+01 -0.42569081263E+03  0.43967518583E+03  0.96129398289E+02 0.  0.
        254    2    1    2    0    0 -0.52981417242E+02  0.73286623790E+01 -0.27773447635E+04  0.29193471862E+04  0.89782142879E+03 0.  0.
        -24    2    4    4    0    0 -0.12407871873E+03 -0.11932000065E+03 -0.63027104621E+02  0.19998255380E+03  0.79923806899E+02 0.  0.
         24    2    4    4    0    0  0.71097301492E+02  0.12664866302E+03 -0.27143176589E+04  0.27193646324E+04  0.79554636429E+02 0.  0.
         11    1    3    3    0    0  0.17300005352E+02 -0.45907276527E+02 -0.12240083306E+03  0.13186634202E+03  0.00000000000E+00 0.  1.
        -11    1    3    3    0    0  0.35681411889E+02  0.38578614148E+02 -0.30328997957E+03  0.30780884382E+03  0.00000000000E+00 0. -1.
          4    1    6    6  502    0  0.82085937073E+01  0.52677414404E+02 -0.48257220331E+03  0.48550821045E+03  0.00000000000E+00 0. -1.
          1    1    5    5  503    0 -0.41182400038E+02 -0.12681130410E+02 -0.47325471960E+02  0.64003917361E+02  0.00000000000E+00 0. -1.
         -2    1    5    5    0  503 -0.82896318697E+02 -0.10663887023E+03 -0.15701632661E+02  0.13597863643E+03  0.00000000000E+00 0.  1.
         -3    1    6    6    0  502  0.62888707785E+02  0.73971248620E+02 -0.22317454556E+04  0.22338564219E+04  0.00000000000E+00 0.  1.
<mgrwt>
<rscale>  0 0.10117284E+04</rscale>
<asrwt>0</asrwt>
<pdfrwt beam="1">  1        2 0.50477379E+00 0.10117284E+04</pdfrwt>
<pdfrwt beam="2">  1       -2 0.11998982E-01 0.10117284E+04</pdfrwt>
<totfact> 0.60246762E+01</totfact>
</mgrwt>
</event>
<event>
12    1  0.1114484E-007  0.2242734E+04  0.7818608E-02  0.8500849E-01
          1   -1    0    0  501    0  0.00000000000E+00  0.00000000000E+00  0.27245776209E+04  0.27245776209E+04  0.00000000000E+00 0. -1.
         -1   -1    0    0    0  501 -0.00000000000E+00 -0.00000000000E+00 -0.46152619323E+03  0.46152619323E+03  0.00000000000E+00 0.  1.
         23    2    1    2    0    0  0.63473735360E+03 -0.51503689092E+03  0.29519656445E+03  0.87369440917E+03  0.89701738551E+02 0.  0.
        254    2    1    2    0    0 -0.63473735360E+03  0.51503689092E+03  0.19678548632E+04  0.23124094049E+04  0.89812581875E+03 0.  0.
        -24    2    4    4    0    0  0.16948696804E+03  0.35408334890E+02  0.85845503352E+02  0.20877212939E+03  0.78973217294E+02 0.  0.
         24    2    4    4    0    0 -0.80422432164E+03  0.47962855603E+03  0.18820093599E+04  0.21036372755E+04  0.80686090378E+02 0.  0.
         13    1    3    3    0    0  0.96659085239E+02 -0.41786675195E+02  0.28546717625E+02  0.10910554555E+03  0.00000000000E+00 0. -1.
        -13    1    3    3    0    0  0.53807826836E+03 -0.47325021573E+03  0.26664984682E+03  0.76458886362E+03  0.00000000000E+00 0.  1.
          2    1    6    6  502    0 -0.20028103524E+03  0.15989522140E+03  0.49321106075E+03  0.55582022755E+03  0.00000000000E+00 0. -1.
          3    1    5    5  503    0  0.25329061045E+02 -0.14688759701E+02  0.39707828270E+02  0.49335916135E+02  0.00000000000E+00 0. -1.
         -4    1    5    5    0  503  0.14415790700E+03  0.50097094590E+02  0.46137675082E+02  0.15943621326E+03  0.00000000000E+00 0.  1.
         -1    1    6    6    0  502 -0.60394328640E+03  0.31973333463E+03  0.13887982991E+04  0.15478170480E+04  0.00000000000E+00 0.  1.
<mgrwt>
<rscale>  0 0.22427340E+04</rscale>
<asrwt>0</asrwt>
<pdfrwt beam="1">  1        1 0.41916578E+00 0.22427340E+04</pdfrwt>
<pdfrwt beam="2">  1       -1 0.71004031E-01 0.22427340E+04</pdfrwt>
<totfact> 0.17163541E+00</totfact>
</mgrwt>
</event>
<event>
12    1  0.1114484E-007  0.3137099E+04  0.7818608E-02  0.8205630E-01
         -2   -1    0    0    0  501 -0.00000000000E+00  0.00000000000E+00  0.16170721094E+04  0.16170721094E+04  0.00000000000E+00 0. -1.
          2   -1    0    0  501    0  0.00000000000E+00 -0.00000000000E+00 -0.15214828056E+04  0.15214828056E+04  0.00000000000E+00 0.  1.
         23    2    1    2    0    0 -0.17723822112E+03 -0.13880471005E+04 -0.27544296829E+03  0.14289628540E+04  0.89318918334E+02 0.  0.
        254    2    1    2    0    0  0.17723822112E+03  0.13880471005E+04  0.37103227208E+03  0.17095920611E+04  0.90936897250E+03 0.  0.
        -24    2    4    4    0    0  0.42610876802E+03  0.12839765155E+04  0.42967471162E+03  0.14216939231E+04  0.80180288487E+02 0.  0.
         24    2    4    4    0    0 -0.24887054690E+03  0.10407058494E+03 -0.58642439537E+02  0.28789813791E+03  0.81726166766E+02 0.  0.
         11    1    3    3    0    0 -0.15290769905E+03 -0.13336318061E+04 -0.25896485206E+03  0.13671200947E+04  0.00000000000E+00 0.  1.
        -11    1    3    3    0    0 -0.24330522069E+02 -0.54415294365E+02 -0.16478116231E+02  0.61842759313E+02  0.00000000000E+00 0. -1.
          2    1    6    6  502    0 -0.11463528248E+03  0.90775899452E+02 -0.20037954077E+02  0.14759075687E+03  0.00000000000E+00 0. -1.
          1    1    5    5  503    0  0.33397716131E+02  0.49406846938E+02  0.16441345808E+02  0.61860826207E+02  0.00000000000E+00 0. -1.
         -4    1    5    5    0  503  0.39271105189E+03  0.12345696686E+04  0.41323336581E+03  0.13598330969E+04  0.00000000000E+00 0.  1.
         -1    1    6    6    0  502 -0.13423526443E+03  0.13294685485E+02 -0.38604485459E+02  0.14030738104E+03  0.00000000000E+00 0.  1.
<mgrwt>
<rscale>  0 0.31370989E+04</rscale>
<asrwt>0</asrwt>
<pdfrwt beam="1">  1        2 0.23407428E+00 0.31370989E+04</pdfrwt>
<pdfrwt beam="2">  1       -2 0.24878032E+00 0.31370989E+04</pdfrwt>
<totfact> 0.68317382E-01</totfact>
</mgrwt>
</event>
<event>
12    1  0.1114484E-007  0.1360842E+04  0.7818608E-02  0.8982661E-01
         -2   -1    0    0    0  501 -0.00000000000E+00  0.00000000000E+00  0.18649769067E+03  0.18649769067E+03  0.00000000000E+00 0.  1.
          2   -1    0    0  501    0  0.00000000000E+00 -0.00000000000E+00 -0.24824589313E+04  0.24824589313E+04  0.00000000000E+00 0. -1.
         23    2    1    2    0    0 -0.13927030292E+03  0.22992924806E+03 -0.11766912885E+04  0.12104199409E+04  0.90831539866E+02 0.  0.
        254    2    1    2    0    0  0.13927030292E+03 -0.22992924806E+03 -0.11192699522E+04  0.14585366810E+04  0.89571220140E+03 0.  0.
        -24    2    4    4    0    0  0.37147914941E+03 -0.18488755209E+03 -0.11319774110E+04  0.12083346344E+04  0.80743819376E+02 0.  0.
         24    2    4    4    0    0 -0.23220884649E+03 -0.45041695967E+02  0.12707458824E+02  0.25020204663E+03  0.80559803034E+02 0.  0.
         11    1    3    3    0    0 -0.14438459497E+03  0.18574789847E+03 -0.10533907128E+04  0.10793429422E+04  0.00000000000E+00 0. -1.
        -11    1    3    3    0    0  0.51142920561E+01  0.44181349588E+02 -0.12330057563E+03  0.13107699869E+03  0.00000000000E+00 0.  1.
          4    1    6    6  502    0 -0.10037939628E+03  0.10722025685E+02  0.31696687550E+02  0.10580956967E+03  0.00000000000E+00 0. -1.
          3    1    5    5  503    0  0.34558522836E+03 -0.19269020690E+03 -0.10615667616E+04  0.11329089351E+04  0.00000000000E+00 0. -1.
         -4    1    5    5    0  503  0.25893921052E+02  0.78026548087E+01 -0.70410649366E+02  0.75425699292E+02  0.00000000000E+00 0.  1.
         -3    1    6    6    0  502 -0.13182945022E+03 -0.55763721652E+02 -0.18989228727E+02  0.14439247697E+03  0.00000000000E+00 0.  1.
<mgrwt>
<rscale>  0 0.13608422E+04</rscale>
<asrwt>0</asrwt>
<pdfrwt beam="1">  1        2 0.38191675E+00 0.13608422E+04</pdfrwt>
<pdfrwt beam="2">  1       -2 0.28691953E-01 0.13608422E+04</pdfrwt>
<totfact> 0.38904890E+01</totfact>
</mgrwt>
</event>
<event>
12    1  0.1114484E-007  0.1881015E+04  0.7818608E-02  0.8664364E-01
         -1   -1    0    0    0  501 -0.00000000000E+00  0.00000000000E+00  0.59032916430E+03  0.59032916430E+03  0.00000000000E+00 0.  1.
          1   -1    0    0  501    0  0.00000000000E+00 -0.00000000000E+00 -0.14984093039E+04  0.14984093039E+04  0.00000000000E+00 0. -1.
         23    2    1    2    0    0  0.53408546076E+03 -0.47899972212E+03 -0.30850775899E+03  0.78886923068E+03  0.11157783193E+03 0.  0.
        254    2    1    2    0    0 -0.53408546076E+03  0.47899972212E+03 -0.59957238059E+03  0.12998692375E+04  0.90304207091E+03 0.  0.
        -24    2    4    4    0    0  0.24926902530E+03  0.13357357537E+03 -0.15834447287E+03  0.33346038711E+03  0.78395858726E+02 0.  0.
         24    2    4    4    0    0 -0.78335448606E+03  0.34542614675E+03 -0.44122790772E+03  0.96640885039E+03  0.79375851930E+02 0.  0.
         11    1    3    3    0    0  0.39676998443E+03 -0.35509260197E+03 -0.28042662197E+03  0.60179420638E+03  0.00000000000E+00 0.  1.
        -11    1    3    3    0    0  0.13731547633E+03 -0.12390712015E+03 -0.28081137018E+02  0.18707502430E+03  0.00000000000E+00 0. -1.
          2    1    6    6  502    0 -0.37708031549E+03  0.13952925398E+03 -0.17193996207E+03  0.43728860904E+03  0.00000000000E+00 0. -1.
          1    1    5    5  503    0  0.17645168768E+03  0.12647782797E+03 -0.13899812962E+03  0.25778347327E+03  0.00000000000E+00 0. -1.
         -2    1    5    5    0  503  0.72817337628E+02  0.70957473980E+01 -0.19346343248E+02  0.75676913834E+02  0.00000000000E+00 0.  1.
         -1    1    6    6    0  502 -0.40627417058E+03  0.20589689276E+03 -0.26928794565E+03  0.52912024135E+03  0.00000000000E+00 0.  1.
<mgrwt>
<rscale>  0 0.18810154E+04</rscale>
<asrwt>0</asrwt>
<pdfrwt beam="1">  1        1 0.23052451E+00 0.18810154E+04</pdfrwt>
<pdfrwt beam="2">  1       -1 0.90819871E-01 0.18810154E+04</pdfrwt>
<totfact> 0.72761374E+00</totfact>
</mgrwt>
</event>
<event>
12    1  0.1114484E-007  0.1310167E+04  0.7818608E-02  0.9021542E-01
          2   -1    0    0  501    0  0.00000000000E+00  0.00000000000E+00  0.39624846629E+03  0.39624846629E+03  0.00000000000E+00 0.  1.
         -2   -1    0    0    0  501 -0.00000000000E+00 -0.00000000000E+00 -0.10829924422E+04  0.10829924422E+04  0.00000000000E+00 0. -1.
         23    2    1    2    0    0 -0.90479751980E+02 -0.32291284284E+03 -0.23303139214E+03  0.41847679238E+03  0.91432524023E+02 0.  0.
        254    2    1    2    0    0  0.90479751980E+02  0.32291284284E+03 -0.45371258378E+03  0.10607641161E+04  0.89827952876E+03 0.  0.
        -24    2    4    4    0    0 -0.18192740607E+03  0.18478308879E+03  0.19817804252E+03  0.33658098475E+03  0.82279109010E+02 0.  0.
         24    2    4    4    0    0  0.27240715805E+03  0.13812975405E+03 -0.65189062630E+03  0.72418313137E+03  0.78704068498E+02 0.  0.
         13    1    3    3    0    0 -0.64567903448E+02 -0.29089125225E+03 -0.16963823117E+03  0.34287587297E+03  0.00000000000E+00 0. -1.
        -13    1    3    3    0    0 -0.25911848531E+02 -0.32021590595E+02 -0.63393160968E+02  0.75600919413E+02  0.00000000000E+00 0.  1.
          4    1    6    6  502    0  0.99963603923E+01 -0.74062420922E+01 -0.51525894407E+02  0.53006579190E+02  0.00000000000E+00 0. -1.
          1    1    5    5  503    0 -0.30336668168E+02  0.85455892751E+02  0.71165270043E+02  0.11527149995E+03  0.00000000000E+00 0. -1.
         -2    1    5    5    0  503 -0.15159073790E+03  0.99327196040E+02  0.12701277248E+03  0.22130948480E+03  0.00000000000E+00 0.  1.
         -3    1    6    6    0  502  0.26241079765E+03  0.14553599614E+03 -0.60036473190E+03  0.67117655218E+03  0.00000000000E+00 0.  1.
<mgrwt>
<rscale>  0 0.13101665E+04</rscale>
<asrwt>0</asrwt>
<pdfrwt beam="1">  1        2 0.60961302E-01 0.13101665E+04</pdfrwt>
<pdfrwt beam="2">  1       -2 0.16661422E+00 0.13101665E+04</pdfrwt>
<totfact> 0.17721122E+01</totfact>
</mgrwt>
</event>
<event>
12    1  0.1114484E-007  0.2961135E+04  0.7818608E-02  0.8254917E-01
         -2   -1    0    0    0  501 -0.00000000000E+00  0.00000000000E+00  0.59868226548E+03  0.59868226548E+03  0.00000000000E+00 0.  1.
          2   -1    0    0  501    0  0.00000000000E+00 -0.00000000000E+00 -0.36615088430E+04  0.36615088430E+04  0.00000000000E+00 0. -1.
         23    2    1    2    0    0  0.19257713302E+03 -0.12166058503E+04 -0.22308177439E+04  0.25498956503E+04  0.90577446634E+02 0.  0.
        254    2    1    2    0    0 -0.19257713302E+03  0.12166058503E+04 -0.83200883362E+03  0.17102954581E+04  0.84596460191E+03 0.  0.
        -24    2    4    4    0    0  0.29094106078E+03  0.19147350642E+03 -0.22156528949E+03  0.42026645516E+03  0.78891769649E+02 0.  0.
         24    2    4    4    0    0 -0.48351819380E+03  0.10251323439E+04 -0.61044354413E+03  0.12900290030E+04  0.82748665750E+02 0.  0.
         13    1    3    3    0    0  0.20174243864E+03 -0.11474001757E+04 -0.20919901784E+04  0.23945041410E+04  0.00000000000E+00 0. -1.
        -13    1    3    3    0    0 -0.91653056177E+01 -0.69205674600E+02 -0.13882756549E+03  0.15539150930E+03  0.00000000000E+00 0.  1.
          2    1    6    6  502    0 -0.46454206037E+03  0.98202148106E+03 -0.56464774811E+03  0.12243335308E+04  0.00000000000E+00 0. -1.
          3    1    5    5  503    0  0.24328631938E+03  0.12179838226E+03 -0.15826094579E+03  0.31475324633E+03  0.00000000000E+00 0. -1.
         -4    1    5    5    0  503  0.47654741405E+02  0.69675124167E+02 -0.63304343701E+02  0.10551320883E+03  0.00000000000E+00 0.  1.
         -1    1    6    6    0  502 -0.18976133425E+02  0.43110862853E+02 -0.45795796019E+02  0.65695472208E+02  0.00000000000E+00 0.  1.
<mgrwt>
<rscale>  0 0.29611352E+04</rscale>
<asrwt>0</asrwt>
<pdfrwt beam="1">  1        2 0.56330905E+00 0.29611352E+04</pdfrwt>
<pdfrwt beam="2">  1       -2 0.92104965E-01 0.29611352E+04</pdfrwt>
<totfact> 0.53558519E-01</totfact>
</mgrwt>
</event>
<event>
12    1  0.1114484E-007  0.1118549E+04  0.7818608E-02  0.9187299E-01
          1   -1    0    0  501    0  0.00000000000E+00  0.00000000000E+00  0.28392244183E+03  0.28392244183E+03  0.00000000000E+00 0. -1.
         -1   -1    0    0    0  501 -0.00000000000E+00 -0.00000000000E+00 -0.11016661613E+04  0.11016661613E+04  0.00000000000E+00 0.  1.
         23    2    1    2    0    0  0.17260957405E+03  0.51719697173E+02 -0.69010610737E+02  0.21611524700E+03  0.97336239194E+02 0.  0.
        254    2    1    2    0    0 -0.17260957405E+03 -0.51719697173E+02 -0.74873310868E+03  0.11694733561E+04  0.88011230558E+03 0.  0.
        -24    2    4    4    0    0 -0.42394487831E+03 -0.23516210057E+03 -0.19305391733E+03  0.52732562578E+03  0.75973858812E+02 0.  0.
         24    2    4    4    0    0  0.25133530426E+03  0.18344240339E+03 -0.55567919136E+03  0.64214773030E+03  0.82181465656E+02 0.  0.
         13    1    3    3    0    0  0.22913875158E+02 -0.15032640774E+02 -0.41777367044E+02  0.49963730450E+02  0.00000000000E+00 0.  1.
        -13    1    3    3    0    0  0.14969569889E+03  0.66752337948E+02 -0.27233243693E+02  0.16615151655E+03  0.00000000000E+00 0. -1.
          4    1    6    6  502    0  0.14405097449E+01  0.25640513794E+02 -0.34614153658E+02  0.43100471568E+02  0.00000000000E+00 0. -1.
          1    1    5    5  503    0 -0.36148360481E+02 -0.28904973576E+02  0.28728335075E+01  0.46372994676E+02  0.00000000000E+00 0. -1.
         -2    1    5    5    0  503 -0.38779651783E+03 -0.20625712699E+03 -0.19592675083E+03  0.48095263111E+03  0.00000000000E+00 0.  1.
         -3    1    6    6    0  502  0.24989479451E+03  0.15780188960E+03 -0.52106503770E+03  0.59904725874E+03  0.00000000000E+00 0.  1.
<mgrwt>
<rscale>  0 0.11185486E+04</rscale>
<asrwt>0</asrwt>
<pdfrwt beam="1">  1        1 0.43680376E-01 0.11185486E+04</pdfrwt>
<pdfrwt beam="2">  1       -1 0.16948710E+00 0.11185486E+04</pdfrwt>
<totfact> 0.23277234E+01</totfact>
</mgrwt>
</event>
<event>
12    1  0.1114484E-007  0.2464726E+04  0.7818608E-02  0.8415661E-01
          1   -1    0    0  501    0  0.00000000000E+00  0.00000000000E+00  0.17195766745E+04  0.17195766745E+04  0.00000000000E+00 0. -1.
         -1   -1    0    0    0  501 -0.00000000000E+00 -0.00000000000E+00 -0.88319358953E+03  0.88319358953E+03  0.00000000000E+00 0.  1.
         23    2    1    2    0    0  0.48100655336E+03  0.94537900183E+03  0.47429458884E+03  0.11655882739E+04  0.92368315306E+02 0.  0.
        254    2    1    2    0    0 -0.48100655336E+03 -0.94537900183E+03  0.36208849611E+03  0.14371819902E+04  0.89959726119E+03 0.  0.
        -24    2    4    4    0    0  0.16523651268E+03 -0.19639308199E+03  0.35496495188E+03  0.44476018676E+03  0.77059450352E+02 0.  0.
         24    2    4    4    0    0 -0.64624306604E+03 -0.74898591984E+03  0.71235442299E+01  0.99242180340E+03  0.78995458463E+02 0.  0.
         13    1    3    3    0    0  0.13083219273E+03  0.29030530163E+03  0.99594464299E+02  0.33363646103E+03  0.00000000000E+00 0. -1.
        -13    1    3    3    0    0  0.35017436063E+03  0.65507370020E+03  0.37470012454E+03  0.83195181283E+03  0.00000000000E+00 0.  1.
          2    1    6    6  502    0 -0.21079331053E+03 -0.30248677349E+03  0.60899924516E+01  0.36873995703E+03  0.00000000000E+00 0. -1.
          1    1    5    5  503    0  0.10914685230E+03 -0.95699483573E+02  0.14462126681E+03  0.20490665518E+03  0.00000000000E+00 0. -1.
         -4    1    5    5    0  503  0.56089660380E+02 -0.10069359842E+03  0.21034368507E+03  0.23985353158E+03  0.00000000000E+00 0.  1.
         -1    1    6    6    0  502 -0.43544975551E+03 -0.44649914635E+03  0.10335517784E+01  0.62368184637E+03  0.00000000000E+00 0.  1.
<mgrwt>
<rscale>  0 0.24647264E+04</rscale>
<asrwt>0</asrwt>
<pdfrwt beam="1">  1        1 0.26455026E+00 0.24647264E+04</pdfrwt>
<pdfrwt beam="2">  1       -1 0.13587594E+00 0.24647264E+04</pdfrwt>
<totfact> 0.18657512E+00</totfact>
</mgrwt>
</event>
<event>
12    1  0.1114484E-007  0.1844288E+04  0.7818608E-02  0.8683096E-01
          1   -1    0    0  501    0  0.00000000000E+00  0.00000000000E+00  0.34137733471E+04  0.34137733471E+04  0.00000000000E+00 0. -1.
         -1   -1    0    0    0  501 -0.00000000000E+00 -0.00000000000E+00 -0.24909366862E+03  0.24909366862E+03  0.00000000000E+00 0.  1.
         23    2    1    2    0    0 -0.18968932151E+03  0.13054719449E+03  0.25169795592E+04  0.25291693246E+04  0.92123625447E+02 0.  0.
        254    2    1    2    0    0  0.18968932151E+03 -0.13054719449E+03  0.64770011926E+03  0.11336976911E+04  0.90151561365E+03 0.  0.
        -24    2    4    4    0    0  0.41433657358E+03 -0.23940705180E+03  0.71395685927E+03  0.86324749486E+03  0.80444439436E+02 0.  0.
         24    2    4    4    0    0 -0.22464725207E+03  0.10885985731E+03 -0.66256740008E+02  0.27045019625E+03  0.80227779835E+02 0.  0.
         11    1    3    3    0    0 -0.70885024467E+02  0.10442079812E+03  0.13276108370E+04  0.13335962373E+04  0.00000000000E+00 0.  1.
        -11    1    3    3    0    0 -0.11880429704E+03  0.26126396368E+02  0.11893687223E+04  0.11955730873E+04  0.00000000000E+00 0. -1.
          4    1    6    6  502    0 -0.18118267829E+03  0.86044599537E+02 -0.85081888546E+02  0.21787556949E+03  0.00000000000E+00 0. -1.
          3    1    5    5  503    0  0.16859670915E+03 -0.12262948422E+03  0.25128754857E+03  0.32650922315E+03  0.00000000000E+00 0. -1.
         -4    1    5    5    0  503  0.24573986443E+03 -0.11677756758E+03  0.46266931070E+03  0.53673827171E+03  0.00000000000E+00 0.  1.
         -3    1    6    6    0  502 -0.43464573778E+02  0.22815257776E+02  0.18825148539E+02  0.52574626756E+02  0.00000000000E+00 0.  1.
<mgrwt>
<rscale>  0 0.18442878E+04</rscale>
<asrwt>0</asrwt>
<pdfrwt beam="1">  1        1 0.52519587E+00 0.18442878E+04</pdfrwt>
<pdfrwt beam="2">  1       -1 0.38322105E-01 0.18442878E+04</pdfrwt>
<totfact> 0.18172299E+00</totfact>
</mgrwt>
</event>
<event>
12    1  0.1114484E-007  0.2418272E+04  0.7818608E-02  0.8432694E-01
         -2   -1    0    0    0  501 -0.00000000000E+00  0.00000000000E+00  0.81300184052E+03  0.81300184052E+03  0.00000000000E+00 0.  1.
          2   -1    0    0  501    0  0.00000000000E+00 -0.00000000000E+00 -0.17982865779E+04  0.17982865779E+04  0.00000000000E+00 0. -1.
         23    2    1    2    0    0 -0.77150277771E+03 -0.56125617651E+03  0.78755029940E+02  0.96198602854E+03  0.94814200812E+02 0.  0.
        254    2    1    2    0    0  0.77150277771E+03  0.56125617651E+03 -0.10640397673E+04  0.16493023899E+04  0.82328167426E+03 0.  0.
        -24    2    4    4    0    0  0.81590408096E+03  0.70900017806E+03 -0.95159966469E+03  0.14424130098E+04  0.81441064999E+02 0.  0.
         24    2    4    4    0    0 -0.44401303257E+02 -0.14774400155E+03 -0.11244010264E+03  0.20688938014E+03  0.79753828789E+02 0.  0.
         11    1    3    3    0    0 -0.55892415629E+03 -0.37485867254E+03  0.20387363405E+02  0.67329850843E+03  0.00000000000E+00 0.  1.
        -11    1    3    3    0    0 -0.21257862142E+03 -0.18639750397E+03  0.58367666535E+02  0.28868752011E+03  0.00000000000E+00 0. -1.
          2    1    6    6  502    0 -0.32943187342E+02 -0.45906416822E+02 -0.82739326329E+02  0.10019205966E+03  0.00000000000E+00 0. -1.
          3    1    5    5  503    0  0.78823250276E+01  0.35527487368E+01 -0.21926010526E+00  0.86487656010E+01  0.00000000000E+00 0. -1.
         -4    1    5    5    0  503  0.80802175594E+03  0.70544742932E+03 -0.95138040458E+03  0.14337642442E+04  0.00000000000E+00 0.  1.
         -1    1    6    6    0  502 -0.11458115915E+02 -0.10183758472E+03 -0.29700776316E+02  0.10669732048E+03  0.00000000000E+00 0.  1.
<mgrwt>
<rscale>  0 0.24182724E+04</rscale>
<asrwt>0</asrwt>
<pdfrwt beam="1">  1        2 0.27665947E+00 0.24182724E+04</pdfrwt>
<pdfrwt beam="2">  1       -2 0.12507721E+00 0.24182724E+04</pdfrwt>
<totfact> 0.37175892E+00</totfact>
</mgrwt>
</event>
<event>
12    1  0.1114484E-007  0.1648964E+04  0.7818608E-02  0.8791019E-01
         -2   -1    0    0    0  501 -0.00000000000E+00  0.00000000000E+00  0.44678600865E+03  0.44678600865E+03  0.00000000000E+00 0.  1.
          2   -1    0    0  501    0  0.00000000000E+00 -0.00000000000E+00 -0.15214685627E+04  0.15214685627E+04  0.00000000000E+00 0. -1.
         23    2    1    2    0    0  0.11797477986E+03  0.54423128116E+03 -0.22045604835E+03  0.60597894859E+03  0.92216488777E+02 0.  0.
        254    2    1    2    0    0 -0.11797477986E+03 -0.54423128116E+03 -0.85422650566E+03  0.13622756227E+04  0.90331955212E+03 0.  0.
        -24    2    4    4    0    0 -0.17580704750E+03  0.20777204010E+03 -0.35924007653E+03  0.45669267725E+03  0.73738933208E+02 0.  0.
         24    2    4    4    0    0  0.57832267638E+02 -0.75200332126E+03 -0.49498642914E+03  0.90558294549E+03  0.78837426190E+02 0.  0.
         11    1    3    3    0    0  0.35672195040E+02  0.13294321225E+03 -0.13639002742E+02  0.13832001149E+03  0.00000000000E+00 0. -1.
        -11    1    3    3    0    0  0.82302584824E+02  0.41128806891E+03 -0.20681704561E+03  0.46765893710E+03  0.00000000000E+00 0.  1.
          2    1    6    6  502    0  0.34372292999E+02 -0.46877971718E+03 -0.26222475270E+03  0.53823572781E+03  0.00000000000E+00 0. -1.
          3    1    5    5  503    0 -0.16001167136E+03  0.18295064456E+03 -0.27273077738E+03  0.36531732815E+03  0.00000000000E+00 0. -1.
         -4    1    5    5    0  503 -0.15795376145E+02  0.24821395535E+02 -0.86509299145E+02  0.91375349096E+02  0.00000000000E+00 0.  1.
         -1    1    6    6    0  502  0.23459974639E+02 -0.28322360407E+03 -0.23276167644E+03  0.36734721767E+03  0.00000000000E+00 0.  1.
<mgrwt>
<rscale>  0 0.16489644E+04</rscale>
<asrwt>0</asrwt>
<pdfrwt beam="1">  1        2 0.23407209E+00 0.16489644E+04</pdfrwt>
<pdfrwt beam="2">  1       -2 0.68736308E-01 0.16489644E+04</pdfrwt>
<totfact> 0.22809637E+01</totfact>
</mgrwt>
</event>
<event>
12    1  0.1114484E-007  0.2070331E+04  0.7818608E-02  0.8574427E-01
          2   -1    0    0  501    0  0.00000000000E+00  0.00000000000E+00  0.22745835057E+04  0.22745835057E+04  0.00000000000E+00 0. -1.
         -2   -1    0    0    0  501 -0.00000000000E+00 -0.00000000000E+00 -0.47110503939E+03  0.47110503939E+03  0.00000000000E+00 0.  1.
         23    2    1    2    0    0  0.25321903653E+02  0.47454273058E+03 -0.18131052427E+03  0.51668663840E+03  0.90882199257E+02 0.  0.
        254    2    1    2    0    0 -0.25321903653E+02 -0.47454273058E+03  0.19847889906E+04  0.22290019067E+04  0.89623108681E+03 0.  0.
        -24    2    4    4    0    0  0.35350663596E+03  0.16110450992E+02  0.98698115018E+03  0.10515832800E+04  0.80430813296E+02 0.  0.
         24    2    4    4    0    0 -0.37882853962E+03 -0.49065318157E+03  0.99780784044E+03  0.11774186267E+04  0.80265366371E+02 0.  0.
         13    1    3    3    0    0 -0.24512664827E+02  0.32835773318E+03 -0.11820383045E+03  0.34984541902E+03  0.00000000000E+00 0.  1.
        -13    1    3    3    0    0  0.49834568480E+02  0.14618499740E+03 -0.63106693811E+02  0.16684121938E+03  0.00000000000E+00 0. -1.
          4    1    6    6  502    0 -0.18383762436E+03 -0.29033666072E+03  0.50475835584E+03  0.61063298836E+03  0.00000000000E+00 0. -1.
          3    1    5    5  503    0  0.18227858639E+03  0.48273324553E+02  0.49982285150E+03  0.53420846100E+03  0.00000000000E+00 0. -1.
         -4    1    5    5    0  503  0.17122804957E+03 -0.32162873561E+02  0.48715829868E+03  0.51737481903E+03  0.00000000000E+00 0.  1.
         -3    1    6    6    0  502 -0.19499091526E+03 -0.20031652086E+03  0.49304948460E+03  0.56678563833E+03  0.00000000000E+00 0.  1.
<mgrwt>
<rscale>  0 0.20703311E+04</rscale>
<asrwt>0</asrwt>
<pdfrwt beam="1">  1        2 0.34993592E+00 0.20703311E+04</pdfrwt>
<pdfrwt beam="2">  1       -2 0.72477700E-01 0.20703311E+04</pdfrwt>
<totfact> 0.74566305E+00</totfact>
</mgrwt>
</event>
<event>
12    1  0.1114484E-007  0.1776524E+04  0.7818608E-02  0.8718884E-01
          1   -1    0    0  501    0  0.00000000000E+00  0.00000000000E+00  0.11226868785E+04  0.11226868785E+04  0.00000000000E+00 0. -1.
         -1   -1    0    0    0  501 -0.00000000000E+00 -0.00000000000E+00 -0.70278699356E+03  0.70278699356E+03  0.00000000000E+00 0.  1.
         23    2    1    2    0    0 -0.53273381920E+03  0.32394783629E+03 -0.53545165879E+02  0.63246137334E+03  0.91612123760E+02 0.  0.
        254    2    1    2    0    0  0.53273381920E+03 -0.32394783629E+03  0.47344505081E+03  0.11930124987E+04  0.90021168797E+03 0.  0.
        -24    2    4    4    0    0  0.40607718834E+03 -0.30683229003E+03  0.73134485757E+03  0.89440162596E+03  0.77744650873E+02 0.  0.
         24    2    4    4    0    0  0.12665663087E+03 -0.17115546257E+02 -0.25789980676E+03  0.29861087274E+03  0.79506596732E+02 0.  0.
         11    1    3    3    0    0 -0.81804002701E+02  0.80483302806E+02  0.13850755822E+02  0.11559109103E+03  0.00000000000E+00 0. -1.
        -11    1    3    3    0    0 -0.45092981650E+03  0.24346453348E+03 -0.67395921700E+02  0.51687028231E+03  0.00000000000E+00 0.  1.
          4    1    6    6  502    0  0.12134050297E+03 -0.39291111368E+02 -0.22370705132E+03  0.25751146364E+03  0.00000000000E+00 0. -1.
          1    1    5    5  503    0  0.37674237100E+03 -0.29479186283E+03  0.64968250781E+03  0.80679887051E+03  0.00000000000E+00 0. -1.
         -2    1    5    5    0  503  0.29334817335E+02 -0.12040427203E+02  0.81662349755E+02  0.87602755452E+02  0.00000000000E+00 0.  1.
         -3    1    6    6    0  502  0.53161278941E+01  0.22175565111E+02 -0.34192755437E+02  0.41099409097E+02  0.00000000000E+00 0.  1.
<mgrwt>
<rscale>  0 0.17765244E+04</rscale>
<asrwt>0</asrwt>
<pdfrwt beam="1">  1        1 0.17272106E+00 0.17765244E+04</pdfrwt>
<pdfrwt beam="2">  1       -1 0.10812108E+00 0.17765244E+04</pdfrwt>
<totfact> 0.91632287E+00</totfact>
</mgrwt>
</event>
<event>
12    1  0.1114484E-007  0.1515850E+04  0.7818608E-02  0.8873981E-01
         -2   -1    0    0    0  501 -0.00000000000E+00  0.00000000000E+00  0.37381029269E+03  0.37381029269E+03  0.00000000000E+00 0.  1.
          2   -1    0    0  501    0  0.00000000000E+00 -0.00000000000E+00 -0.15367435170E+04  0.15367435170E+04  0.00000000000E+00 0. -1.
         23    2    1    2    0    0  0.22910859204E+03 -0.10668831684E+03  0.14366091142E+03  0.30524272624E+03  0.93067290463E+02 0.  0.
        254    2    1    2    0    0 -0.22910859204E+03  0.10668831684E+03 -0.13065941357E+04  0.16053110834E+04  0.89775402825E+03 0.  0.
        -24    2    4    4    0    0  0.72040292145E+02 -0.35392205135E+03 -0.60823694415E+03  0.71257800798E+03  0.85817335667E+02 0.  0.
         24    2    4    4    0    0 -0.30114888418E+03  0.46061036820E+03 -0.69835719155E+03  0.89273307545E+03  0.80106274900E+02 0.  0.
         13    1    3    3    0    0  0.20099631502E+03 -0.58653746476E+02  0.89906811608E+02  0.22786622259E+03  0.00000000000E+00 0. -1.
        -13    1    3    3    0    0  0.28112277023E+02 -0.48034570366E+02  0.53754099808E+02  0.77376503641E+02  0.00000000000E+00 0.  1.
          4    1    6    6  502    0 -0.39160219454E+02  0.55725541322E+02 -0.13458516309E+03  0.15083774351E+03  0.00000000000E+00 0. -1.
          3    1    5    5  503    0  0.97714957151E+01 -0.16099454238E+03 -0.20136070361E+03  0.25799391032E+03  0.00000000000E+00 0. -1.
         -4    1    5    5    0  503  0.62268796430E+02 -0.19292750897E+03 -0.40687624055E+03  0.45458409766E+03  0.00000000000E+00 0.  1.
         -3    1    6    6    0  502 -0.26198866473E+03  0.40488482687E+03 -0.56377202845E+03  0.74189533194E+03  0.00000000000E+00 0.  1.
<mgrwt>
<rscale>  0 0.15158503E+04</rscale>
<asrwt>0</asrwt>
<pdfrwt beam="1">  1        2 0.23642208E+00 0.15158503E+04</pdfrwt>
<pdfrwt beam="2">  1       -2 0.57509275E-01 0.15158503E+04</pdfrwt>
<totfact> 0.33071454E+01</totfact>
</mgrwt>
</event>
<event>
12    1  0.1114484E-007  0.1057829E+04  0.7818608E-02  0.9247298E-01
         -2   -1    0    0    0  501 -0.00000000000E+00  0.00000000000E+00  0.22022560645E+03  0.22022560645E+03  0.00000000000E+00 0.  1.
          2   -1    0    0  501    0  0.00000000000E+00 -0.00000000000E+00 -0.12702907745E+04  0.12702907745E+04  0.00000000000E+00 0. -1.
         23    2    1    2    0    0 -0.14276939974E+03 -0.14836534002E+02 -0.86808277401E+02  0.19034059100E+03  0.89947981158E+02 0.  0.
        254    2    1    2    0    0  0.14276939974E+03  0.14836534002E+02 -0.96325689065E+03  0.13001757899E+04  0.86138842756E+03 0.  0.
        -24    2    4    4    0    0  0.11785760868E+03  0.10894298294E+03  0.11588982856E+03  0.21363040022E+03  0.80302590736E+02 0.  0.
         24    2    4    4    0    0  0.24911791061E+02 -0.94106448936E+02 -0.10791467192E+04  0.10865453897E+04  0.80911193864E+02 0.  0.
         13    1    3    3    0    0 -0.10095227169E+03 -0.47801957390E+02 -0.37655649502E+02  0.11787423904E+03  0.00000000000E+00 0.  1.
        -13    1    3    3    0    0 -0.41817128050E+02  0.32965423388E+02 -0.49152627899E+02  0.72466351963E+02  0.00000000000E+00 0. -1.
          2    1    6    6  502    0  0.22775727241E+02 -0.10867173280E+03 -0.90714048193E+03  0.91391035294E+03  0.00000000000E+00 0. -1.
          1    1    5    5  503    0  0.56073178005E+02  0.94342036791E+02  0.45405832699E+02  0.11876999133E+03  0.00000000000E+00 0. -1.
         -2    1    5    5    0  503  0.61784430672E+02  0.14600946147E+02  0.70483995859E+02  0.94860408887E+02  0.00000000000E+00 0.  1.
         -1    1    6    6    0  502  0.21360638207E+01  0.14565283860E+02 -0.17200623728E+03  0.17263503678E+03  0.00000000000E+00 0.  1.
<mgrwt>
<rscale>  0 0.10578290E+04</rscale>
<asrwt>0</asrwt>
<pdfrwt beam="1">  1        2 0.19542935E+00 0.10578290E+04</pdfrwt>
<pdfrwt beam="2">  1       -2 0.33880863E-01 0.10578290E+04</pdfrwt>
<totfact> 0.13944530E+02</totfact>
</mgrwt>
</event>
<event>
12    1  0.1114484E-007  0.1462385E+04  0.7818608E-02  0.8909859E-01
         -3   -1    0    0    0  501 -0.00000000000E+00  0.00000000000E+00  0.17481164796E+04  0.17481164796E+04  0.00000000000E+00 0.  1.
          3   -1    0    0  501    0  0.00000000000E+00 -0.00000000000E+00 -0.30583930111E+03  0.30583930111E+03  0.00000000000E+00 0. -1.
         23    2    1    2    0    0  0.56413772929E+02  0.29737557128E+03  0.84410844105E+03  0.90155665075E+03  0.93116003433E+02 0.  0.
        254    2    1    2    0    0 -0.56413772929E+02 -0.29737557128E+03  0.59816873740E+03  0.11523991299E+04  0.93733834448E+03 0.  0.
        -24    2    4    4    0    0  0.77221151872E+02 -0.59815786721E+02 -0.23829084248E+03  0.26947428811E+03  0.79327370454E+02 0.  0.
         24    2    4    4    0    0 -0.13363492480E+03 -0.23755978456E+03  0.83645957988E+03  0.88292484180E+03  0.74824482122E+02 0.  0.
         13    1    3    3    0    0 -0.20330990007E+02  0.18694796218E+02  0.74918408513E+02  0.79847432610E+02  0.00000000000E+00 0. -1.
        -13    1    3    3    0    0  0.76744762936E+02  0.27868077507E+03  0.76919003253E+03  0.82170921814E+03  0.00000000000E+00 0.  1.
          2    1    6    6  502    0 -0.13098477083E+03 -0.23482010212E+03  0.75630580808E+03  0.80268048805E+03  0.00000000000E+00 0. -1.
          3    1    5    5  503    0  0.37330954511E+02  0.32308659924E+01 -0.14635393544E+03  0.15107452822E+03  0.00000000000E+00 0. -1.
         -4    1    5    5    0  503  0.39890197362E+02 -0.63046652714E+02 -0.91936907043E+02  0.11839975988E+03  0.00000000000E+00 0.  1.
         -1    1    6    6    0  502 -0.26501539697E+01 -0.27396824416E+01  0.80153771796E+02  0.80244353752E+02  0.00000000000E+00 0.  1.
<mgrwt>
<rscale>  0 0.14623853E+04</rscale>
<asrwt>0</asrwt>
<pdfrwt beam="1">  1        3 0.47052201E-01 0.14623853E+04</pdfrwt>
<pdfrwt beam="2">  1       -3 0.26894099E+00 0.14623853E+04</pdfrwt>
<totfact> 0.65060970E-01</totfact>
</mgrwt>
</event>
<event>
12    1  0.1114484E-007  0.1908098E+04  0.7818608E-02  0.8650836E-01
         -1   -1    0    0    0  501 -0.00000000000E+00  0.00000000000E+00  0.45039386802E+03  0.45039386802E+03  0.00000000000E+00 0.  1.
          1   -1    0    0  501    0  0.00000000000E+00 -0.00000000000E+00 -0.20209183164E+04  0.20209183164E+04  0.00000000000E+00 0. -1.
         23    2    1    2    0    0 -0.44123555053E+03 -0.33237266203E+03 -0.12373341548E+04  0.13587094036E+04  0.99674646711E+02 0.  0.
        254    2    1    2    0    0  0.44123555053E+03  0.33237266203E+03 -0.33319029359E+03  0.11126027809E+04  0.90648153798E+03 0.  0.
        -24    2    4    4    0    0  0.54496636722E+03  0.25110271676E+03  0.13427939614E+03  0.61995093649E+03  0.79166228103E+02 0.  0.
         24    2    4    4    0    0 -0.10373081669E+03  0.81269945274E+02 -0.46746968973E+03  0.49265184436E+03  0.82541157012E+02 0.  0.
         11    1    3    3    0    0 -0.34051044288E+03 -0.25989469374E+03 -0.84755093068E+03  0.94965003745E+03  0.00000000000E+00 0. -1.
        -11    1    3    3    0    0 -0.10072510765E+03 -0.72477968290E+02 -0.38978322415E+03  0.40905936614E+03  0.00000000000E+00 0.  1.
          4    1    6    6  502    0 -0.22795525103E+02  0.13539476572E+02 -0.20841784758E+02  0.33724373715E+02  0.00000000000E+00 0. -1.
          1    1    5    5  503    0  0.12385489471E+03  0.67867894743E+02 -0.85316285391E+00  0.14123319003E+03  0.00000000000E+00 0. -1.
         -2    1    5    5    0  503  0.42111147251E+03  0.18323482202E+03  0.13513255899E+03  0.47871774646E+03  0.00000000000E+00 0.  1.
         -3    1    6    6    0  502 -0.80935291584E+02  0.67730468703E+02 -0.44662790497E+03  0.45892747064E+03  0.00000000000E+00 0.  1.
<mgrwt>
<rscale>  0 0.19080977E+04</rscale>
<asrwt>0</asrwt>
<pdfrwt beam="1">  1        1 0.31091052E+00 0.19080977E+04</pdfrwt>
<pdfrwt beam="2">  1       -1 0.69291363E-01 0.19080977E+04</pdfrwt>
<totfact> 0.56812721E+00</totfact>
</mgrwt>
</event>
<event>
12    1  0.1114484E-007  0.2191076E+04  0.7818608E-02  0.8522152E-01
         -2   -1    0    0    0  501 -0.00000000000E+00  0.00000000000E+00  0.53824288033E+03  0.53824288033E+03  0.00000000000E+00 0.  1.
          2   -1    0    0  501    0  0.00000000000E+00 -0.00000000000E+00 -0.22298553778E+04  0.22298553778E+04  0.00000000000E+00 0. -1.
         23    2    1    2    0    0 -0.27368589539E+03 -0.85951069974E+03 -0.58783836559E+03  0.10798516606E+04  0.82843542283E+02 0.  0.
        254    2    1    2    0    0  0.27368589539E+03  0.85951069974E+03 -0.11037741318E+04  0.16882465975E+04  0.90454221989E+03 0.  0.
        -24    2    4    4    0    0 -0.19170300420E+03 -0.22144889034E+02 -0.15094601842E+02  0.20984288602E+03  0.81029327259E+02 0.  0.
         24    2    4    4    0    0  0.46538889959E+03  0.88165558878E+03 -0.10886795300E+04  0.14784037115E+04  0.80938309947E+02 0.  0.
         13    1    3    3    0    0 -0.13203202354E+03 -0.38946421730E+03 -0.31650318552E+03  0.51893072586E+03  0.00000000000E+00 0.  1.
        -13    1    3    3    0    0 -0.14165387185E+03 -0.47004648245E+03 -0.27133518006E+03  0.56092093472E+03  0.00000000000E+00 0. -1.
          4    1    6    6  502    0  0.12684523377E+03  0.17245326448E+03 -0.21875950603E+03  0.30608097497E+03  0.00000000000E+00 0. -1.
          1    1    5    5  503    0 -0.59757254155E+02  0.30606883224E+02 -0.71850758644E+01  0.67522855686E+02  0.00000000000E+00 0. -1.
         -2    1    5    5    0  503 -0.13194575005E+03 -0.52751772257E+02 -0.79095259781E+01  0.14232003033E+03  0.00000000000E+00 0.  1.
         -3    1    6    6    0  502  0.33854366583E+03  0.70920232430E+03 -0.86992002397E+03  0.11723227365E+04  0.00000000000E+00 0.  1.
<mgrwt>
<rscale>  0 0.21910762E+04</rscale>
<asrwt>0</asrwt>
<pdfrwt beam="1">  1        2 0.34305467E+00 0.21910762E+04</pdfrwt>
<pdfrwt beam="2">  1       -2 0.82806597E-01 0.21910762E+04</pdfrwt>
<totfact> 0.58095867E+00</totfact>
</mgrwt>
</event>
<event>
12    1  0.1114484E-007  0.1955598E+04  0.7818608E-02  0.8627666E-01
         -1   -1    0    0    0  501 -0.00000000000E+00  0.00000000000E+00  0.50104255945E+03  0.50104255945E+03  0.00000000000E+00 0.  1.
          1   -1    0    0  501    0  0.00000000000E+00 -0.00000000000E+00 -0.19082023468E+04  0.19082023468E+04  0.00000000000E+00 0. -1.
         23    2    1    2    0    0 -0.59747208070E+03  0.35721932857E+03 -0.96179818512E+03  0.11909036146E+04  0.92828521318E+02 0.  0.
        254    2    1    2    0    0  0.59747208070E+03 -0.35721932857E+03 -0.44536160226E+03  0.12183412917E+04  0.89522623419E+03 0.  0.
        -24    2    4    4    0    0  0.12187591412E+03  0.15804532139E+03  0.17605202971E+03  0.27798199966E+03  0.80297029298E+02 0.  0.
         24    2    4    4    0    0  0.47559616658E+03 -0.51526464995E+03 -0.62141363197E+03  0.94035929205E+03  0.80195529734E+02 0.  0.
         11    1    3    3    0    0 -0.32694242392E+03  0.24101719422E+03 -0.59776132807E+03  0.72270273405E+03  0.00000000000E+00 0.  1.
        -11    1    3    3    0    0 -0.27052965678E+03  0.11620213435E+03 -0.36403685704E+03  0.46820088051E+03  0.00000000000E+00 0. -1.
          4    1    6    6  502    0  0.15438112907E+03 -0.18110779318E+03 -0.16297416567E+03  0.28843395161E+03  0.00000000000E+00 0. -1.
          1    1    5    5  503    0  0.56919129484E+02  0.13372129391E+03  0.11079106790E+03  0.18274526663E+03  0.00000000000E+00 0. -1.
         -2    1    5    5    0  503  0.64956784636E+02  0.24324027474E+02  0.65260961804E+02  0.95236733031E+02  0.00000000000E+00 0.  1.
         -3    1    6    6    0  502  0.32121503751E+03 -0.33415685677E+03 -0.45843946630E+03  0.65192534044E+03  0.00000000000E+00 0.  1.
<mgrwt>
<rscale>  0 0.19555977E+04</rscale>
<asrwt>0</asrwt>
<pdfrwt beam="1">  1        1 0.29356958E+00 0.19555977E+04</pdfrwt>
<pdfrwt beam="2">  1       -1 0.77083473E-01 0.19555977E+04</pdfrwt>
<totfact> 0.54056249E+00</totfact>
</mgrwt>
</event>
<event>
12    1  0.1114484E-007  0.2258975E+04  0.7818608E-02  0.8494275E-01
         -2   -1    0    0    0  501 -0.00000000000E+00  0.00000000000E+00  0.67623531859E+03  0.67623531859E+03  0.00000000000E+00 0.  1.
          2   -1    0    0  501    0  0.00000000000E+00 -0.00000000000E+00 -0.18865351972E+04  0.18865351972E+04  0.00000000000E+00 0. -1.
         23    2    1    2    0    0 -0.92366169980E+03  0.20308143233E+03 -0.59645085493E+03  0.11210581578E+04  0.81392672257E+02 0.  0.
        254    2    1    2    0    0  0.92366169980E+03 -0.20308143233E+03 -0.61384902373E+03  0.14417123580E+04  0.89851594054E+03 0.  0.
        -24    2    4    4    0    0  0.43024495402E+03 -0.48831087341E+03 -0.56077608811E+03  0.86290219396E+03  0.81068772052E+02 0.  0.
         24    2    4    4    0    0  0.49341674578E+03  0.28522944108E+03 -0.53072935621E+02  0.57881016403E+03  0.85956677514E+02 0.  0.
         13    1    3    3    0    0 -0.11739186321E+03 -0.13921468268E+01 -0.71057142827E+02  0.13722938886E+03  0.00000000000E+00 0. -1.
        -13    1    3    3    0    0 -0.80626983659E+03  0.20447357915E+03 -0.52539371210E+03  0.98382876898E+03  0.00000000000E+00 0.  1.
          2    1    6    6  502    0  0.24329306781E+03  0.10734773932E+03  0.72058744199E+01  0.26602063568E+03  0.00000000000E+00 0. -1.
          3    1    5    5  503    0  0.41853386608E+03 -0.44592699150E+03 -0.52945793543E+03  0.80891729132E+03  0.00000000000E+00 0. -1.
         -4    1    5    5    0  503  0.11711087938E+02 -0.42383881903E+02 -0.31318152681E+02  0.53984902641E+02  0.00000000000E+00 0.  1.
         -1    1    6    6    0  502  0.25012367797E+03  0.17788170176E+03 -0.60278810041E+02  0.31278952834E+03  0.00000000000E+00 0.  1.
<mgrwt>
<rscale>  0 0.22589747E+04</rscale>
<asrwt>0</asrwt>
<pdfrwt beam="1">  1        2 0.29023618E+00 0.22589747E+04</pdfrwt>
<pdfrwt beam="2">  1       -2 0.10403620E+00 0.22589747E+04</pdfrwt>
<totfact> 0.52812092E+00</totfact>
</mgrwt>
</event>
<event>
12    1  0.1114484E-007  0.2570439E+04  0.7818608E-02  0.8378312E-01
         -2   -1    0    0    0  501 -0.00000000000E+00  0.00000000000E+00  0.78145195923E+03  0.78145195923E+03  0.00000000000E+00 0. -1.
          2   -1    0    0  501    0  0.00000000000E+00 -0.00000000000E+00 -0.21137432590E+04  0.21137432590E+04  0.00000000000E+00 0.  1.
         23    2    1    2    0    0 -0.59143778507E+03  0.45018717349E+03 -0.15412376412E+04  0.17135706416E+04  0.91889784581E+02 0.  0.
        254    2    1    2    0    0  0.59143778507E+03 -0.45018717349E+03  0.20894634142E+03  0.11816245766E+04  0.89448919592E+03 0.  0.
        -24    2    4    4    0    0  0.31443789975E+03 -0.40990215753E+03  0.53241886567E+03  0.74627443240E+03  0.81022888095E+02 0.  0.
         24    2    4    4    0    0  0.27699988533E+03 -0.40285015960E+02 -0.32347252425E+03  0.43535014418E+03  0.80891625761E+02 0.  0.
         11    1    3    3    0    0 -0.27797244200E+02  0.10915195667E+02 -0.32377471913E+02  0.44046895112E+02  0.00000000000E+00 0. -1.
        -11    1    3    3    0    0 -0.56364054087E+03  0.43927197782E+03 -0.15088601693E+04  0.16695237465E+04  0.00000000000E+00 0.  1.
          4    1    6    6  502    0  0.25829446791E+03 -0.35238585453E+02 -0.32414281397E+03  0.41596436615E+03  0.00000000000E+00 0. -1.
          1    1    5    5  503    0  0.17462267593E+03 -0.28556114292E+03  0.36442313302E+03  0.49481558704E+03  0.00000000000E+00 0. -1.
         -2    1    5    5    0  503  0.13981522381E+03 -0.12434101461E+03  0.16799573264E+03  0.25145884536E+03  0.00000000000E+00 0.  1.
         -3    1    6    6    0  502  0.18705417416E+02 -0.50464305067E+01  0.67028972928E+00  0.19385778032E+02  0.00000000000E+00 0.  1.
<mgrwt>
<rscale>  0 0.25704387E+04</rscale>
<asrwt>0</asrwt>
<pdfrwt beam="1">  1        2 0.32519126E+00 0.25704387E+04</pdfrwt>
<pdfrwt beam="2">  1       -2 0.12022338E+00 0.25704387E+04</pdfrwt>
<totfact> 0.27054248E+00</totfact>
</mgrwt>
</event>
<event>
12    1  0.1114484E-007  0.1305373E+04  0.7818608E-02  0.9025315E-01
          2   -1    0    0  501    0  0.00000000000E+00  0.00000000000E+00  0.13930924113E+04  0.13930924113E+04  0.00000000000E+00 0. -1.
         -2   -1    0    0    0  501 -0.00000000000E+00 -0.00000000000E+00 -0.30579408743E+03  0.30579408743E+03  0.00000000000E+00 0.  1.
         23    2    1    2    0    0  0.10726469246E+03 -0.29964724158E+03  0.83991115376E+02  0.34172403395E+03  0.91796646374E+02 0.  0.
        254    2    1    2    0    0 -0.10726469246E+03  0.29964724158E+03  0.10033072084E+04  0.13571624647E+04  0.85672073484E+03 0.  0.
        -24    2    4    4    0    0  0.27820067256E+03 -0.12800183518E+03  0.48018468000E+03  0.57511240019E+03  0.79980384597E+02 0.  0.
         24    2    4    4    0    0 -0.38546536501E+03  0.42764907675E+03  0.52312252844E+03  0.78205006454E+03  0.80485049561E+02 0.  0.
         11    1    3    3    0    0 -0.65621027278E+01 -0.11734797327E+02  0.22301924325E+02  0.26041169120E+02  0.00000000000E+00 0. -1.
        -11    1    3    3    0    0  0.11382679518E+03 -0.28791244425E+03  0.61689191050E+02  0.31568286483E+03  0.00000000000E+00 0.  1.
          4    1    6    6  502    0 -0.10364419954E+03  0.68908523305E+02  0.97058375645E+02  0.15783166021E+03  0.00000000000E+00 0. -1.
          1    1    5    5  503    0  0.12460498214E+03 -0.25705726975E+02  0.14852912709E+03  0.19557118287E+03  0.00000000000E+00 0. -1.
         -2    1    5    5    0  503  0.15359569042E+03 -0.10229610820E+03  0.33165555291E+03  0.37954121732E+03  0.00000000000E+00 0.  1.
         -1    1    6    6    0  502 -0.28182116547E+03  0.35874055345E+03  0.42606415280E+03  0.62421840432E+03  0.00000000000E+00 0.  1.
<mgrwt>
<rscale>  0 0.13053726E+04</rscale>
<asrwt>0</asrwt>
<pdfrwt beam="1">  1        2 0.21432191E+00 0.13053726E+04</pdfrwt>
<pdfrwt beam="2">  1       -2 0.47045245E-01 0.13053726E+04</pdfrwt>
<totfact> 0.61257855E+01</totfact>
</mgrwt>
</event>
<event>
12    1  0.1114484E-007  0.2703606E+04  0.7818608E-02  0.8333836E-01
         -1   -1    0    0    0  501 -0.00000000000E+00  0.00000000000E+00  0.40172882324E+03  0.40172882324E+03  0.00000000000E+00 0.  1.
          1   -1    0    0  501    0  0.00000000000E+00 -0.00000000000E+00 -0.45487680771E+04  0.45487680771E+04  0.00000000000E+00 0. -1.
         23    2    1    2    0    0 -0.11099767651E+04  0.28344182352E+03 -0.12059314669E+04  0.16658918384E+04  0.92397121027E+02 0.  0.
        254    2    1    2    0    0  0.11099767651E+04 -0.28344182352E+03 -0.29411077870E+04  0.32846050619E+04  0.90891567917E+03 0.  0.
        -24    2    4    4    0    0  0.96845614758E+03 -0.55537703432E+03 -0.25260077008E+04  0.27628227761E+04  0.78254890861E+02 0.  0.
         24    2    4    4    0    0  0.14152061756E+03  0.27193521080E+03 -0.41510008620E+03  0.52178228580E+03  0.77277604410E+02 0.  0.
         11    1    3    3    0    0 -0.88566751187E+03  0.23014821719E+03 -0.90744329227E+03  0.12887313421E+04  0.00000000000E+00 0.  1.
        -11    1    3    3    0    0 -0.22430925327E+03  0.53293606326E+02 -0.29848817464E+03  0.37716049631E+03  0.00000000000E+00 0. -1.
          2    1    6    6  502    0  0.57111628253E+02  0.44275505337E+02 -0.11410418298E+03  0.13506229314E+03  0.00000000000E+00 0. -1.
          3    1    5    5  503    0  0.23712935015E+02 -0.11111133312E+01 -0.49278802790E+02  0.54698613001E+02  0.00000000000E+00 0. -1.
         -4    1    5    5    0  503  0.94474321256E+03 -0.55426592099E+03 -0.24767288980E+04  0.27081241631E+04  0.00000000000E+00 0.  1.
         -1    1    6    6    0  502  0.84408989303E+02  0.22765970546E+03 -0.30099590322E+03  0.38671999266E+03  0.00000000000E+00 0.  1.
<mgrwt>
<rscale>  0 0.27036059E+04</rscale>
<asrwt>0</asrwt>
<pdfrwt beam="1">  1        1 0.69981045E+00 0.27036059E+04</pdfrwt>
<pdfrwt beam="2">  1       -1 0.61804436E-01 0.27036059E+04</pdfrwt>
<totfact> 0.66631943E-02</totfact>
</mgrwt>
</event>
<event>
12    1  0.1114484E-007  0.1552636E+04  0.7818608E-02  0.8850186E-01
          1   -1    0    0  501    0  0.00000000000E+00  0.00000000000E+00  0.47017706663E+03  0.47017706663E+03  0.00000000000E+00 0. -1.
         -1   -1    0    0    0  501 -0.00000000000E+00 -0.00000000000E+00 -0.12817932307E+04  0.12817932307E+04  0.00000000000E+00 0.  1.
         23    2    1    2    0    0  0.34161217835E+02  0.47910103592E+03 -0.63649425017E+02  0.49261954768E+03  0.88983020999E+02 0.  0.
        254    2    1    2    0    0 -0.34161217835E+02 -0.47910103592E+03 -0.74796673906E+03  0.12593507497E+04  0.89207918736E+03 0.  0.
        -24    2    4    4    0    0 -0.39882389134E+03 -0.43638039903E+03 -0.27940416652E+03  0.65875295793E+03  0.80002639656E+02 0.  0.
         24    2    4    4    0    0  0.36466267351E+03 -0.42720636890E+02 -0.46856257254E+03  0.60059779173E+03  0.79767817966E+02 0.  0.
         11    1    3    3    0    0  0.36178182275E+02  0.42656353699E+03 -0.83970923887E+02  0.43625271119E+03  0.00000000000E+00 0. -1.
        -11    1    3    3    0    0 -0.20169644397E+01  0.52537498928E+02  0.20321498870E+02  0.56366836486E+02  0.00000000000E+00 0.  1.
          2    1    6    6  502    0  0.78202535896E+01  0.12363789662E+02 -0.19568014265E+02  0.24432086348E+02  0.00000000000E+00 0. -1.
          3    1    5    5  503    0 -0.41428831081E+01  0.10390168362E+01 -0.10091402334E+02  0.10958076360E+02  0.00000000000E+00 0. -1.
         -4    1    5    5    0  503 -0.39468100823E+03 -0.43741941586E+03 -0.26931276418E+03  0.64779488157E+03  0.00000000000E+00 0.  1.
         -1    1    6    6    0  502  0.35684241992E+03 -0.55084426552E+02 -0.44899455827E+03  0.57616570538E+03  0.00000000000E+00 0.  1.
<mgrwt>
<rscale>  0 0.15526362E+04</rscale>
<asrwt>0</asrwt>
<pdfrwt beam="1">  1        1 0.72334934E-01 0.15526362E+04</pdfrwt>
<pdfrwt beam="2">  1       -1 0.19719896E+00 0.15526362E+04</pdfrwt>
<totfact> 0.73105797E+00</totfact>
</mgrwt>
</event>
<event>
12    1  0.1114484E-007  0.1731234E+04  0.7818608E-02  0.8743749E-01
          1   -1    0    0  501    0  0.00000000000E+00  0.00000000000E+00  0.25553812986E+04  0.25553812986E+04  0.00000000000E+00 0. -1.
         -1   -1    0    0    0  501 -0.00000000000E+00 -0.00000000000E+00 -0.29322135583E+03  0.29322135583E+03  0.00000000000E+00 0.  1.
         23    2    1    2    0    0 -0.17501553460E+03 -0.34845530561E+03  0.25689090273E+02  0.40117744806E+03  0.90729698081E+02 0.  0.
        254    2    1    2    0    0  0.17501553460E+03  0.34845530561E+03  0.22364708525E+04  0.24474252063E+04  0.91435044121E+03 0.  0.
        -24    2    4    4    0    0  0.14686408978E+03 -0.12935251961E+03  0.63643323343E+02  0.22103378609E+03  0.80649406639E+02 0.  0.
         24    2    4    4    0    0  0.28151444825E+02  0.47780782521E+03  0.21728275291E+04  0.22263914203E+04  0.80910216730E+02 0.  0.
         11    1    3    3    0    0 -0.58198677008E+02 -0.16613579255E+03 -0.27595758192E+02  0.17818449271E+03  0.00000000000E+00 0. -1.
        -11    1    3    3    0    0 -0.11681685760E+03 -0.18231951306E+03  0.53284848465E+02  0.22299295535E+03  0.00000000000E+00 0.  1.
          4    1    6    6  502    0  0.27360327966E+02  0.39889696165E+03  0.19328318662E+04  0.19737543912E+04  0.00000000000E+00 0. -1.
          3    1    5    5  503    0  0.11410967440E+03 -0.12976322245E+03  0.32487604491E+02  0.17582649441E+03  0.00000000000E+00 0. -1.
         -4    1    5    5    0  503  0.32754415383E+02  0.41070283876E+00  0.31155718852E+02  0.45207291680E+02  0.00000000000E+00 0.  1.
         -3    1    6    6    0  502  0.79111685845E+00  0.78910863561E+02  0.23999566290E+03  0.25263702908E+03  0.00000000000E+00 0.  1.
<mgrwt>
<rscale>  0 0.17312335E+04</rscale>
<asrwt>0</asrwt>
<pdfrwt beam="1">  1        1 0.39313557E+00 0.17312335E+04</pdfrwt>
<pdfrwt beam="2">  1       -1 0.45110980E-01 0.17312335E+04</pdfrwt>
<totfact> 0.57451126E+00</totfact>
</mgrwt>
</event>
<event>
12    1  0.1114484E-007  0.2970006E+04  0.7818608E-02  0.8252348E-01
         -1   -1    0    0    0  501 -0.00000000000E+00  0.00000000000E+00  0.15380099025E+04  0.15380099025E+04  0.00000000000E+00 0.  1.
          1   -1    0    0  501    0  0.00000000000E+00 -0.00000000000E+00 -0.14338229586E+04  0.14338229586E+04  0.00000000000E+00 0. -1.
         23    2    1    2    0    0 -0.51596613548E+03 -0.46648457715E+03 -0.11070419550E+04  0.13105959899E+04  0.91055175940E+02 0.  0.
        254    2    1    2    0    0  0.51596613548E+03  0.46648457715E+03  0.12112288988E+04  0.16612368711E+04  0.89933507827E+03 0.  0.
        -24    2    4    4    0    0  0.15839361325E+03 -0.13287688918E+03  0.83593189602E+03  0.86488024915E+03  0.80566160296E+02 0.  0.
         24    2    4    4    0    0  0.35757252223E+03  0.59936146633E+03  0.37529700279E+03  0.79635662198E+03  0.79017422769E+02 0.  0.
         13    1    3    3    0    0 -0.33573167840E+03 -0.28868844436E+03 -0.62268596984E+03  0.76406452268E+03  0.00000000000E+00 0. -1.
        -13    1    3    3    0    0 -0.18023445708E+03 -0.17779613279E+03 -0.48435598514E+03  0.54653146725E+03  0.00000000000E+00 0.  1.
          2    1    6    6  502    0  0.34346882589E+03  0.57931034383E+03  0.34294619333E+03  0.75576676319E+03  0.00000000000E+00 0. -1.
          1    1    5    5  503    0  0.47695212384E+02 -0.39819077684E+02  0.41895861594E+03  0.42354068765E+03  0.00000000000E+00 0. -1.
         -2    1    5    5    0  503  0.11069840086E+03 -0.93057811495E+02  0.41697328009E+03  0.44133956149E+03  0.00000000000E+00 0.  1.
         -1    1    6    6    0  502  0.14103696342E+02  0.20051122496E+02  0.32350809463E+02  0.40589858792E+02  0.00000000000E+00 0.  1.
<mgrwt>
<rscale>  0 0.29700060E+04</rscale>
<asrwt>0</asrwt>
<pdfrwt beam="1">  1        1 0.22058815E+00 0.29700060E+04</pdfrwt>
<pdfrwt beam="2">  1       -1 0.23661691E+00 0.29700060E+04</pdfrwt>
<totfact> 0.52970427E-01</totfact>
</mgrwt>
</event>
<event>
12    1  0.1114484E-007  0.2218817E+04  0.7818608E-02  0.8510637E-01
         -2   -1    0    0    0  501 -0.00000000000E+00  0.00000000000E+00  0.31910606513E+03  0.31910606513E+03  0.00000000000E+00 0.  1.
          2   -1    0    0  501    0  0.00000000000E+00 -0.00000000000E+00 -0.38569845960E+04  0.38569845960E+04  0.00000000000E+00 0. -1.
         23    2    1    2    0    0 -0.32476423928E+03 -0.25914532299E+03 -0.30355623461E+04  0.30651464500E+04  0.88633478372E+02 0.  0.
        254    2    1    2    0    0  0.32476423928E+03  0.25914532299E+03 -0.50231618478E+03  0.11109442111E+04  0.89958178126E+03 0.  0.
        -24    2    4    4    0    0  0.20743863409E+03  0.57170595725E+03 -0.17869059446E+03  0.63892761323E+03  0.80122892654E+02 0.  0.
         24    2    4    4    0    0  0.11732560519E+03 -0.31256063426E+03 -0.32362559031E+03  0.47201659788E+03  0.81281598460E+02 0.  0.
         11    1    3    3    0    0 -0.27861782283E+03 -0.24448728301E+03 -0.24899715893E+04  0.25174114559E+04  0.00000000000E+00 0. -1.
        -11    1    3    3    0    0 -0.46146416447E+02 -0.14658039981E+02 -0.54559075673E+03  0.54773499406E+03  0.00000000000E+00 0.  1.
          2    1    6    6  502    0 -0.58486564351E+01 -0.79353117670E+02 -0.83501963268E+02  0.11534167476E+03  0.00000000000E+00 0. -1.
          1    1    5    5  503    0  0.20087984797E+03  0.52335209401E+03 -0.18360982052E+03  0.58988362735E+03  0.00000000000E+00 0. -1.
         -2    1    5    5    0  503  0.65587861146E+01  0.48353863246E+02  0.49192260559E+01  0.49043985881E+02  0.00000000000E+00 0.  1.
         -1    1    6    6    0  502  0.12317426163E+03 -0.23320751659E+03 -0.24012362705E+03  0.35667492313E+03  0.00000000000E+00 0.  1.
<mgrwt>
<rscale>  0 0.22188170E+04</rscale>
<asrwt>0</asrwt>
<pdfrwt beam="1">  1        2 0.59338224E+00 0.22188170E+04</pdfrwt>
<pdfrwt beam="2">  1       -2 0.49093241E-01 0.22188170E+04</pdfrwt>
<totfact> 0.16011071E+00</totfact>
</mgrwt>
</event>
<event>
12    1  0.1114484E-007  0.1744012E+04  0.7818608E-02  0.8736653E-01
         -2   -1    0    0    0  501 -0.00000000000E+00  0.00000000000E+00  0.51644630460E+03  0.51644630460E+03  0.00000000000E+00 0.  1.
          2   -1    0    0  501    0  0.00000000000E+00 -0.00000000000E+00 -0.14723595710E+04  0.14723595710E+04  0.00000000000E+00 0. -1.
         23    2    1    2    0    0  0.27179639555E+03 -0.84519059063E+02  0.29391502290E+03  0.41877597862E+03  0.89277811398E+02 0.  0.
        254    2    1    2    0    0 -0.27179639555E+03  0.84519059063E+02 -0.12498282893E+04  0.15700298970E+04  0.90659052096E+03 0.  0.
        -24    2    4    4    0    0 -0.33729639360E+03 -0.31452447689E+03 -0.95371559935E+03  0.10625316003E+04  0.81886833332E+02 0.  0.
         24    2    4    4    0    0  0.65499998058E+02  0.39904353595E+03 -0.29611268999E+03  0.50749829672E+03  0.79660546512E+02 0.  0.
         11    1    3    3    0    0  0.16744901157E+03 -0.74294735358E+02  0.23677952707E+03  0.29937171479E+03  0.00000000000E+00 0.  1.
        -11    1    3    3    0    0  0.10434738397E+03 -0.10224323705E+02  0.57135495836E+02  0.11940426383E+03  0.00000000000E+00 0. -1.
          2    1    6    6  502    0 -0.16911486476E+02  0.44280943206E+02 -0.26051897588E+02  0.54087906911E+02  0.00000000000E+00 0. -1.
          1    1    5    5  503    0 -0.72564821980E+01 -0.11469342660E+02 -0.74478908214E+02  0.75705416739E+02  0.00000000000E+00 0. -1.
         -2    1    5    5    0  503 -0.33003991141E+03 -0.30305513423E+03 -0.87923669114E+03  0.98682618355E+03  0.00000000000E+00 0.  1.
         -1    1    6    6    0  502  0.82411484534E+02  0.35476259274E+03 -0.27006079240E+03  0.45341038981E+03  0.00000000000E+00 0.  1.
<mgrwt>
<rscale>  0 0.17440122E+04</rscale>
<asrwt>0</asrwt>
<pdfrwt beam="1">  1        2 0.22651685E+00 0.17440122E+04</pdfrwt>
<pdfrwt beam="2">  1       -2 0.79453279E-01 0.17440122E+04</pdfrwt>
<totfact> 0.17517526E+01</totfact>
</mgrwt>
</event>
<event>
12    1  0.1114484E-007  0.2766062E+04  0.7818608E-02  0.8313883E-01
          2   -1    0    0  501    0  0.00000000000E+00  0.00000000000E+00  0.19603037537E+04  0.19603037537E+04  0.00000000000E+00 0. -1.
         -2   -1    0    0    0  501 -0.00000000000E+00 -0.00000000000E+00 -0.97575414668E+03  0.97575414668E+03  0.00000000000E+00 0.  1.
         23    2    1    2    0    0 -0.35637683770E+03  0.10265370418E+03 -0.81338616823E+03  0.89879990173E+03  0.93284356942E+02 0.  0.
        254    2    1    2    0    0  0.35637683770E+03 -0.10265370418E+03  0.17979357753E+04  0.20372579987E+04  0.88334866713E+03 0.  0.
        -24    2    4    4    0    0  0.20991758419E+03 -0.42369448832E+03  0.14807013365E+04  0.15564219150E+04  0.79939465152E+02 0.  0.
         24    2    4    4    0    0  0.14645925351E+03  0.32104078414E+03  0.31723443879E+03  0.48083608365E+03  0.77769866753E+02 0.  0.
         11    1    3    3    0    0  0.58756653861E+01  0.71889498836E+00 -0.16376427612E+02  0.17413432604E+02  0.00000000000E+00 0. -1.
        -11    1    3    3    0    0 -0.36225250308E+03  0.10193480919E+03 -0.79700974062E+03  0.88138646912E+03  0.00000000000E+00 0.  1.
          4    1    6    6  502    0  0.39912874570E+02  0.14094409045E+03  0.89973347036E+02  0.17191124852E+03  0.00000000000E+00 0. -1.
          1    1    5    5  503    0  0.21253248927E+03 -0.42234910493E+03  0.14795563231E+04  0.15532661519E+04  0.00000000000E+00 0. -1.
         -2    1    5    5    0  503 -0.26149050846E+01 -0.13453833873E+01  0.11450133613E+01  0.31557630864E+01  0.00000000000E+00 0.  1.
         -3    1    6    6    0  502  0.10654637894E+03  0.18009669368E+03  0.22726109175E+03  0.30892483514E+03  0.00000000000E+00 0.  1.
<mgrwt>
<rscale>  0 0.27660618E+04</rscale>
<asrwt>0</asrwt>
<pdfrwt beam="1">  1        2 0.30158519E+00 0.27660618E+04</pdfrwt>
<pdfrwt beam="2">  1       -2 0.15011602E+00 0.27660618E+04</pdfrwt>
<totfact> 0.18342294E+00</totfact>
</mgrwt>
</event>
<event>
12    1  0.1114484E-007  0.1542575E+04  0.7818608E-02  0.8856624E-01
          2   -1    0    0  501    0  0.00000000000E+00  0.00000000000E+00  0.68707548558E+03  0.68707548558E+03  0.00000000000E+00 0.  1.
         -2   -1    0    0    0  501 -0.00000000000E+00 -0.00000000000E+00 -0.86582148179E+03  0.86582148179E+03  0.00000000000E+00 0. -1.
         23    2    1    2    0    0 -0.39669183580E+03  0.24181799747E+03  0.13750469148E+03  0.49329519741E+03  0.92694417935E+02 0.  0.
        254    2    1    2    0    0  0.39669183580E+03 -0.24181799747E+03 -0.31625068769E+03  0.10596017700E+04  0.89827671514E+03 0.  0.
        -24    2    4    4    0    0 -0.21886625492E+03 -0.25648713016E+03  0.31807712207E+02  0.34785499052E+03  0.79393188570E+02 0.  0.
         24    2    4    4    0    0  0.61555809072E+03  0.14669132695E+02 -0.34805839990E+03  0.71174677945E+03  0.79447352497E+02 0.  0.
         13    1    3    3    0    0 -0.16085031585E+03  0.11051609199E+03  0.10444692737E+03  0.22134992960E+03  0.00000000000E+00 0. -1.
        -13    1    3    3    0    0 -0.23584151995E+03  0.13130190548E+03  0.33057764112E+02  0.27194526780E+03  0.00000000000E+00 0.  1.
          2    1    6    6  502    0  0.51980868473E+02 -0.15018909355E+02 -0.13842508224E+02  0.55849739116E+02  0.00000000000E+00 0. -1.
          3    1    5    5  503    0 -0.74092018382E+02 -0.14178321032E+03 -0.24709756912E+01  0.15999441127E+03  0.00000000000E+00 0. -1.
         -4    1    5    5    0  503 -0.14477423654E+03 -0.11470391985E+03  0.34278687898E+02  0.18786057925E+03  0.00000000000E+00 0.  1.
         -1    1    6    6    0  502  0.56357722224E+03  0.29688042050E+02 -0.33421589168E+03  0.65589704034E+03  0.00000000000E+00 0.  1.
<mgrwt>
<rscale>  0 0.15425754E+04</rscale>
<asrwt>0</asrwt>
<pdfrwt beam="1">  1        2 0.10570392E+00 0.15425754E+04</pdfrwt>
<pdfrwt beam="2">  1       -2 0.13320330E+00 0.15425754E+04</pdfrwt>
<totfact> 0.16488294E+01</totfact>
</mgrwt>
</event>
<event>
12    1  0.1114484E-007  0.1877291E+04  0.7818608E-02  0.8666244E-01
         -1   -1    0    0    0  501 -0.00000000000E+00  0.00000000000E+00  0.65964752420E+03  0.65964752420E+03  0.00000000000E+00 0.  1.
          1   -1    0    0  501    0  0.00000000000E+00 -0.00000000000E+00 -0.13356452301E+04  0.13356452301E+04  0.00000000000E+00 0. -1.
         23    2    1    2    0    0 -0.51920022222E+03  0.32750257817E+03 -0.65651816375E+03  0.90325026934E+03  0.89544068877E+02 0.  0.
        254    2    1    2    0    0  0.51920022222E+03 -0.32750257817E+03 -0.19479542116E+02  0.10920424849E+04  0.90296762227E+03 0.  0.
        -24    2    4    4    0    0  0.33737452210E+03 -0.45346506615E+02  0.41165616580E+03  0.53992676001E+03  0.78627180476E+02 0.  0.
         24    2    4    4    0    0  0.18182570012E+03 -0.28215607156E+03 -0.43113570791E+03  0.55211572492E+03  0.79253650583E+02 0.  0.
         11    1    3    3    0    0 -0.40431397515E+02  0.10666219680E+01 -0.51740460611E+02  0.65672755779E+02  0.00000000000E+00 0.  1.
        -11    1    3    3    0    0 -0.47876882470E+03  0.32643595621E+03 -0.60477770314E+03  0.83757751356E+03  0.00000000000E+00 0. -1.
          4    1    6    6  502    0 -0.28570792573E+01 -0.35495368068E+02 -0.59593549871E+02  0.69422440481E+02  0.00000000000E+00 0. -1.
          3    1    5    5  503    0  0.21863689082E+03 -0.41346504276E+02  0.21048313943E+03  0.30629197742E+03  0.00000000000E+00 0. -1.
         -4    1    5    5    0  503  0.11873763128E+03 -0.40000023392E+01  0.20117302636E+03  0.23363478259E+03  0.00000000000E+00 0.  1.
         -3    1    6    6    0  502  0.18468277937E+03 -0.24666070349E+03 -0.37154215804E+03  0.48269328444E+03  0.00000000000E+00 0.  1.
<mgrwt>
<rscale>  0 0.18772907E+04</rscale>
<asrwt>0</asrwt>
<pdfrwt beam="1">  1        1 0.20548388E+00 0.18772907E+04</pdfrwt>
<pdfrwt beam="2">  1       -1 0.10148424E+00 0.18772907E+04</pdfrwt>
<totfact> 0.73687575E+00</totfact>
</mgrwt>
</event>
<event>
12    1  0.1114484E-007  0.1364832E+04  0.7818608E-02  0.8979676E-01
          2   -1    0    0  501    0  0.00000000000E+00  0.00000000000E+00  0.73665870303E+03  0.73665870303E+03  0.00000000000E+00 0. -1.
         -2   -1    0    0    0  501 -0.00000000000E+00 -0.00000000000E+00 -0.63216703348E+03  0.63216703348E+03  0.00000000000E+00 0.  1.
         23    2    1    2    0    0 -0.23201648207E+03  0.28487569616E+03  0.13410509487E+03  0.40164687077E+03  0.91379549772E+02 0.  0.
        254    2    1    2    0    0  0.23201648207E+03 -0.28487569616E+03 -0.29613425321E+02  0.96717886574E+03  0.89418800773E+03 0.  0.
        -24    2    4    4    0    0  0.25476196993E+03 -0.43339241824E+03 -0.34051056318E+03  0.61280943364E+03  0.82796792326E+02 0.  0.
         24    2    4    4    0    0 -0.22745487860E+02  0.14851672208E+03  0.31089713786E+03  0.35436943210E+03  0.79662350714E+02 0.  0.
         11    1    3    3    0    0 -0.90231762788E+02  0.11701536793E+03  0.72771541905E+01  0.14794365252E+03  0.00000000000E+00 0. -1.
        -11    1    3    3    0    0 -0.14178471928E+03  0.16786032822E+03  0.12682794068E+03  0.25370321825E+03  0.00000000000E+00 0.  1.
          2    1    6    6  502    0 -0.38520952636E+02  0.95002457684E+02  0.13296659969E+03  0.16789713336E+03  0.00000000000E+00 0. -1.
          1    1    5    5  503    0  0.13038709286E+03 -0.14691096924E+03 -0.11534465413E+03  0.22778941175E+03  0.00000000000E+00 0. -1.
         -2    1    5    5    0  503  0.12437487708E+03 -0.28648144899E+03 -0.22516590905E+03  0.38502002190E+03  0.00000000000E+00 0.  1.
         -1    1    6    6    0  502  0.15775464776E+02  0.53514264396E+02  0.17793053817E+03  0.18647229874E+03  0.00000000000E+00 0.  1.
<mgrwt>
<rscale>  0 0.13648316E+04</rscale>
<asrwt>0</asrwt>
<pdfrwt beam="1">  1        2 0.11333211E+00 0.13648316E+04</pdfrwt>
<pdfrwt beam="2">  1       -2 0.97256467E-01 0.13648316E+04</pdfrwt>
<totfact> 0.33043955E+01</totfact>
</mgrwt>
</event>
<event>
12    1  0.1114484E-007  0.1558457E+04  0.7818608E-02  0.8846484E-01
          2   -1    0    0  501    0  0.00000000000E+00  0.00000000000E+00  0.26273455595E+04  0.26273455595E+04  0.00000000000E+00 0. -1.
         -2   -1    0    0    0  501 -0.00000000000E+00 -0.00000000000E+00 -0.23110672410E+03  0.23110672410E+03  0.00000000000E+00 0.  1.
         23    2    1    2    0    0  0.11928166290E+03 -0.47898364041E+03  0.60296521957E+03  0.78442267958E+03  0.89991340403E+02 0.  0.
        254    2    1    2    0    0 -0.11928166290E+03  0.47898364041E+03  0.17932736159E+04  0.20740296040E+04  0.91766829204E+03 0.  0.
        -24    2    4    4    0    0 -0.24817413449E+03 -0.24157617464E+02  0.68392602492E+02  0.27077007174E+03  0.80404553134E+02 0.  0.
         24    2    4    4    0    0  0.12889247159E+03  0.50314125787E+03  0.17248810134E+04  0.18032595323E+04  0.82255917299E+02 0.  0.
         13    1    3    3    0    0  0.13328808596E+03 -0.44694821445E+03  0.56836876311E+03  0.73523565687E+03  0.00000000000E+00 0.  1.
        -13    1    3    3    0    0 -0.14006423061E+02 -0.32035425960E+02  0.34596456467E+02  0.49187022715E+02  0.00000000000E+00 0. -1.
          4    1    6    6  502    0  0.64651616369E+01  0.49546999241E+02  0.26403544849E+03  0.26872182924E+03  0.00000000000E+00 0. -1.
          1    1    5    5  503    0 -0.22342599267E+02  0.75983695774E+01 -0.14982778931E+02  0.27953722949E+02  0.00000000000E+00 0. -1.
         -2    1    5    5    0  503 -0.22583153522E+03 -0.31755987042E+02  0.83375381422E+02  0.24281634879E+03  0.00000000000E+00 0.  1.
         -3    1    6    6    0  502  0.12242730996E+03  0.45359425863E+03  0.14608455649E+04  0.15345377031E+04  0.00000000000E+00 0.  1.
<mgrwt>
<rscale>  0 0.15584572E+04</rscale>
<asrwt>0</asrwt>
<pdfrwt beam="1">  1        2 0.40420699E+00 0.15584572E+04</pdfrwt>
<pdfrwt beam="2">  1       -2 0.35554883E-01 0.15584572E+04</pdfrwt>
<totfact> 0.21036405E+01</totfact>
</mgrwt>
</event>
<event>
12    1  0.1114484E-007  0.2582601E+04  0.7818608E-02  0.8374135E-01
          2   -1    0    0  501    0  0.00000000000E+00  0.00000000000E+00  0.23565158552E+04  0.23565158552E+04  0.00000000000E+00 0. -1.
         -2   -1    0    0    0  501 -0.00000000000E+00 -0.00000000000E+00 -0.70759440170E+03  0.70759440170E+03  0.00000000000E+00 0.  1.
         23    2    1    2    0    0 -0.11172688139E+04  0.85628576062E+02  0.52972088627E+03  0.12429433285E+04  0.93177492029E+02 0.  0.
        254    2    1    2    0    0  0.11172688139E+04 -0.85628576062E+02  0.11192005673E+04  0.18211669284E+04  0.89912024558E+03 0.  0.
        -24    2    4    4    0    0  0.69594217604E+03  0.99109173989E+02  0.11933771816E+03  0.71759448196E+03  0.80883921774E+02 0.  0.
         24    2    4    4    0    0  0.42132663782E+03 -0.18473775005E+03  0.99986284910E+03  0.11035724465E+04  0.80636564833E+02 0.  0.
         11    1    3    3    0    0 -0.15445845498E+03 -0.19414990401E+02  0.81827928037E+02  0.17586974149E+03  0.00000000000E+00 0.  1.
        -11    1    3    3    0    0 -0.96281035889E+03  0.10504356646E+03  0.44789295824E+03  0.10670735870E+04  0.00000000000E+00 0. -1.
          2    1    6    6  502    0  0.16283708886E+03 -0.11493249279E+03  0.42669146259E+03  0.47094691809E+03  0.00000000000E+00 0. -1.
          3    1    5    5  503    0  0.15406602929E+03  0.56135664819E+02  0.31263965301E+02  0.16692809761E+03  0.00000000000E+00 0. -1.
         -4    1    5    5    0  503  0.54187614675E+03  0.42973509170E+02  0.88073752856E+02  0.55066638435E+03  0.00000000000E+00 0.  1.
         -1    1    6    6    0  502  0.25848954896E+03 -0.69805257265E+02  0.57317138651E+03  0.63262552839E+03  0.00000000000E+00 0.  1.
<mgrwt>
<rscale>  0 0.25826013E+04</rscale>
<asrwt>0</asrwt>
<pdfrwt beam="1">  1        2 0.36254090E+00 0.25826013E+04</pdfrwt>
<pdfrwt beam="2">  1       -2 0.10886068E+00 0.25826013E+04</pdfrwt>
<totfact> 0.25123001E+00</totfact>
</mgrwt>
</event>
<event>
12    1  0.1114484E-007  0.2903653E+04  0.7818608E-02  0.8271791E-01
          2   -1    0    0  501    0  0.00000000000E+00  0.00000000000E+00  0.13720307548E+04  0.13720307548E+04  0.00000000000E+00 0.  1.
         -2   -1    0    0    0  501 -0.00000000000E+00 -0.00000000000E+00 -0.15362631439E+04  0.15362631439E+04  0.00000000000E+00 0. -1.
         23    2    1    2    0    0  0.25593251803E+03 -0.12166475261E+04 -0.51064991684E+03  0.13470826289E+04  0.90197643898E+02 0.  0.
        254    2    1    2    0    0 -0.25593251803E+03  0.12166475261E+04  0.34641752768E+03  0.15612112697E+04  0.87843205125E+03 0.  0.
        -24    2    4    4    0    0 -0.50596675530E+03  0.74852586717E+03 -0.27385569455E+02  0.90717885211E+03  0.77007590580E+02 0.  0.
         24    2    4    4    0    0  0.25003423728E+03  0.46812165897E+03  0.37380309714E+03  0.65403241764E+03  0.79841345687E+02 0.  0.
         13    1    3    3    0    0  0.31956822662E+02 -0.10558111907E+03 -0.20397669272E+02  0.11218144289E+03  0.00000000000E+00 0. -1.
        -13    1    3    3    0    0  0.22397569536E+03 -0.11110664071E+04 -0.49025224757E+03  0.12349011860E+04  0.00000000000E+00 0.  1.
          2    1    6    6  502    0  0.17986918414E+03  0.34759800918E+03  0.23117682259E+03  0.45455475214E+03  0.00000000000E+00 0. -1.
          1    1    5    5  503    0 -0.48721388516E+03  0.73451797886E+03 -0.36220737085E+02  0.88215983413E+03  0.00000000000E+00 0. -1.
         -2    1    5    5    0  503 -0.18752870149E+02  0.14007888312E+02  0.88351676297E+01  0.25019017983E+02  0.00000000000E+00 0.  1.
         -1    1    6    6    0  502  0.70165053139E+02  0.12052364979E+03  0.14262627455E+03  0.19947766550E+03  0.00000000000E+00 0.  1.
<mgrwt>
<rscale>  0 0.29036531E+04</rscale>
<asrwt>0</asrwt>
<pdfrwt beam="1">  1        2 0.21108165E+00 0.29036531E+04</pdfrwt>
<pdfrwt beam="2">  1       -2 0.23634818E+00 0.29036531E+04</pdfrwt>
<totfact> 0.10111601E+00</totfact>
</mgrwt>
</event>
<event>
12    1  0.1114484E-007  0.1595947E+04  0.7818608E-02  0.8823042E-01
          1   -1    0    0  501    0  0.00000000000E+00  0.00000000000E+00  0.32578312781E+04  0.32578312781E+04  0.00000000000E+00 0. -1.
         -1   -1    0    0    0  501 -0.00000000000E+00 -0.00000000000E+00 -0.19545578019E+03  0.19545578019E+03  0.00000000000E+00 0.  1.
         23    2    1    2    0    0  0.21079501448E+03  0.39236312215E+03  0.17756164097E+04  0.18328328879E+04  0.89885497862E+02 0.  0.
        254    2    1    2    0    0 -0.21079501448E+03 -0.39236312215E+03  0.12867590882E+04  0.16204541704E+04  0.87848700020E+03 0.  0.
        -24    2    4    4    0    0 -0.54396311424E+03 -0.17874224066E+03  0.70899131743E+03  0.91519795675E+03  0.84106798783E+02 0.  0.
         24    2    4    4    0    0  0.33316809976E+03 -0.21362088150E+03  0.57776777076E+03  0.70525621363E+03  0.83281848165E+02 0.  0.
         11    1    3    3    0    0  0.21034718745E+03  0.39699955694E+03  0.17473832866E+04  0.18042180959E+04  0.00000000000E+00 0. -1.
        -11    1    3    3    0    0  0.44782702925E+00 -0.46364347916E+01  0.28233123129E+02  0.28614791948E+02  0.00000000000E+00 0.  1.
          4    1    6    6  502    0  0.80124867692E+02 -0.49768659878E+02  0.20641687701E+03  0.22694678020E+03  0.00000000000E+00 0. -1.
          1    1    5    5  503    0 -0.94462387769E+02 -0.45998205639E+02  0.87144196012E+02  0.13650307148E+03  0.00000000000E+00 0. -1.
         -2    1    5    5    0  503 -0.44950072647E+03 -0.13274403502E+03  0.62184712142E+03  0.77869488527E+03  0.00000000000E+00 0.  1.
         -3    1    6    6    0  502  0.25304323206E+03 -0.16385222162E+03  0.37135089375E+03  0.47830943343E+03  0.00000000000E+00 0.  1.
<mgrwt>
<rscale>  0 0.15959473E+04</rscale>
<asrwt>0</asrwt>
<pdfrwt beam="1">  1        1 0.50120477E+00 0.15959473E+04</pdfrwt>
<pdfrwt beam="2">  1       -1 0.30070122E-01 0.15959473E+04</pdfrwt>
<totfact> 0.37773781E+00</totfact>
</mgrwt>
</event>
<event>
12    1  0.1114484E-007  0.1261983E+04  0.7818608E-02  0.9060268E-01
          1   -1    0    0  501    0  0.00000000000E+00  0.00000000000E+00  0.18874037464E+04  0.18874037464E+04  0.00000000000E+00 0. -1.
         -1   -1    0    0    0  501 -0.00000000000E+00 -0.00000000000E+00 -0.21095141214E+03  0.21095141214E+03  0.00000000000E+00 0.  1.
         23    2    1    2    0    0  0.21702823404E+02 -0.12242518383E+03  0.83603726318E+03  0.85011068195E+03  0.90944642282E+02 0.  0.
        254    2    1    2    0    0 -0.21702823404E+02  0.12242518383E+03  0.84041507114E+03  0.12482444766E+04  0.91452602122E+03 0.  0.
        -24    2    4    4    0    0  0.15731381781E+03  0.48020062157E+03  0.52001931623E+03  0.72940400329E+03  0.79182299345E+02 0.  0.
         24    2    4    4    0    0 -0.17901664122E+03 -0.35777543774E+03  0.32039575491E+03  0.51884047335E+03  0.80571554148E+02 0.  0.
         11    1    3    3    0    0  0.34006910432E+02 -0.56850262844E+01  0.13617382626E+03  0.14047099501E+03  0.00000000000E+00 0.  1.
        -11    1    3    3    0    0 -0.12304087028E+02 -0.11674015754E+03  0.69986343692E+03  0.70963968693E+03  0.00000000000E+00 0. -1.
          4    1    6    6  502    0 -0.13762285132E+03 -0.33056105677E+03  0.27282966383E+03  0.45016295597E+03  0.00000000000E+00 0. -1.
          1    1    5    5  503    0  0.16413571126E+03  0.42067909327E+03  0.45969938871E+03  0.64438727424E+03  0.00000000000E+00 0. -1.
         -4    1    5    5    0  503 -0.68218934505E+01  0.59521528307E+02  0.60319927523E+02  0.85016729052E+02  0.00000000000E+00 0.  1.
         -3    1    6    6    0  502 -0.41393789894E+02 -0.27214380974E+02  0.47566091075E+02  0.68677517382E+02  0.00000000000E+00 0.  1.
<mgrwt>
<rscale>  0 0.12619833E+04</rscale>
<asrwt>0</asrwt>
<pdfrwt beam="1">  1        1 0.29036980E+00 0.12619833E+04</pdfrwt>
<pdfrwt beam="2">  1       -1 0.32454065E-01 0.12619833E+04</pdfrwt>
<totfact> 0.31118942E+01</totfact>
</mgrwt>
</event>
<event>
12    1  0.1114484E-007  0.2470672E+04  0.7818608E-02  0.8413509E-01
         -1   -1    0    0    0  501 -0.00000000000E+00  0.00000000000E+00  0.62593745731E+03  0.62593745731E+03  0.00000000000E+00 0.  1.
          1   -1    0    0  501    0  0.00000000000E+00 -0.00000000000E+00 -0.24380303343E+04  0.24380303343E+04  0.00000000000E+00 0. -1.
         23    2    1    2    0    0 -0.80053779743E+03  0.34403063860E+03 -0.15604382567E+04  0.17896787824E+04  0.93620221597E+02 0.  0.
        254    2    1    2    0    0  0.80053779743E+03 -0.34403063860E+03 -0.25165462031E+03  0.12742890092E+04  0.89513383671E+03 0.  0.
        -24    2    4    4    0    0  0.31554818549E+03 -0.59459431171E+03 -0.26082749865E+02  0.67846699206E+03  0.80771879915E+02 0.  0.
         24    2    4    4    0    0  0.48498961194E+03  0.25056367311E+03 -0.22557187044E+03  0.59582201714E+03  0.78256816953E+02 0.  0.
         11    1    3    3    0    0 -0.57255088991E+03  0.20737081975E+03 -0.11347498880E+04  0.12878177227E+04  0.00000000000E+00 0.  1.
        -11    1    3    3    0    0 -0.22798690752E+03  0.13665981884E+03 -0.42568836866E+03  0.50186105976E+03  0.00000000000E+00 0. -1.
          2    1    6    6  502    0  0.83035772565E+01 -0.31981441364E+01  0.30388899850E+01  0.94027854125E+01  0.00000000000E+00 0. -1.
          3    1    5    5  503    0  0.11174908210E+03 -0.14702378763E+03  0.13008035821E+02  0.18512984761E+03  0.00000000000E+00 0. -1.
         -4    1    5    5    0  503  0.20379910339E+03 -0.44757052408E+03 -0.39090785686E+02  0.49333714445E+03  0.00000000000E+00 0.  1.
         -1    1    6    6    0  502  0.47668603468E+03  0.25376181725E+03 -0.22861076043E+03  0.58641923173E+03  0.00000000000E+00 0.  1.
<mgrwt>
<rscale>  0 0.24706716E+04</rscale>
<asrwt>0</asrwt>
<pdfrwt beam="1">  1        1 0.37508159E+00 0.24706716E+04</pdfrwt>
<pdfrwt beam="2">  1       -1 0.96298071E-01 0.24706716E+04</pdfrwt>
<totfact> 0.13828505E+00</totfact>
</mgrwt>
</event>
<event>
12    1  0.1114484E-007  0.2143096E+04  0.7818608E-02  0.8542493E-01
         -1   -1    0    0    0  501 -0.00000000000E+00  0.00000000000E+00  0.61000120963E+03  0.61000120963E+03  0.00000000000E+00 0.  1.
          1   -1    0    0  501    0  0.00000000000E+00 -0.00000000000E+00 -0.18823154471E+04  0.18823154471E+04  0.00000000000E+00 0. -1.
         23    2    1    2    0    0 -0.79945815967E+03  0.24461799198E+03 -0.83729937505E+03  0.11869526230E+04  0.93888096554E+02 0.  0.
        254    2    1    2    0    0  0.79945815967E+03 -0.24461799198E+03 -0.43501486240E+03  0.13053640337E+04  0.90319766331E+03 0.  0.
        -24    2    4    4    0    0  0.19021620811E+03  0.91259843961E+00 -0.59036735012E+03  0.62526032917E+03  0.78954622879E+02 0.  0.
         24    2    4    4    0    0  0.60924195156E+03 -0.24553059042E+03  0.15535248773E+03  0.68010370457E+03  0.83340429253E+02 0.  0.
         13    1    3    3    0    0 -0.70514716390E+03  0.21780047313E+03 -0.77803284774E+03  0.10723827120E+04  0.00000000000E+00 0. -1.
        -13    1    3    3    0    0 -0.94310995771E+02  0.26817518854E+02 -0.59266527310E+02  0.11456991097E+03  0.00000000000E+00 0.  1.
          2    1    6    6  502    0  0.53910024293E+03 -0.23423840112E+03  0.11683341606E+03  0.59928853451E+03  0.00000000000E+00 0. -1.
          3    1    5    5  503    0  0.79645571811E+02 -0.10456877300E+02 -0.36792952117E+03  0.37659646300E+03  0.00000000000E+00 0. -1.
         -4    1    5    5    0  503  0.11057063629E+03  0.11369475740E+02 -0.22243782895E+03  0.24866386617E+03  0.00000000000E+00 0.  1.
         -1    1    6    6    0  502  0.70141708629E+02 -0.11292189297E+02  0.38519071672E+02  0.80815170055E+02  0.00000000000E+00 0.  1.
<mgrwt>
<rscale>  0 0.21430956E+04</rscale>
<asrwt>0</asrwt>
<pdfrwt beam="1">  1        1 0.28958699E+00 0.21430956E+04</pdfrwt>
<pdfrwt beam="2">  1       -1 0.93846340E-01 0.21430956E+04</pdfrwt>
<totfact> 0.36111855E+00</totfact>
</mgrwt>
</event>
<event>
12    1  0.1114484E-007  0.2407416E+04  0.7818608E-02  0.8436733E-01
         -2   -1    0    0    0  501 -0.00000000000E+00  0.00000000000E+00  0.17082179858E+04  0.17082179858E+04  0.00000000000E+00 0.  1.
          2   -1    0    0  501    0  0.00000000000E+00 -0.00000000000E+00 -0.84820113366E+03  0.84820113366E+03  0.00000000000E+00 0. -1.
         23    2    1    2    0    0  0.24415102088E+03 -0.43386063778E+03  0.13412747277E+04  0.14333341178E+04  0.87086302525E+02 0.  0.
        254    2    1    2    0    0 -0.24415102088E+03  0.43386063778E+03 -0.48125787555E+03  0.11230850017E+04  0.88423187240E+03 0.  0.
        -24    2    4    4    0    0 -0.19394399995E+02 -0.17046300903E+03  0.13122585154E+03  0.23033594580E+03  0.80004022502E+02 0.  0.
         24    2    4    4    0    0 -0.22475662088E+03  0.60432364681E+03 -0.61248372709E+03  0.89274905587E+03  0.78370607194E+02 0.  0.
         13    1    3    3    0    0  0.43578210399E+02 -0.12826990901E+03  0.28403853203E+03  0.31469051091E+03  0.00000000000E+00 0. -1.
        -13    1    3    3    0    0  0.20057281048E+03 -0.30559072877E+03  0.10572361956E+04  0.11186436069E+04  0.00000000000E+00 0.  1.
          2    1    6    6  502    0 -0.18983397921E+03  0.42061887018E+03 -0.41252680894E+03  0.61897943561E+03  0.00000000000E+00 0. -1.
          1    1    5    5  503    0  0.21519918034E+02 -0.92195175743E+02  0.38272636530E+02  0.10211685468E+03  0.00000000000E+00 0. -1.
         -2    1    5    5    0  503 -0.40914318029E+02 -0.78267833284E+02  0.92953215011E+02  0.12821909112E+03  0.00000000000E+00 0.  1.
         -1    1    6    6    0  502 -0.34922641676E+02  0.18370477663E+03 -0.19995691815E+03  0.27376962026E+03  0.00000000000E+00 0.  1.
<mgrwt>
<rscale>  0 0.24074156E+04</rscale>
<asrwt>0</asrwt>
<pdfrwt beam="1">  1        2 0.13049248E+00 0.24074156E+04</pdfrwt>
<pdfrwt beam="2">  1       -2 0.26280277E+00 0.24074156E+04</pdfrwt>
<totfact> 0.15341031E+00</totfact>
</mgrwt>
</event>
<event>
12    1  0.1114484E-007  0.1254039E+04  0.7818608E-02  0.9066829E-01
          1   -1    0    0  501    0  0.00000000000E+00  0.00000000000E+00  0.24383895096E+03  0.24383895096E+03  0.00000000000E+00 0. -1.
         -1   -1    0    0    0  501 -0.00000000000E+00 -0.00000000000E+00 -0.16123480436E+04  0.16123480436E+04  0.00000000000E+00 0.  1.
         23    2    1    2    0    0 -0.16047091942E+03 -0.13224697897E+03 -0.29526575914E+02  0.22929910150E+03  0.92011302771E+02 0.  0.
        254    2    1    2    0    0  0.16047091942E+03  0.13224697897E+03 -0.13389825167E+04  0.16268878930E+04  0.90036095930E+03 0.  0.
        -24    2    4    4    0    0 -0.87181593513E+02 -0.27027479704E+03 -0.12402334632E+03  0.32081871117E+03  0.83028662744E+02 0.  0.
         24    2    4    4    0    0  0.24765251294E+03  0.40252177601E+03 -0.12149591704E+04  0.13060691819E+04  0.79595067668E+02 0.  0.
         13    1    3    3    0    0 -0.14195004277E+03 -0.13905509470E+03 -0.62848307124E+01  0.19881054575E+03  0.00000000000E+00 0. -1.
        -13    1    3    3    0    0 -0.18520876654E+02  0.68081157318E+01 -0.23241745201E+02  0.30488555752E+02  0.00000000000E+00 0.  1.
          2    1    6    6  502    0  0.29953697217E+02  0.20430741571E+02 -0.14043521038E+03  0.14504029610E+03  0.00000000000E+00 0. -1.
          1    1    5    5  503    0  0.63540883067E+01  0.27181300423E+01 -0.52694222368E+00  0.69311137088E+01  0.00000000000E+00 0. -1.
         -2    1    5    5    0  503 -0.93535681820E+02 -0.27299292708E+03 -0.12349640410E+03  0.31388759746E+03  0.00000000000E+00 0.  1.
         -1    1    6    6    0  502  0.21769881572E+03  0.38209103444E+03 -0.10745239600E+04  0.11610288858E+04  0.00000000000E+00 0.  1.
<mgrwt>
<rscale>  0 0.12540387E+04</rscale>
<asrwt>0</asrwt>
<pdfrwt beam="1">  1        1 0.37513685E-01 0.12540387E+04</pdfrwt>
<pdfrwt beam="2">  1       -1 0.24805354E+00 0.12540387E+04</pdfrwt>
<totfact> 0.81462968E+00</totfact>
</mgrwt>
</event>
<event>
12    1  0.1114484E-007  0.2515332E+04  0.7818608E-02  0.8397544E-01
         -2   -1    0    0    0  501 -0.00000000000E+00  0.00000000000E+00  0.93086097396E+03  0.93086097396E+03  0.00000000000E+00 0.  1.
          2   -1    0    0  501    0  0.00000000000E+00 -0.00000000000E+00 -0.16992048749E+04  0.16992048749E+04  0.00000000000E+00 0. -1.
         23    2    1    2    0    0 -0.17745300639E+03  0.10763522032E+04 -0.28266157945E+03  0.11309013890E+04  0.94956560103E+02 0.  0.
        254    2    1    2    0    0  0.17745300639E+03 -0.10763522032E+04 -0.48568232146E+03  0.14991644598E+04  0.90641222697E+03 0.  0.
        -24    2    4    4    0    0  0.31139481102E+03 -0.11683232936E+04 -0.51293500192E+03  0.13155054268E+04  0.74203538974E+02 0.  0.
         24    2    4    4    0    0 -0.13394180462E+03  0.91971090328E+02  0.27252680456E+02  0.18365903296E+03  0.81171690342E+02 0.  0.
         13    1    3    3    0    0 -0.79097725271E+02  0.67264955503E+03 -0.20992752349E+03  0.70907223831E+03  0.00000000000E+00 0.  1.
        -13    1    3    3    0    0 -0.98355281123E+02  0.40370264822E+03 -0.72734055958E+02  0.42182915072E+03  0.00000000000E+00 0. -1.
          4    1    6    6  502    0 -0.27474520792E+02  0.30825867527E+01 -0.23180295480E+02  0.36078771215E+02  0.00000000000E+00 0. -1.
          1    1    5    5  503    0  0.10989453527E+03 -0.42555475269E+03 -0.14812199036E+03  0.46380360116E+03  0.00000000000E+00 0. -1.
         -2    1    5    5    0  503  0.20150027574E+03 -0.74276854088E+03 -0.36481301156E+03  0.85170182567E+03  0.00000000000E+00 0.  1.
         -3    1    6    6    0  502 -0.10646728383E+03  0.88888503575E+02  0.50432975936E+02  0.14758026174E+03  0.00000000000E+00 0.  1.
<mgrwt>
<rscale>  0 0.25153318E+04</rscale>
<asrwt>0</asrwt>
<pdfrwt beam="1">  1        2 0.26141613E+00 0.25153318E+04</pdfrwt>
<pdfrwt beam="2">  1       -2 0.14320938E+00 0.25153318E+04</pdfrwt>
<totfact> 0.29607412E+00</totfact>
</mgrwt>
</event>
<event>
12    1  0.1114484E-007  0.2723212E+04  0.7818608E-02  0.8327512E-01
          2   -1    0    0  501    0  0.00000000000E+00  0.00000000000E+00  0.24925557189E+04  0.24925557189E+04  0.00000000000E+00 0. -1.
         -2   -1    0    0    0  501 -0.00000000000E+00 -0.00000000000E+00 -0.74380343763E+03  0.74380343763E+03  0.00000000000E+00 0.  1.
         23    2    1    2    0    0 -0.99784409461E+03 -0.57093087723E+03  0.39709996466E+03  0.12196307282E+04  0.90309620257E+02 0.  0.
        254    2    1    2    0    0  0.99784409461E+03  0.57093087723E+03  0.13516523166E+04  0.20167284284E+04  0.95842300943E+03 0.  0.
        -24    2    4    4    0    0  0.67338401519E+03  0.25122446702E+03  0.16302962647E+03  0.74130616945E+03  0.79977578294E+02 0.  0.
         24    2    4    4    0    0  0.32446007942E+03  0.31970641021E+03  0.11886226902E+04  0.12754222589E+04  0.79946901650E+02 0.  0.
         11    1    3    3    0    0 -0.97738924764E+03 -0.56762745315E+03  0.37898165617E+03  0.11921064393E+04  0.00000000000E+00 0.  1.
        -11    1    3    3    0    0 -0.20454846971E+02 -0.33034240754E+01  0.18118308493E+02  0.27524288872E+02  0.00000000000E+00 0. -1.
          4    1    6    6  502    0  0.30684721975E+03  0.30307921621E+03  0.11618575297E+04  0.12393244720E+04  0.00000000000E+00 0. -1.
          3    1    5    5  503    0  0.11859619232E+03  0.58111779937E+02  0.15435489693E+01  0.13207731956E+03  0.00000000000E+00 0. -1.
         -4    1    5    5    0  503  0.55478782287E+03  0.19311268708E+03  0.16148607750E+03  0.60922884989E+03  0.00000000000E+00 0.  1.
         -3    1    6    6    0  502  0.17612859677E+02  0.16627193995E+02  0.26765160512E+02  0.36097786960E+02  0.00000000000E+00 0.  1.
<mgrwt>
<rscale>  0 0.27232125E+04</rscale>
<asrwt>0</asrwt>
<pdfrwt beam="1">  1        2 0.38347011E+00 0.27232125E+04</pdfrwt>
<pdfrwt beam="2">  1       -2 0.11443130E+00 0.27232125E+04</pdfrwt>
<totfact> 0.18370034E+00</totfact>
</mgrwt>
</event>
<event>
12    1  0.1114484E-007  0.1854855E+04  0.7818608E-02  0.8677660E-01
          2   -1    0    0  501    0  0.00000000000E+00  0.00000000000E+00  0.15914301066E+04  0.15914301066E+04  0.00000000000E+00 0. -1.
         -2   -1    0    0    0  501 -0.00000000000E+00 -0.00000000000E+00 -0.54047096739E+03  0.54047096739E+03  0.00000000000E+00 0.  1.
         23    2    1    2    0    0 -0.22500484968E+02  0.22251214684E+03 -0.36607181731E+03  0.43853736171E+03  0.91041281159E+02 0.  0.
        254    2    1    2    0    0  0.22500484968E+02 -0.22251214684E+03  0.14170309566E+04  0.16933637123E+04  0.89971440083E+03 0.  0.
        -24    2    4    4    0    0 -0.62145331937E+02  0.32381690193E+03  0.34179070890E+03  0.48177076094E+03  0.81010796482E+02 0.  0.
         24    2    4    4    0    0  0.84645816905E+02 -0.54632904877E+03  0.10752402477E+04  0.12115929514E+04  0.78584641020E+02 0.  0.
         11    1    3    3    0    0 -0.19099908631E+02  0.12601261669E+03 -0.12357869190E+03  0.17752655905E+03  0.00000000000E+00 0. -1.
        -11    1    3    3    0    0 -0.34005763369E+01  0.96499530148E+02 -0.24249312540E+03  0.26101080266E+03  0.00000000000E+00 0.  1.
          4    1    6    6  502    0  0.40277705693E+02 -0.77675115167E+02  0.15824490706E+03  0.18082358171E+03  0.00000000000E+00 0. -1.
          1    1    5    5  503    0 -0.14340082363E+02  0.25131289123E+03  0.23778145825E+03  0.34627132303E+03  0.00000000000E+00 0. -1.
         -4    1    5    5    0  503 -0.47805249574E+02  0.72504010700E+02  0.10400925065E+03  0.13549943791E+03  0.00000000000E+00 0.  1.
         -3    1    6    6    0  502  0.44368111213E+02 -0.46865393361E+03  0.91699534060E+03  0.10307693697E+04  0.00000000000E+00 0.  1.
<mgrwt>
<rscale>  0 0.18548550E+04</rscale>
<asrwt>0</asrwt>
<pdfrwt beam="1">  1        2 0.24483540E+00 0.18548550E+04</pdfrwt>
<pdfrwt beam="2">  1       -2 0.83149380E-01 0.18548550E+04</pdfrwt>
<totfact> 0.13425598E+01</totfact>
</mgrwt>
</event>
<event>
12    1  0.1114484E-007  0.1792035E+04  0.7818608E-02  0.8710547E-01
          1   -1    0    0  501    0  0.00000000000E+00  0.00000000000E+00  0.10761225876E+04  0.10761225876E+04  0.00000000000E+00 0. -1.
         -1   -1    0    0    0  501 -0.00000000000E+00 -0.00000000000E+00 -0.74605571201E+03  0.74605571201E+03  0.00000000000E+00 0.  1.
         23    2    1    2    0    0  0.42431641221E+02  0.30005487074E+03 -0.47128341816E+03  0.56780784102E+03  0.92001709047E+02 0.  0.
        254    2    1    2    0    0 -0.42431641221E+02 -0.30005487074E+03  0.80135029370E+03  0.12543704585E+04  0.91621481346E+03 0.  0.
        -24    2    4    4    0    0  0.11605770848E+03 -0.58240631452E+03  0.35302090554E+03  0.69559979553E+03  0.81048188760E+02 0.  0.
         24    2    4    4    0    0 -0.15848934970E+03  0.28235144378E+03  0.44832938816E+03  0.55877066300E+03  0.79901200095E+02 0.  0.
         13    1    3    3    0    0  0.18448385285E+02  0.45201763375E+01 -0.41823395346E+02  0.45934424041E+02  0.00000000000E+00 0. -1.
        -13    1    3    3    0    0  0.23983255936E+02  0.29553469440E+03 -0.42946002281E+03  0.52187341698E+03  0.00000000000E+00 0.  1.
          4    1    6    6  502    0 -0.71725096230E+02  0.16413416614E+03  0.18592149956E+03  0.25816916532E+03  0.00000000000E+00 0. -1.
          1    1    5    5  503    0  0.94915293329E+02 -0.52443067416E+03  0.34106608765E+03  0.63274206518E+03  0.00000000000E+00 0. -1.
         -2    1    5    5    0  503  0.21142415149E+02 -0.57975640360E+02  0.11954817893E+02  0.62857730347E+02  0.00000000000E+00 0.  1.
         -3    1    6    6    0  502 -0.86764253470E+02  0.11821727765E+03  0.26240788859E+03  0.30060149769E+03  0.00000000000E+00 0.  1.
<mgrwt>
<rscale>  0 0.17920350E+04</rscale>
<asrwt>0</asrwt>
<pdfrwt beam="1">  1        1 0.16555732E+00 0.17920350E+04</pdfrwt>
<pdfrwt beam="2">  1       -1 0.11477780E+00 0.17920350E+04</pdfrwt>
<totfact> 0.86081189E+00</totfact>
</mgrwt>
</event>
<event>
12    1  0.1114484E-007  0.1334108E+04  0.7818608E-02  0.9002946E-01
          1   -1    0    0  501    0  0.00000000000E+00  0.00000000000E+00  0.11438738893E+04  0.11438738893E+04  0.00000000000E+00 0. -1.
         -1   -1    0    0    0  501 -0.00000000000E+00 -0.00000000000E+00 -0.38899457666E+03  0.38899457666E+03  0.00000000000E+00 0.  1.
         23    2    1    2    0    0 -0.26314061503E+03 -0.23630257160E+03  0.15670029064E+03  0.39602366191E+03  0.84840268048E+02 0.  0.
        254    2    1    2    0    0  0.26314061503E+03  0.23630257160E+03  0.59817902203E+03  0.11368448041E+04  0.89973111401E+03 0.  0.
        -24    2    4    4    0    0  0.25320632560E+03  0.54142558946E+03  0.55313887066E+03  0.81828077633E+03  0.79785377261E+02 0.  0.
         24    2    4    4    0    0  0.99342894321E+01 -0.30512301786E+03  0.45040151369E+02  0.31856402774E+03  0.79092846709E+02 0.  0.
         13    1    3    3    0    0 -0.13054688359E+03 -0.17154006653E+03  0.82062749821E+02  0.23065727421E+03  0.00000000000E+00 0. -1.
        -13    1    3    3    0    0 -0.13259373144E+03 -0.64762505075E+02  0.74637540820E+02  0.16536638770E+03  0.00000000000E+00 0.  1.
          4    1    6    6  502    0  0.15399420231E+02 -0.25765621146E+03  0.82275451679E+01  0.25824708700E+03  0.00000000000E+00 0. -1.
          3    1    5    5  503    0  0.15616702591E+03  0.41396392151E+03  0.41862933958E+03  0.60910162719E+03  0.00000000000E+00 0. -1.
         -4    1    5    5    0  503  0.97039299685E+02  0.12746166796E+03  0.13450953108E+03  0.20917914913E+03  0.00000000000E+00 0.  1.
         -3    1    6    6    0  502 -0.54651307988E+01 -0.47466806406E+02  0.36812606201E+02  0.60316940741E+02  0.00000000000E+00 0.  1.
<mgrwt>
<rscale>  0 0.13341076E+04</rscale>
<asrwt>0</asrwt>
<pdfrwt beam="1">  1        1 0.17598060E+00 0.13341076E+04</pdfrwt>
<pdfrwt beam="2">  1       -1 0.59845320E-01 0.13341076E+04</pdfrwt>
<totfact> 0.32611530E+01</totfact>
</mgrwt>
</event>
<event>
12    1  0.1114484E-007  0.2427274E+04  0.7818608E-02  0.8429363E-01
         -2   -1    0    0    0  501 -0.00000000000E+00  0.00000000000E+00  0.46254707683E+03  0.46254707683E+03  0.00000000000E+00 0.  1.
          2   -1    0    0  501    0  0.00000000000E+00 -0.00000000000E+00 -0.31843567979E+04  0.31843567979E+04  0.00000000000E+00 0. -1.
         23    2    1    2    0    0  0.54071998441E+03  0.15006106205E+03 -0.25012472660E+04  0.25652428146E+04  0.96624986045E+02 0.  0.
        254    2    1    2    0    0 -0.54071998441E+03 -0.15006106205E+03 -0.22056245502E+03  0.10816610602E+04  0.89802362363E+03 0.  0.
        -24    2    4    4    0    0 -0.73667460267E+03 -0.21441452446E+03  0.29291439147E+00  0.77112135851E+03  0.77233446340E+02 0.  0.
         24    2    4    4    0    0  0.19595461826E+03  0.64353462410E+02 -0.22085536941E+03  0.31053970165E+03  0.71541816853E+02 0.  0.
         13    1    3    3    0    0  0.53013154479E+03  0.15647182998E+03 -0.24780731954E+04  0.25389701948E+04  0.00000000000E+00 0. -1.
        -13    1    3    3    0    0  0.10588439618E+02 -0.64107679314E+01 -0.23174070649E+02  0.26272619767E+02  0.00000000000E+00 0.  1.
          4    1    6    6  502    0  0.72264284755E+02  0.58609337367E+02 -0.77339680608E+02  0.12099011313E+03  0.00000000000E+00 0. -1.
          3    1    5    5  503    0 -0.39394561388E+03 -0.15038886464E+03 -0.17188084304E+02  0.42202533993E+03  0.00000000000E+00 0. -1.
         -4    1    5    5    0  503 -0.34272898878E+03 -0.64025659827E+02  0.17480998695E+02  0.34909601857E+03  0.00000000000E+00 0.  1.
         -3    1    6    6    0  502  0.12369033350E+03  0.57441250432E+01 -0.14351568880E+03  0.18954958852E+03  0.00000000000E+00 0.  1.
<mgrwt>
<rscale>  0 0.24272741E+04</rscale>
<asrwt>0</asrwt>
<pdfrwt beam="1">  1        2 0.48990104E+00 0.24272741E+04</pdfrwt>
<pdfrwt beam="2">  1       -2 0.71161089E-01 0.24272741E+04</pdfrwt>
<totfact> 0.21375187E+00</totfact>
</mgrwt>
</event>
<event>
12    1  0.1114484E-007  0.2234541E+04  0.7818608E-02  0.8504187E-01
          1   -1    0    0  501    0  0.00000000000E+00  0.00000000000E+00  0.20730123591E+04  0.20730123591E+04  0.00000000000E+00 0. -1.
         -1   -1    0    0    0  501 -0.00000000000E+00 -0.00000000000E+00 -0.60216396932E+03  0.60216396932E+03  0.00000000000E+00 0.  1.
         23    2    1    2    0    0 -0.15712735198E+03  0.67262855611E+03 -0.13537316815E+03  0.70991244347E+03  0.92366679637E+02 0.  0.
        254    2    1    2    0    0  0.15712735198E+03 -0.67262855611E+03  0.16062215579E+04  0.19652638849E+04  0.89732728980E+03 0.  0.
        -24    2    4    4    0    0 -0.15436632239E+03  0.40433781962E+01  0.96056566431E+03  0.97619686105E+03  0.80178586181E+02 0.  0.
         24    2    4    4    0    0  0.31149367437E+03 -0.67667193431E+03  0.64565589358E+03  0.98906702385E+03  0.80429030194E+02 0.  0.
         11    1    3    3    0    0 -0.11981247074E+03  0.50105889162E+03 -0.14137185960E+03  0.53422939240E+03  0.00000000000E+00 0.  1.
        -11    1    3    3    0    0 -0.37314881239E+02  0.17156966449E+03  0.59986914509E+01  0.17568305108E+03  0.00000000000E+00 0. -1.
          4    1    6    6  502    0  0.73757603642E+02 -0.21910841693E+03  0.16387605107E+03  0.28337967919E+03  0.00000000000E+00 0. -1.
          1    1    5    5  503    0 -0.11247585204E+02 -0.25433284975E+02  0.14426472761E+03  0.14692063092E+03  0.00000000000E+00 0. -1.
         -2    1    5    5    0  503 -0.14311873719E+03  0.29476663172E+02  0.81630093669E+03  0.82927623013E+03  0.00000000000E+00 0.  1.
         -3    1    6    6    0  502  0.23773607073E+03 -0.45756351738E+03  0.48177984251E+03  0.70568734466E+03  0.00000000000E+00 0.  1.
<mgrwt>
<rscale>  0 0.22345410E+04</rscale>
<asrwt>0</asrwt>
<pdfrwt beam="1">  1        1 0.31892497E+00 0.22345410E+04</pdfrwt>
<pdfrwt beam="2">  1       -1 0.92640612E-01 0.22345410E+04</pdfrwt>
<totfact> 0.27369181E+00</totfact>
</mgrwt>
</event>
<event>
12    1  0.1114484E-007  0.1639587E+04  0.7818608E-02  0.8796591E-01
         -2   -1    0    0    0  501 -0.00000000000E+00  0.00000000000E+00  0.38932569362E+03  0.38932569362E+03  0.00000000000E+00 0.  1.
          2   -1    0    0  501    0  0.00000000000E+00 -0.00000000000E+00 -0.17262183460E+04  0.17262183460E+04  0.00000000000E+00 0. -1.
         23    2    1    2    0    0  0.25301093392E+03  0.50418571106E+03 -0.39969511374E+03  0.69728964208E+03  0.90768370487E+02 0.  0.
        254    2    1    2    0    0 -0.25301093392E+03 -0.50418571106E+03 -0.93719753867E+03  0.14182543976E+04  0.90271177338E+03 0.  0.
        -24    2    4    4    0    0  0.23908994178E+03 -0.10060486087E+03 -0.66990039849E+03  0.72389604392E+03  0.89295017850E+02 0.  0.
         24    2    4    4    0    0 -0.49210087569E+03 -0.40358085018E+03 -0.26729714017E+03  0.69435835364E+03  0.75133132725E+02 0.  0.
         11    1    3    3    0    0  0.52413968817E+02  0.18941631925E+03 -0.16280663715E+03  0.25520926164E+03  0.00000000000E+00 0.  1.
        -11    1    3    3    0    0  0.20059696510E+03  0.31476939181E+03 -0.23688847659E+03  0.44208038044E+03  0.00000000000E+00 0. -1.
          2    1    6    6  502    0 -0.37550771703E+02 -0.46376687345E+02 -0.45982726460E+02  0.75334379385E+02  0.00000000000E+00 0. -1.
          3    1    5    5  503    0  0.55094106340E+02  0.33364989802E+01 -0.79227496022E+02  0.96558215108E+02  0.00000000000E+00 0. -1.
         -4    1    5    5    0  503  0.18399583544E+03 -0.10394135985E+03 -0.59067290247E+03  0.62733782881E+03  0.00000000000E+00 0.  1.
         -1    1    6    6    0  502 -0.45455010399E+03 -0.35720416284E+03 -0.22131441371E+03  0.61902397426E+03  0.00000000000E+00 0.  1.
<mgrwt>
<rscale>  0 0.16395867E+04</rscale>
<asrwt>0</asrwt>
<pdfrwt beam="1">  1        2 0.26557205E+00 0.16395867E+04</pdfrwt>
<pdfrwt beam="2">  1       -2 0.59896262E-01 0.16395867E+04</pdfrwt>
<totfact> 0.23563857E+01</totfact>
</mgrwt>
</event>
<event>
12    1  0.1114484E-007  0.1632193E+04  0.7818608E-02  0.8801011E-01
          2   -1    0    0  501    0  0.00000000000E+00  0.00000000000E+00  0.20834327029E+04  0.20834327029E+04  0.00000000000E+00 0. -1.
         -2   -1    0    0    0  501 -0.00000000000E+00 -0.00000000000E+00 -0.31967141684E+03  0.31967141684E+03  0.00000000000E+00 0.  1.
         23    2    1    2    0    0  0.44536012409E+03  0.28693920771E+03  0.89961636780E+03  0.10481110667E+04  0.92452419434E+02 0.  0.
        254    2    1    2    0    0 -0.44536012409E+03 -0.28693920771E+03  0.86414491826E+03  0.13549930530E+04  0.89921075672E+03 0.  0.
        -24    2    4    4    0    0  0.18547617985E+03  0.90422147157E+02  0.46552684536E+03  0.51511128609E+03  0.77761271357E+02 0.  0.
         24    2    4    4    0    0 -0.63083630393E+03 -0.37736135486E+03  0.39861807290E+03  0.83988176695E+03  0.78415431572E+02 0.  0.
         13    1    3    3    0    0  0.12252504109E+03  0.40869677802E+02  0.17440557473E+03  0.21702539195E+03  0.00000000000E+00 0. -1.
        -13    1    3    3    0    0  0.32283508300E+03  0.24606952991E+03  0.72521079307E+03  0.83108567473E+03  0.00000000000E+00 0.  1.
          2    1    6    6  502    0 -0.27803541854E+03 -0.17697686670E+03  0.22195811686E+03  0.39735363463E+03  0.00000000000E+00 0. -1.
          3    1    5    5  503    0  0.59954460461E+02  0.71310015912E+02  0.18227919398E+03  0.20470798777E+03  0.00000000000E+00 0. -1.
         -4    1    5    5    0  503  0.12552171939E+03  0.19112131245E+02  0.28324765138E+03  0.31040329833E+03  0.00000000000E+00 0.  1.
         -1    1    6    6    0  502 -0.35280088539E+03 -0.20038448817E+03  0.17665995604E+03  0.44252813233E+03  0.00000000000E+00 0.  1.
<mgrwt>
<rscale>  0 0.16321935E+04</rscale>
<asrwt>0</asrwt>
<pdfrwt beam="1">  1        2 0.32052810E+00 0.16321935E+04</pdfrwt>
<pdfrwt beam="2">  1       -2 0.49180219E-01 0.16321935E+04</pdfrwt>
<totfact> 0.22481803E+01</totfact>
</mgrwt>
</event>
<event>
12    1  0.1114484E-007  0.1091211E+04  0.7818608E-02  0.9213801E-01
         -2   -1    0    0    0  501 -0.00000000000E+00  0.00000000000E+00  0.18499136600E+03  0.18499136600E+03  0.00000000000E+00 0. -1.
          2   -1    0    0  501    0  0.00000000000E+00 -0.00000000000E+00 -0.16091848617E+04  0.16091848617E+04  0.00000000000E+00 0.  1.
         23    2    1    2    0    0 -0.27203032503E+02  0.11753873317E+03 -0.66804841090E+02  0.16494527061E+03  0.90491417991E+02 0.  0.
        254    2    1    2    0    0  0.27203032503E+02 -0.11753873317E+03 -0.13573886546E+04  0.16292309571E+04  0.89293571613E+03 0.  0.
        -24    2    4    4    0    0  0.47685071140E+02  0.37785741941E+03 -0.71375462647E+03  0.81274246261E+03  0.77810978053E+02 0.  0.
         24    2    4    4    0    0 -0.20482038638E+02 -0.49539615258E+03 -0.64363402814E+03  0.81648849450E+03  0.80943421998E+02 0.  0.
         11    1    3    3    0    0 -0.33912809307E+02  0.13117211140E+03 -0.62096121293E+02  0.14903734338E+03  0.00000000000E+00 0. -1.
        -11    1    3    3    0    0  0.67097768044E+01 -0.13633378222E+02 -0.47087197971E+01  0.15907927226E+02  0.00000000000E+00 0.  1.
          2    1    6    6  502    0 -0.25501083717E+02 -0.28701416622E+03 -0.43333331890E+03  0.52038947160E+03  0.00000000000E+00 0. -1.
          3    1    5    5  503    0 -0.53075767894E+01  0.22577812065E+03 -0.45495496699E+03  0.50792514422E+03  0.00000000000E+00 0. -1.
         -4    1    5    5    0  503  0.52992647930E+02  0.15207929876E+03 -0.25879965948E+03  0.30481731839E+03  0.00000000000E+00 0.  1.
         -1    1    6    6    0  502  0.50190450797E+01 -0.20838198636E+03 -0.21030070924E+03  0.29609902290E+03  0.00000000000E+00 0.  1.
<mgrwt>
<rscale>  0 0.10912109E+04</rscale>
<asrwt>0</asrwt>
<pdfrwt beam="1">  1        2 0.24756691E+00 0.10912109E+04</pdfrwt>
<pdfrwt beam="2">  1       -2 0.28460209E-01 0.10912109E+04</pdfrwt>
<totfact> 0.12377149E+02</totfact>
</mgrwt>
</event>
<event>
12    1  0.1114484E-007  0.1886386E+04  0.7818608E-02  0.8661663E-01
          2   -1    0    0  501    0  0.00000000000E+00  0.00000000000E+00  0.26632004421E+04  0.26632004421E+04  0.00000000000E+00 0. -1.
         -2   -1    0    0    0  501 -0.00000000000E+00 -0.00000000000E+00 -0.33403915556E+03  0.33403915556E+03  0.00000000000E+00 0.  1.
         23    2    1    2    0    0 -0.60642293560E+03  0.12111755940E+03  0.29951249493E+03  0.69437420493E+03  0.10014770017E+03 0.  0.
        254    2    1    2    0    0  0.60642293560E+03 -0.12111755940E+03  0.20296487916E+04  0.23028653927E+04  0.89515169647E+03 0.  0.
        -24    2    4    4    0    0  0.47687108638E+03 -0.45298720602E+03  0.16411681430E+04  0.17698651220E+04  0.79913921558E+02 0.  0.
         24    2    4    4    0    0  0.12955184922E+03  0.33186964662E+03  0.38848064864E+03  0.53300027068E+03  0.79062824392E+02 0.  0.
         13    1    3    3    0    0 -0.58312772783E+03  0.94858925618E+02  0.27569277800E+03  0.65195296653E+03  0.00000000000E+00 0.  1.
        -13    1    3    3    0    0 -0.23295207769E+02  0.26258633782E+02  0.23819716925E+02  0.42421238401E+02  0.00000000000E+00 0. -1.
          4    1    6    6  502    0  0.11556546657E+03  0.31654204551E+03  0.33294892082E+03  0.47371851084E+03  0.00000000000E+00 0. -1.
          1    1    5    5  503    0  0.39316946774E+03 -0.39668573396E+03  0.14471863520E+04  0.15512221438E+04  0.00000000000E+00 0. -1.
         -2    1    5    5    0  503  0.83701618638E+02 -0.56301472060E+02  0.19398179093E+03  0.21864297824E+03  0.00000000000E+00 0.  1.
         -3    1    6    6    0  502  0.13986382648E+02  0.15327601102E+02  0.55531727816E+02  0.59281759837E+02  0.00000000000E+00 0.  1.
<mgrwt>
<rscale>  0 0.18863862E+04</rscale>
<asrwt>0</asrwt>
<pdfrwt beam="1">  1        2 0.40972313E+00 0.18863862E+04</pdfrwt>
<pdfrwt beam="2">  1       -2 0.51390641E-01 0.18863862E+04</pdfrwt>
<totfact> 0.93809255E+00</totfact>
</mgrwt>
</event>
<event>
12    1  0.1114484E-007  0.1369876E+04  0.7818608E-02  0.8975917E-01
         -1   -1    0    0    0  501 -0.00000000000E+00  0.00000000000E+00  0.16267346380E+04  0.16267346380E+04  0.00000000000E+00 0.  1.
          1   -1    0    0  501    0  0.00000000000E+00 -0.00000000000E+00 -0.28839360263E+03  0.28839360263E+03  0.00000000000E+00 0. -1.
         23    2    1    2    0    0 -0.15955321458E+03 -0.18739016554E+03 -0.28451937840E+02  0.26346862875E+03  0.89632043060E+02 0.  0.
        254    2    1    2    0    0  0.15955321458E+03  0.18739016554E+03  0.13667929732E+04  0.16516596119E+04  0.89402692322E+03 0.  0.
        -24    2    4    4    0    0 -0.13402610406E+03 -0.28807887224E+03  0.29837542722E+03  0.44324325978E+03  0.80524894098E+02 0.  0.
         24    2    4    4    0    0  0.29357931865E+03  0.47546903778E+03  0.10684175460E+04  0.12084163521E+04  0.80587872489E+02 0.  0.
         11    1    3    3    0    0 -0.14236449199E+03 -0.18041578406E+03 -0.37925980441E+00  0.22982090322E+03  0.00000000000E+00 0. -1.
        -11    1    3    3    0    0 -0.17188722598E+02 -0.69743814805E+01 -0.28072678036E+02  0.33647725535E+02  0.00000000000E+00 0.  1.
          4    1    6    6  502    0  0.61601025916E+02  0.12870291971E+03  0.34454136777E+03  0.37291806344E+03  0.00000000000E+00 0. -1.
          1    1    5    5  503    0 -0.14420179389E+02 -0.72171819936E+02  0.11174475574E+03  0.13380434821E+03  0.00000000000E+00 0. -1.
         -2    1    5    5    0  503 -0.11960592467E+03 -0.21590705231E+03  0.18663067148E+03  0.30943891156E+03  0.00000000000E+00 0.  1.
         -3    1    6    6    0  502  0.23197829273E+03  0.34676611807E+03  0.72387617821E+03  0.83549828864E+03  0.00000000000E+00 0.  1.
<mgrwt>
<rscale>  0 0.13698757E+04</rscale>
<asrwt>0</asrwt>
<pdfrwt beam="1">  1        1 0.44368248E-01 0.13698757E+04</pdfrwt>
<pdfrwt beam="2">  1       -1 0.25026686E+00 0.13698757E+04</pdfrwt>
<totfact> 0.62721820E+00</totfact>
</mgrwt>
</event>
<event>
12    1  0.1114484E-007  0.2193388E+04  0.7818608E-02  0.8521185E-01
          1   -1    0    0  501    0  0.00000000000E+00  0.00000000000E+00  0.29376411377E+04  0.29376411377E+04  0.00000000000E+00 0. -1.
         -1   -1    0    0    0  501 -0.00000000000E+00 -0.00000000000E+00 -0.40942292310E+03  0.40942292310E+03  0.00000000000E+00 0.  1.
         23    2    1    2    0    0 -0.31040123550E+03 -0.65853054362E+03  0.18805450381E+04  0.20185078926E+04  0.88955429060E+02 0.  0.
        254    2    1    2    0    0  0.31040123550E+03  0.65853054362E+03  0.64767317648E+03  0.13285561682E+04  0.90308889074E+03 0.  0.
        -24    2    4    4    0    0  0.22523240241E+03  0.65041040186E+03  0.84872371057E+03  0.10959155862E+04  0.83280906238E+02 0.  0.
         24    2    4    4    0    0  0.85168833087E+02  0.81201417604E+01 -0.20105053409E+03  0.23264058193E+03  0.79879010190E+02 0.  0.
         13    1    3    3    0    0 -0.16117082102E+03 -0.30168089077E+03  0.77056489865E+03  0.84306444383E+03  0.00000000000E+00 0. -1.
        -13    1    3    3    0    0 -0.14923041447E+03 -0.35684965285E+03  0.11099801395E+04  0.11754434488E+04  0.00000000000E+00 0.  1.
          4    1    6    6  502    0  0.56389292007E+02 -0.14262332443E+02 -0.18287580723E+03  0.19190291100E+03  0.00000000000E+00 0. -1.
          1    1    5    5  503    0  0.17719246172E+03  0.58652217471E+03  0.76573195624E+03  0.98068897145E+03  0.00000000000E+00 0. -1.
         -2    1    5    5    0  503  0.48039940690E+02  0.63888227154E+02  0.82991754327E+02  0.11522661479E+03  0.00000000000E+00 0.  1.
         -1    1    6    6    0  502  0.28779541080E+02  0.22382474203E+02 -0.18174726864E+02  0.40737670930E+02  0.00000000000E+00 0.  1.
<mgrwt>
<rscale>  0 0.21933879E+04</rscale>
<asrwt>0</asrwt>
<pdfrwt beam="1">  1        1 0.45194478E+00 0.21933879E+04</pdfrwt>
<pdfrwt beam="2">  1       -1 0.62988144E-01 0.21933879E+04</pdfrwt>
<totfact> 0.15487117E+00</totfact>
</mgrwt>
</event>
<event>
12    1  0.1114484E-007  0.1589060E+04  0.7818608E-02  0.8827297E-01
         -1   -1    0    0    0  501 -0.00000000000E+00  0.00000000000E+00  0.58791726709E+03  0.58791726709E+03  0.00000000000E+00 0.  1.
          1   -1    0    0  501    0  0.00000000000E+00 -0.00000000000E+00 -0.10737528174E+04  0.10737528174E+04  0.00000000000E+00 0. -1.
         23    2    1    2    0    0  0.41111157389E+03  0.29284493713E+03 -0.35567261366E+03  0.62412848603E+03  0.90898160482E+02 0.  0.
        254    2    1    2    0    0 -0.41111157389E+03 -0.29284493713E+03 -0.13016293662E+03  0.10375415984E+04  0.89709491973E+03 0.  0.
        -24    2    4    4    0    0 -0.54659773360E+03  0.99859467119E+02  0.76967185324E+02  0.56656897377E+03  0.79595595830E+02 0.  0.
         24    2    4    4    0    0  0.13548615970E+03 -0.39270440425E+03 -0.20713012194E+03  0.47097262466E+03  0.79618321848E+02 0.  0.
         11    1    3    3    0    0  0.16100912802E+02 -0.60922625277E+01 -0.15834938314E+02  0.23390175869E+02  0.00000000000E+00 0.  1.
        -11    1    3    3    0    0  0.39501066109E+03  0.29893719965E+03 -0.33983767535E+03  0.60073831016E+03  0.00000000000E+00 0. -1.
          4    1    6    6  502    0  0.83022055814E+02 -0.18389438607E+03 -0.61078612106E+02  0.21080892731E+03  0.00000000000E+00 0. -1.
          3    1    5    5  503    0 -0.40221320899E+03  0.10503282057E+03  0.41252310325E+02  0.41774287785E+03  0.00000000000E+00 0. -1.
         -4    1    5    5    0  503 -0.14438452460E+03 -0.51733534541E+01  0.35714874999E+02  0.14882609592E+03  0.00000000000E+00 0.  1.
         -3    1    6    6    0  502  0.52464103890E+02 -0.20881001818E+03 -0.14605150984E+03  0.26016369734E+03  0.00000000000E+00 0.  1.
<mgrwt>
<rscale>  0 0.15890599E+04</rscale>
<asrwt>0</asrwt>
<pdfrwt beam="1">  1        1 0.16519274E+00 0.15890599E+04</pdfrwt>
<pdfrwt beam="2">  1       -1 0.90448812E-01 0.15890599E+04</pdfrwt>
<totfact> 0.15231973E+01</totfact>
</mgrwt>
</event>
<event>
12    1  0.1114484E-007  0.1169565E+04  0.7818608E-02  0.9139921E-01
         -2   -1    0    0    0  501 -0.00000000000E+00  0.00000000000E+00  0.35500592297E+03  0.35500592297E+03  0.00000000000E+00 0. -1.
          2   -1    0    0  501    0  0.00000000000E+00 -0.00000000000E+00 -0.96328184348E+03  0.96328184348E+03  0.00000000000E+00 0.  1.
         23    2    1    2    0    0 -0.98520746813E+02 -0.21651407807E+03 -0.15653907370E+03  0.29935546622E+03  0.92328381378E+02 0.  0.
        254    2    1    2    0    0  0.98520746813E+02  0.21651407807E+03 -0.45173684682E+03  0.10189323002E+04  0.88180052740E+03 0.  0.
        -24    2    4    4    0    0  0.17616393822E+03 -0.49354618266E+01  0.22599711146E+03  0.29738283542E+03  0.79396249939E+02 0.  0.
         24    2    4    4    0    0 -0.77643191407E+02  0.22144953989E+03 -0.67773395828E+03  0.72154946481E+03  0.79006000241E+02 0.  0.
         11    1    3    3    0    0  0.13595105081E+02 -0.53765985422E+02 -0.50848283989E+02  0.75240654271E+02  0.00000000000E+00 0.  1.
        -11    1    3    3    0    0 -0.11211585189E+03 -0.16274809264E+03 -0.10569078971E+03  0.22411481195E+03  0.00000000000E+00 0. -1.
          4    1    6    6  502    0 -0.27001741774E+02  0.36195646619E+02 -0.22956973226E+03  0.23396897414E+03  0.00000000000E+00 0. -1.
          1    1    5    5  503    0  0.10954392620E+03  0.29295608090E+02  0.10199633246E+03  0.15251674090E+03  0.00000000000E+00 0. -1.
         -2    1    5    5    0  503  0.66620012020E+02 -0.34231069916E+02  0.12400077900E+03  0.14486609452E+03  0.00000000000E+00 0.  1.
         -3    1    6    6    0  502 -0.50641449633E+02  0.18525389327E+03 -0.44816422602E+03  0.48758049066E+03  0.00000000000E+00 0.  1.
<mgrwt>
<rscale>  0 0.11695653E+04</rscale>
<asrwt>0</asrwt>
<pdfrwt beam="1">  1        2 0.14819721E+00 0.11695653E+04</pdfrwt>
<pdfrwt beam="2">  1       -2 0.54616296E-01 0.11695653E+04</pdfrwt>
<totfact> 0.82991717E+01</totfact>
</mgrwt>
</event>
<event>
12    1  0.1114484E-007  0.2444055E+04  0.7818608E-02  0.8423192E-01
          1   -1    0    0  501    0  0.00000000000E+00  0.00000000000E+00  0.12375377494E+04  0.12375377494E+04  0.00000000000E+00 0. -1.
         -1   -1    0    0    0  501 -0.00000000000E+00 -0.00000000000E+00 -0.12067112311E+04  0.12067112311E+04  0.00000000000E+00 0.  1.
         23    2    1    2    0    0 -0.63378664328E+03 -0.56666550376E+03 -0.60693905740E+03  0.10485617904E+04  0.91167464166E+02 0.  0.
        254    2    1    2    0    0  0.63378664328E+03  0.56666550376E+03  0.63776557564E+03  0.13956871901E+04  0.90465601243E+03 0.  0.
        -24    2    4    4    0    0 -0.95932817796E+02  0.48184373032E+03  0.31035218711E+03  0.58744544233E+03  0.86006870003E+02 0.  0.
         24    2    4    4    0    0  0.72971946108E+03  0.84821773435E+02  0.32741338853E+03  0.80824174779E+03  0.79812096522E+02 0.  0.
         11    1    3    3    0    0 -0.23713442146E+03 -0.27234292367E+03 -0.25360154830E+03  0.44126765939E+03  0.00000000000E+00 0. -1.
        -11    1    3    3    0    0 -0.39665222182E+03 -0.29432258008E+03 -0.35333750909E+03  0.60729413101E+03  0.00000000000E+00 0.  1.
          4    1    6    6  502    0  0.36662099295E+03  0.22736829246E+02  0.12554677889E+03  0.38818798225E+03  0.00000000000E+00 0. -1.
          1    1    5    5  503    0 -0.88195713077E+02  0.22863077034E+03  0.16419837206E+03  0.29497731835E+03  0.00000000000E+00 0. -1.
         -2    1    5    5    0  503 -0.77371047182E+01  0.25321295998E+03  0.14615381505E+03  0.29246812398E+03  0.00000000000E+00 0.  1.
         -3    1    6    6    0  502  0.36309846813E+03  0.62084944189E+02  0.20186660964E+03  0.42005376553E+03  0.00000000000E+00 0.  1.
<mgrwt>
<rscale>  0 0.24440546E+04</rscale>
<asrwt>0</asrwt>
<pdfrwt beam="1">  1        1 0.19039042E+00 0.24440546E+04</pdfrwt>
<pdfrwt beam="2">  1       -1 0.18564788E+00 0.24440546E+04</pdfrwt>
<totfact> 0.16987673E+00</totfact>
</mgrwt>
</event>
<event>
12    1  0.1114484E-007  0.1854097E+04  0.7818608E-02  0.8678049E-01
          1   -1    0    0  501    0  0.00000000000E+00  0.00000000000E+00  0.68980510740E+03  0.68980510740E+03  0.00000000000E+00 0. -1.
         -1   -1    0    0    0  501 -0.00000000000E+00 -0.00000000000E+00 -0.12458860402E+04  0.12458860402E+04  0.00000000000E+00 0.  1.
         23    2    1    2    0    0  0.91494065006E+02 -0.23522313570E+03  0.47367525881E+03  0.54476067196E+03  0.93246187103E+02 0.  0.
        254    2    1    2    0    0 -0.91494065006E+02  0.23522313570E+03 -0.10297561916E+04  0.13909304756E+04  0.90032698861E+03 0.  0.
        -24    2    4    4    0    0  0.91519767055E+02  0.12232096613E+03 -0.11282571653E+04  0.11412070688E+04  0.77788536354E+02 0.  0.
         24    2    4    4    0    0 -0.18301383206E+03  0.11290216958E+03  0.98500973714E+02  0.24972340680E+03  0.80114764296E+02 0.  0.
         11    1    3    3    0    0  0.51127732110E+02 -0.29291213012E+02  0.11460112779E+03  0.12886209156E+03  0.00000000000E+00 0.  1.
        -11    1    3    3    0    0  0.40366332895E+02 -0.20593192269E+03  0.35907413101E+03  0.41589858040E+03  0.00000000000E+00 0. -1.
          2    1    6    6  502    0 -0.13779200478E+03  0.91849913612E+02  0.35492268019E+02  0.16935980722E+03  0.00000000000E+00 0. -1.
          3    1    5    5  503    0  0.42572122650E+02  0.26937203605E+02 -0.18027758120E+03  0.18718441401E+03  0.00000000000E+00 0. -1.
         -4    1    5    5    0  503  0.48947644405E+02  0.95383762523E+02 -0.94797958409E+03  0.95402265482E+03  0.00000000000E+00 0.  1.
         -3    1    6    6    0  502 -0.45221827284E+02  0.21052255964E+02  0.63008705695E+02  0.80363599579E+02  0.00000000000E+00 0.  1.
<mgrwt>
<rscale>  0 0.18540966E+04</rscale>
<asrwt>0</asrwt>
<pdfrwt beam="1">  1        1 0.10612386E+00 0.18540966E+04</pdfrwt>
<pdfrwt beam="2">  1       -1 0.19167477E+00 0.18540966E+04</pdfrwt>
<totfact> 0.44995689E+00</totfact>
</mgrwt>
</event>
<event>
12    1  0.1114484E-007  0.2140573E+04  0.7818608E-02  0.8543578E-01
          1   -1    0    0  501    0  0.00000000000E+00  0.00000000000E+00  0.74983273394E+03  0.74983273394E+03  0.00000000000E+00 0. -1.
         -1   -1    0    0    0  501 -0.00000000000E+00 -0.00000000000E+00 -0.15276922580E+04  0.15276922580E+04  0.00000000000E+00 0.  1.
         23    2    1    2    0    0  0.26934577200E+03 -0.27412033389E+03 -0.11578475913E+04  0.12232468313E+04  0.89625126710E+02 0.  0.
        254    2    1    2    0    0 -0.26934577200E+03  0.27412033389E+03  0.37998806726E+03  0.10542781606E+04  0.90521953487E+03 0.  0.
        -24    2    4    4    0    0 -0.51601787046E+03  0.28547575987E+03  0.49171595547E+03  0.77180157810E+03  0.78244763389E+02 0.  0.
         24    2    4    4    0    0  0.24667209846E+03 -0.11355425979E+02 -0.11172788821E+03  0.28247658249E+03  0.79585355387E+02 0.  0.
         13    1    3    3    0    0  0.10774560929E+03 -0.57679899778E+02 -0.30221073427E+03  0.32598683266E+03  0.00000000000E+00 0. -1.
        -13    1    3    3    0    0  0.16160016270E+03 -0.21644043411E+03 -0.85563685705E+03  0.89725999869E+03  0.00000000000E+00 0.  1.
          4    1    6    6  502    0  0.24716867015E+03 -0.70285519512E+01 -0.94507285845E+02  0.26471376829E+03  0.00000000000E+00 0. -1.
          1    1    5    5  503    0 -0.51366168695E+03  0.28920080666E+03  0.48319915600E+03  0.76221182067E+03  0.00000000000E+00 0. -1.
         -2    1    5    5    0  503 -0.23561835070E+01 -0.37250467974E+01  0.85167994705E+01  0.95897574308E+01  0.00000000000E+00 0.  1.
         -3    1    6    6    0  502 -0.49657168808E+00 -0.43268740279E+01 -0.17220602367E+02  0.17762814197E+02  0.00000000000E+00 0.  1.
<mgrwt>
<rscale>  0 0.21405734E+04</rscale>
<asrwt>0</asrwt>
<pdfrwt beam="1">  1        1 0.11535888E+00 0.21405734E+04</pdfrwt>
<pdfrwt beam="2">  1       -1 0.23502957E+00 0.21405734E+04</pdfrwt>
<totfact> 0.19628593E+00</totfact>
</mgrwt>
</event>
<event>
12    1  0.1114484E-007  0.1657740E+04  0.7818608E-02  0.8785841E-01
          2   -1    0    0  501    0  0.00000000000E+00  0.00000000000E+00  0.36941082786E+04  0.36941082786E+04  0.00000000000E+00 0. -1.
         -2   -1    0    0    0  501 -0.00000000000E+00 -0.00000000000E+00 -0.18597874547E+03  0.18597874547E+03  0.00000000000E+00 0.  1.
         23    2    1    2    0    0  0.33181995481E+03 -0.47325142571E+03  0.12223551243E+04  0.13559310250E+04  0.10161446877E+03 0.  0.
        254    2    1    2    0    0 -0.33181995481E+03  0.47325142571E+03  0.22857744088E+04  0.25241559991E+04  0.90140305373E+03 0.  0.
        -24    2    4    4    0    0 -0.35706063951E+03  0.52696863421E+03  0.23292596726E+04  0.24159949773E+04  0.79955401486E+02 0.  0.
         24    2    4    4    0    0  0.25240684701E+02 -0.53717208498E+02 -0.43485263751E+02  0.10816102179E+03  0.79279302589E+02 0.  0.
         13    1    3    3    0    0  0.39901285018E+02 -0.28642916038E+02  0.59093717119E+02  0.76841372894E+02  0.00000000000E+00 0.  1.
        -13    1    3    3    0    0  0.29191866979E+03 -0.44460850967E+03  0.11632614072E+04  0.12790896521E+04  0.00000000000E+00 0. -1.
          4    1    6    6  502    0 -0.27514413170E+02 -0.28404531444E+02 -0.25050424365E+02  0.46812221689E+02  0.00000000000E+00 0. -1.
          3    1    5    5  503    0 -0.23756871710E+03  0.41202598923E+03  0.17486192898E+04  0.18121461673E+04  0.00000000000E+00 0. -1.
         -2    1    5    5    0  503 -0.11949192241E+03  0.11494264498E+03  0.58064038278E+03  0.60384880995E+03  0.00000000000E+00 0.  1.
         -3    1    6    6    0  502  0.52755097871E+02 -0.25312677054E+02 -0.18434839386E+02  0.61348800104E+02  0.00000000000E+00 0.  1.
<mgrwt>
<rscale>  0 0.16577402E+04</rscale>
<asrwt>0</asrwt>
<pdfrwt beam="1">  1        2 0.56832430E+00 0.16577402E+04</pdfrwt>
<pdfrwt beam="2">  1       -2 0.28612117E-01 0.16577402E+04</pdfrwt>
<totfact> 0.63891685E+00</totfact>
</mgrwt>
</event>
<event>
12    1  0.1114484E-007  0.1331203E+04  0.7818608E-02  0.9005181E-01
         -2   -1    0    0    0  501 -0.00000000000E+00  0.00000000000E+00  0.21192226525E+03  0.21192226525E+03  0.00000000000E+00 0.  1.
          2   -1    0    0  501    0  0.00000000000E+00 -0.00000000000E+00 -0.20905073240E+04  0.20905073240E+04  0.00000000000E+00 0. -1.
         23    2    1    2    0    0 -0.11939194120E+03 -0.14090633880E+03 -0.10517169697E+04  0.10717695764E+04  0.92045687141E+02 0.  0.
        254    2    1    2    0    0  0.11939194120E+03  0.14090633880E+03 -0.82686808897E+03  0.12306600128E+04  0.89258288055E+03 0.  0.
        -24    2    4    4    0    0 -0.21239832451E+03  0.35065980688E+03 -0.14927869972E+03  0.44349386058E+03  0.79544489224E+02 0.  0.
         24    2    4    4    0    0  0.33179026571E+03 -0.20975346808E+03 -0.67758938925E+03  0.78716615224E+03  0.80136589708E+02 0.  0.
         11    1    3    3    0    0 -0.45031539344E+02 -0.11981365278E+03 -0.60176870766E+03  0.61523063029E+03  0.00000000000E+00 0. -1.
        -11    1    3    3    0    0 -0.74360401851E+02 -0.21092686025E+02 -0.44994826209E+03  0.45653894612E+03  0.00000000000E+00 0.  1.
          4    1    6    6  502    0  0.28662254666E+03 -0.20715055130E+03 -0.62186539751E+03  0.71538829162E+03  0.00000000000E+00 0. -1.
          1    1    5    5  503    0 -0.72596418383E+02  0.17776534386E+03 -0.41709123627E+02  0.19649531402E+03  0.00000000000E+00 0. -1.
         -2    1    5    5    0  503 -0.13980190613E+03  0.17289446302E+03 -0.10756957609E+03  0.24699854656E+03  0.00000000000E+00 0.  1.
         -3    1    6    6    0  502  0.45167719045E+02 -0.26029167725E+01 -0.55723991741E+02  0.71777860619E+02  0.00000000000E+00 0.  1.
<mgrwt>
<rscale>  0 0.13312025E+04</rscale>
<asrwt>0</asrwt>
<pdfrwt beam="1">  1        2 0.32161651E+00 0.13312025E+04</pdfrwt>
<pdfrwt beam="2">  1       -2 0.32603426E-01 0.13312025E+04</pdfrwt>
<totfact> 0.51077636E+01</totfact>
</mgrwt>
</event>
<event>
12    1  0.1114484E-007  0.2167292E+04  0.7818608E-02  0.8532166E-01
         -1   -1    0    0    0  501 -0.00000000000E+00  0.00000000000E+00  0.33969356924E+03  0.33969356924E+03  0.00000000000E+00 0.  1.
          1   -1    0    0  501    0  0.00000000000E+00 -0.00000000000E+00 -0.34569072283E+04  0.34569072283E+04  0.00000000000E+00 0. -1.
         23    2    1    2    0    0  0.70060946883E+02 -0.54355944651E+03 -0.25240776574E+04  0.25848094720E+04  0.99531794031E+02 0.  0.
        254    2    1    2    0    0 -0.70060946883E+02  0.54355944651E+03 -0.59313600163E+03  0.12117913255E+04  0.90347246326E+03 0.  0.
        -24    2    4    4    0    0 -0.41617755499E+03  0.55661900311E+03 -0.41370791593E+03  0.81279177691E+03  0.80297951509E+02 0.  0.
         24    2    4    4    0    0  0.34611660811E+03 -0.13059556592E+02 -0.17942808569E+03  0.39899954855E+03  0.83898411081E+02 0.  0.
         11    1    3    3    0    0  0.29469767450E+02 -0.59390209469E+02 -0.20773884262E+03  0.21806212625E+03  0.00000000000E+00 0.  1.
        -11    1    3    3    0    0  0.40591179433E+02 -0.48416923705E+03 -0.23163388148E+04  0.23667473458E+04  0.00000000000E+00 0. -1.
          4    1    6    6  502    0  0.59957902394E+02 -0.14739788779E+02 -0.68153739577E+02  0.91962729685E+02  0.00000000000E+00 0. -1.
          1    1    5    5  503    0 -0.17007040089E+02  0.42522008539E+02 -0.47453118357E+02  0.65948154368E+02  0.00000000000E+00 0. -1.
         -2    1    5    5    0  503 -0.39917051490E+03  0.51409699457E+03 -0.36625479758E+03  0.74684362254E+03  0.00000000000E+00 0.  1.
         -3    1    6    6    0  502  0.28615870571E+03  0.16802321868E+01 -0.11127434612E+03  0.30703681886E+03  0.00000000000E+00 0.  1.
<mgrwt>
<rscale>  0 0.21672925E+04</rscale>
<asrwt>0</asrwt>
<pdfrwt beam="1">  1        1 0.53183192E+00 0.21672925E+04</pdfrwt>
<pdfrwt beam="2">  1       -1 0.52260546E-01 0.21672925E+04</pdfrwt>
<totfact> 0.91351119E-01</totfact>
</mgrwt>
</event>
<event>
12    1  0.1114484E-007  0.1376240E+04  0.7818608E-02  0.8971199E-01
          2   -1    0    0  501    0  0.00000000000E+00  0.00000000000E+00  0.38168503982E+04  0.38168503982E+04  0.00000000000E+00 0. -1.
         -2   -1    0    0    0  501 -0.00000000000E+00 -0.00000000000E+00 -0.12405762121E+03  0.12405762121E+03  0.00000000000E+00 0.  1.
         23    2    1    2    0    0 -0.18867788231E+03 -0.33575284591E+03  0.11683090879E+04  0.12337362176E+04  0.93966020491E+02 0.  0.
        254    2    1    2    0    0  0.18867788231E+03  0.33575284591E+03  0.25244836891E+04  0.27071718018E+04  0.89857217354E+03 0.  0.
        -24    2    4    4    0    0 -0.82197431672E+02  0.37689642492E+03  0.39245685669E+03  0.55575024985E+03  0.77644207449E+02 0.  0.
         24    2    4    4    0    0  0.27087531398E+03 -0.41143579010E+02  0.21320268324E+04  0.21514215519E+04  0.89498883954E+02 0.  0.
         11    1    3    3    0    0 -0.87414981380E+00 -0.73708203793E+02  0.23749008626E+03  0.24866685448E+03  0.00000000000E+00 0.  1.
        -11    1    3    3    0    0 -0.18780373250E+03 -0.26204464212E+03  0.93081900166E+03  0.98506936317E+03  0.00000000000E+00 0. -1.
          2    1    6    6  502    0  0.67742154745E+02  0.23402544349E+02  0.69288521770E+03  0.69658208670E+03  0.00000000000E+00 0. -1.
          3    1    5    5  503    0  0.12170357582E+01  0.88455816705E+02  0.12823554774E+03  0.15578917930E+03  0.00000000000E+00 0. -1.
         -4    1    5    5    0  503 -0.83414467430E+02  0.28844060822E+03  0.26422130896E+03  0.39996107055E+03  0.00000000000E+00 0.  1.
         -1    1    6    6    0  502  0.20313315924E+03 -0.64546123359E+02  0.14391416147E+04  0.14548394652E+04  0.00000000000E+00 0.  1.
<mgrwt>
<rscale>  0 0.13762404E+04</rscale>
<asrwt>0</asrwt>
<pdfrwt beam="1">  1        2 0.58720766E+00 0.13762404E+04</pdfrwt>
<pdfrwt beam="2">  1       -2 0.19085791E-01 0.13762404E+04</pdfrwt>
<totfact> 0.11057632E+01</totfact>
</mgrwt>
</event>
<event>
12    1  0.1114484E-007  0.1829605E+04  0.7818608E-02  0.8690712E-01
         -1   -1    0    0    0  501 -0.00000000000E+00  0.00000000000E+00  0.16956824587E+04  0.16956824587E+04  0.00000000000E+00 0.  1.
          1   -1    0    0  501    0  0.00000000000E+00 -0.00000000000E+00 -0.49352618836E+03  0.49352618836E+03  0.00000000000E+00 0. -1.
         23    2    1    2    0    0 -0.66239441194E+03 -0.19494282461E+03  0.66403727851E+03  0.96211942695E+03  0.89214475440E+02 0.  0.
        254    2    1    2    0    0  0.66239441194E+03  0.19494282461E+03  0.53811899182E+03  0.12270892201E+04  0.85988769203E+03 0.  0.
        -24    2    4    4    0    0  0.63818804519E+03  0.45870151720E+03  0.52878465814E+03  0.95034422273E+03  0.76484404178E+02 0.  0.
         24    2    4    4    0    0  0.24206366747E+02 -0.26375869259E+03  0.93343336841E+01  0.27674499738E+03  0.79662209853E+02 0.  0.
         11    1    3    3    0    0 -0.23594508362E+03 -0.39331164010E+02  0.27298188996E+03  0.36295472885E+03  0.00000000000E+00 0. -1.
        -11    1    3    3    0    0 -0.42644932831E+03 -0.15561166060E+03  0.39105538856E+03  0.59916469810E+03  0.00000000000E+00 0.  1.
          4    1    6    6  502    0 -0.28242521709E+02 -0.10246671536E+03 -0.59378813757E+01  0.10645339931E+03  0.00000000000E+00 0. -1.
          3    1    5    5  503    0  0.12991301180E+03  0.64294752707E+02  0.11928614823E+03  0.18772424196E+03  0.00000000000E+00 0. -1.
         -4    1    5    5    0  503  0.50827503339E+03  0.39440676449E+03  0.40949850991E+03  0.76261998077E+03  0.00000000000E+00 0.  1.
         -3    1    6    6    0  502  0.52448888456E+02 -0.16129197723E+03  0.15272215060E+02  0.17029159807E+03  0.00000000000E+00 0.  1.
<mgrwt>
<rscale>  0 0.18296051E+04</rscale>
<asrwt>0</asrwt>
<pdfrwt beam="1">  1        1 0.75927107E-01 0.18296051E+04</pdfrwt>
<pdfrwt beam="2">  1       -1 0.26087422E+00 0.18296051E+04</pdfrwt>
<totfact> 0.25160695E+00</totfact>
</mgrwt>
</event>
<event>
12    1  0.1114484E-007  0.1459244E+04  0.7818608E-02  0.8912017E-01
          1   -1    0    0  501    0  0.00000000000E+00  0.00000000000E+00  0.27939244524E+04  0.27939244524E+04  0.00000000000E+00 0. -1.
         -1   -1    0    0    0  501 -0.00000000000E+00 -0.00000000000E+00 -0.19053785301E+03  0.19053785301E+03  0.00000000000E+00 0.  1.
         23    2    1    2    0    0 -0.17245661549E+02  0.21580877852E+03  0.16082844154E+04  0.16256659589E+04  0.96644749150E+02 0.  0.
        254    2    1    2    0    0  0.17245661549E+02 -0.21580877852E+03  0.99510218405E+03  0.13587963465E+04  0.89957118279E+03 0.  0.
        -24    2    4    4    0    0 -0.40635979859E+03 -0.21458566492E+03  0.68144606857E+03  0.82624247843E+03  0.84454693726E+02 0.  0.
         24    2    4    4    0    0  0.42360546014E+03 -0.12231135921E+01  0.31365611548E+03  0.53255386809E+03  0.76094558130E+02 0.  0.
         13    1    3    3    0    0  0.13011960627E+02  0.69757811097E+02  0.27279161889E+03  0.28187005990E+03  0.00000000000E+00 0. -1.
        -13    1    3    3    0    0 -0.30257622176E+02  0.14605096742E+03  0.13354927965E+04  0.13437958990E+04  0.00000000000E+00 0.  1.
          4    1    6    6  502    0  0.14479846689E+03 -0.94508444076E+01  0.65462776501E+02  0.15918947698E+03  0.00000000000E+00 0. -1.
          1    1    5    5  503    0 -0.73605189871E+02 -0.81048232134E+01  0.85086567516E+02  0.11279687986E+03  0.00000000000E+00 0. -1.
         -2    1    5    5    0  503 -0.33275460872E+03 -0.20648084171E+03  0.59635950105E+03  0.71344559857E+03  0.00000000000E+00 0.  1.
         -3    1    6    6    0  502  0.27880699325E+03  0.82277308155E+01  0.24819333898E+03  0.37336439112E+03  0.00000000000E+00 0.  1.
<mgrwt>
<rscale>  0 0.14592441E+04</rscale>
<asrwt>0</asrwt>
<pdfrwt beam="1">  1        1 0.42983450E+00 0.14592441E+04</pdfrwt>
<pdfrwt beam="2">  1       -1 0.29313518E-01 0.14592441E+04</pdfrwt>
<totfact> 0.87255639E+00</totfact>
</mgrwt>
</event>
<event>
12    1  0.1114484E-007  0.2426784E+04  0.7818608E-02  0.8429544E-01
          1   -1    0    0  501    0  0.00000000000E+00  0.00000000000E+00  0.13343526347E+04  0.13343526347E+04  0.00000000000E+00 0. -1.
         -1   -1    0    0    0  501 -0.00000000000E+00 -0.00000000000E+00 -0.11033962236E+04  0.11033962236E+04  0.00000000000E+00 0.  1.
         23    2    1    2    0    0 -0.33551988356E+03 -0.85517707479E+03  0.59970999533E+03  0.11010167469E+04  0.93190004870E+02 0.  0.
        254    2    1    2    0    0  0.33551988356E+03  0.85517707479E+03 -0.36875358425E+03  0.13367321114E+04  0.89831626409E+03 0.  0.
        -24    2    4    4    0    0  0.25191953255E+03  0.10249316834E+04 -0.21454528264E+03  0.10798670477E+04  0.78324681748E+02 0.  0.
         24    2    4    4    0    0  0.83600351008E+02 -0.16975460862E+03 -0.15420830161E+03  0.25686506378E+03  0.79961333578E+02 0.  0.
         11    1    3    3    0    0 -0.20535520544E+03 -0.51938965012E+03  0.30971453239E+03  0.63863875597E+03  0.00000000000E+00 0. -1.
        -11    1    3    3    0    0 -0.13016467812E+03 -0.33578742466E+03  0.28999546294E+03  0.46237799095E+03  0.00000000000E+00 0.  1.
          2    1    6    6  502    0  0.63437927371E+02 -0.70722825849E+02 -0.36632544319E+02  0.10182353377E+03  0.00000000000E+00 0. -1.
          3    1    5    5  503    0  0.65179899918E+02  0.22033774960E+03 -0.78140624625E+02  0.24269960954E+03  0.00000000000E+00 0. -1.
         -4    1    5    5    0  503  0.18673963263E+03  0.80459393380E+03 -0.13640465802E+03  0.83716743811E+03  0.00000000000E+00 0.  1.
         -1    1    6    6    0  502  0.20162423636E+02 -0.99031782771E+02 -0.11757575729E+03  0.15504153001E+03  0.00000000000E+00 0.  1.
<mgrwt>
<rscale>  0 0.24267836E+04</rscale>
<asrwt>0</asrwt>
<pdfrwt beam="1">  1        1 0.20528502E+00 0.24267836E+04</pdfrwt>
<pdfrwt beam="2">  1       -1 0.16975327E+00 0.24267836E+04</pdfrwt>
<totfact> 0.18888058E+00</totfact>
</mgrwt>
</event>
<event>
12    1  0.1114484E-007  0.2254007E+04  0.7818608E-02  0.8496280E-01
          2   -1    0    0  501    0  0.00000000000E+00  0.00000000000E+00  0.15646838963E+04  0.15646838963E+04  0.00000000000E+00 0. -1.
         -2   -1    0    0    0  501 -0.00000000000E+00 -0.00000000000E+00 -0.81175297797E+03  0.81175297797E+03  0.00000000000E+00 0.  1.
         23    2    1    2    0    0  0.57054928526E+03  0.37744882408E+03  0.94851707640E+03  0.11730213346E+04  0.91106012788E+02 0.  0.
        254    2    1    2    0    0 -0.57054928526E+03 -0.37744882408E+03 -0.19558615808E+03  0.12034155396E+04  0.97054670887E+03 0.  0.
        -24    2    4    4    0    0 -0.18656382094E+03 -0.38940792276E+03 -0.52981364082E+03  0.68792534678E+03  0.78065351793E+02 0.  0.
         24    2    4    4    0    0 -0.38398546433E+03  0.11959098680E+02  0.33422748275E+03  0.51549019285E+03  0.80213913062E+02 0.  0.
         11    1    3    3    0    0  0.11279906569E+03  0.61601548052E+02  0.12486526802E+03  0.17919183883E+03  0.00000000000E+00 0.  1.
        -11    1    3    3    0    0  0.45775021957E+03  0.31584727603E+03  0.82365180838E+03  0.99382949581E+03  0.00000000000E+00 0. -1.
          2    1    6    6  502    0 -0.33116023141E+03 -0.12271884720E+02  0.30524648450E+03  0.45054757165E+03  0.00000000000E+00 0. -1.
          3    1    5    5  503    0 -0.16231798721E+03 -0.34912051910E+03 -0.50417354096E+03  0.63436836715E+03  0.00000000000E+00 0. -1.
         -4    1    5    5    0  503 -0.24245833726E+02 -0.40287403660E+02 -0.25640099860E+02  0.53556979635E+02  0.00000000000E+00 0.  1.
         -1    1    6    6    0  502 -0.52825232912E+02  0.24230983400E+02  0.28980998252E+02  0.64942621201E+02  0.00000000000E+00 0.  1.
<mgrwt>
<rscale>  0 0.22540069E+04</rscale>
<asrwt>0</asrwt>
<pdfrwt beam="1">  1        2 0.24072060E+00 0.22540069E+04</pdfrwt>
<pdfrwt beam="2">  1       -2 0.12488507E+00 0.22540069E+04</pdfrwt>
<totfact> 0.51056118E+00</totfact>
</mgrwt>
</event>
<event>
12    1  0.1356032E-007  0.1352226E+04  0.7818608E-02  0.8989145E-01
         -2   -1    0    0    0  501 -0.00000000000E+00  0.00000000000E+00  0.19801786831E+03  0.19801786831E+03  0.00000000000E+00 0.  1.
          2   -1    0    0  501    0  0.00000000000E+00 -0.00000000000E+00 -0.23085238145E+04  0.23085238145E+04  0.00000000000E+00 0. -1.
         23    2    1    2    0    0 -0.16285158662E+03  0.21004678517E+03 -0.10648124035E+04  0.11012634548E+04  0.91189094229E+02 0.  0.
        254    2    1    2    0    0  0.16285158662E+03 -0.21004678517E+03 -0.10456935427E+04  0.14052782281E+04  0.90038415234E+03 0.  0.
        -24    2    4    4    0    0  0.40184557601E+03 -0.40323475843E+03 -0.86748903992E+03  0.10411436365E+04  0.85817831093E+02 0.  0.
         24    2    4    4    0    0 -0.23899398939E+03  0.19318797326E+03 -0.17820450279E+03  0.36413459154E+03  0.79983973191E+02 0.  0.
         11    1    3    3    0    0 -0.18087857012E+00 -0.57464805529E+01 -0.75120317770E+02  0.75340008612E+02  0.00000000000E+00 0.  1.
        -11    1    3    3    0    0 -0.16267070805E+03  0.21579326572E+03 -0.98969208573E+03  0.10259234461E+04  0.00000000000E+00 0. -1.
          2    1    6    6  502    0 -0.43430257408E+02  0.18821286935E+02 -0.11987163217E+00  0.47333312473E+02  0.00000000000E+00 0. -1.
          1    1    5    5  503    0  0.71411549623E+00  0.35150835386E+01 -0.11388895572E+02  0.11940381718E+02  0.00000000000E+00 0. -1.
         -2    1    5    5    0  503  0.40113146051E+03 -0.40674984197E+03 -0.85610014435E+03  0.10292032548E+04  0.00000000000E+00 0.  1.
         -1    1    6    6    0  502 -0.19556373198E+03  0.17436668632E+03 -0.17808463116E+03  0.31680127907E+03  0.00000000000E+00 0.  1.
<mgrwt>
<rscale>  0 0.13522263E+04</rscale>
<asrwt>0</asrwt>
<pdfrwt beam="1">  1        2 0.35515752E+00 0.13522263E+04</pdfrwt>
<pdfrwt beam="2">  1       -2 0.30464286E-01 0.13522263E+04</pdfrwt>
<totfact> 0.43739416E+01</totfact>
</mgrwt>
</event>
<event>
12    1  0.1114484E-007  0.1261185E+04  0.7818608E-02  0.9060925E-01
         -2   -1    0    0    0  501 -0.00000000000E+00  0.00000000000E+00  0.53576626870E+03  0.53576626870E+03  0.00000000000E+00 0.  1.
          2   -1    0    0  501    0  0.00000000000E+00 -0.00000000000E+00 -0.74220210370E+03  0.74220210370E+03  0.00000000000E+00 0. -1.
         23    2    1    2    0    0 -0.17488845556E+03 -0.16328175109E+03 -0.23238758267E+03  0.34678371555E+03  0.94910772130E+02 0.  0.
        254    2    1    2    0    0  0.17488845556E+03  0.16328175109E+03  0.25951747668E+02  0.93118465685E+03  0.89954681357E+03 0.  0.
        -24    2    4    4    0    0 -0.16377167653E+03  0.20692624143E+03  0.35572195741E+03  0.45007973545E+03  0.79962652846E+02 0.  0.
         24    2    4    4    0    0  0.33866013208E+03 -0.43644490342E+02 -0.32977020974E+03  0.48110492140E+03  0.78217821251E+02 0.  0.
         11    1    3    3    0    0 -0.11430110129E+03 -0.12592601047E+03 -0.21385536698E+03  0.27323290405E+03  0.00000000000E+00 0. -1.
        -11    1    3    3    0    0 -0.60587354265E+02 -0.37355740621E+02 -0.18532215689E+02  0.73550811501E+02  0.00000000000E+00 0.  1.
          4    1    6    6  502    0  0.31510797312E+03 -0.60125943454E+02 -0.29326960433E+03  0.43464379051E+03  0.00000000000E+00 0. -1.
          3    1    5    5  503    0 -0.13165830862E+03  0.19738813158E+03  0.33559430102E+03  0.41099819902E+03  0.00000000000E+00 0. -1.
         -4    1    5    5    0  503 -0.32113367907E+02  0.95381098518E+01  0.20127656386E+02  0.39081536427E+02  0.00000000000E+00 0.  1.
         -3    1    6    6    0  502  0.23552158959E+02  0.16481453112E+02 -0.36500605410E+02  0.46461130890E+02  0.00000000000E+00 0.  1.
<mgrwt>
<rscale>  0 0.12611849E+04</rscale>
<asrwt>0</asrwt>
<pdfrwt beam="1">  1        2 0.11418494E+00 0.12611849E+04</pdfrwt>
<pdfrwt beam="2">  1       -2 0.82425581E-01 0.12611849E+04</pdfrwt>
<totfact> 0.48291103E+01</totfact>
</mgrwt>
</event>
<event>
12    1  0.1114484E-007  0.1568615E+04  0.7818608E-02  0.8840065E-01
         -2   -1    0    0    0  501 -0.00000000000E+00  0.00000000000E+00  0.36205194035E+03  0.36205194035E+03  0.00000000000E+00 0.  1.
          2   -1    0    0  501    0  0.00000000000E+00 -0.00000000000E+00 -0.16990324088E+04  0.16990324088E+04  0.00000000000E+00 0. -1.
         23    2    1    2    0    0 -0.30732582553E+03 -0.26769195797E+03 -0.87827841444E+03  0.97241743601E+03  0.90080792539E+02 0.  0.
        254    2    1    2    0    0  0.30732582553E+03  0.26769195797E+03 -0.45870205402E+03  0.10886669131E+04  0.89926632653E+03 0.  0.
        -24    2    4    4    0    0  0.61734170480E+03  0.12661894004E+03 -0.25898121642E+03  0.68615162146E+03  0.81176601935E+02 0.  0.
         24    2    4    4    0    0 -0.31001587927E+03  0.14107301793E+03 -0.19972083760E+03  0.40251529169E+03  0.78222153426E+02 0.  0.
         11    1    3    3    0    0 -0.96402174226E+02 -0.13034246856E+03 -0.28364104251E+03  0.32670289148E+03  0.00000000000E+00 0.  1.
        -11    1    3    3    0    0 -0.21092365130E+03 -0.13734948941E+03 -0.59463737193E+03  0.64571454453E+03  0.00000000000E+00 0. -1.
          2    1    6    6  502    0 -0.80099479510E+02  0.44485713517E+02 -0.16582676697E+02  0.93112246731E+02  0.00000000000E+00 0. -1.
          1    1    5    5  503    0  0.98398488679E+02  0.36233536950E+02 -0.71986356598E+02  0.12718949371E+03  0.00000000000E+00 0. -1.
         -2    1    5    5    0  503  0.51894321612E+03  0.90385403087E+02 -0.18699485983E+03  0.55896212774E+03  0.00000000000E+00 0.  1.
         -1    1    6    6    0  502 -0.22991639976E+03  0.96587304418E+02 -0.18313816090E+03  0.30940304496E+03  0.00000000000E+00 0.  1.
<mgrwt>
<rscale>  0 0.15686147E+04</rscale>
<asrwt>0</asrwt>
<pdfrwt beam="1">  1        2 0.26138960E+00 0.15686147E+04</pdfrwt>
<pdfrwt beam="2">  1       -2 0.55700300E-01 0.15686147E+04</pdfrwt>
<totfact> 0.28576353E+01</totfact>
</mgrwt>
</event>
<event>
12    1  0.1114484E-007  0.1298241E+04  0.7818608E-02  0.9030961E-01
         -1   -1    0    0    0  501 -0.00000000000E+00  0.00000000000E+00  0.21773262711E+03  0.21773262711E+03  0.00000000000E+00 0.  1.
          1   -1    0    0  501    0  0.00000000000E+00 -0.00000000000E+00 -0.19352047965E+04  0.19352047965E+04  0.00000000000E+00 0. -1.
         23    2    1    2    0    0 -0.21753800740E+03  0.23615468678E+03 -0.34061381643E+03  0.47711446183E+03  0.92350511625E+02 0.  0.
        254    2    1    2    0    0  0.21753800740E+03 -0.23615468678E+03 -0.13768583529E+04  0.16758229618E+04  0.89975099575E+03 0.  0.
        -24    2    4    4    0    0  0.22638188205E+03 -0.27600149038E+03 -0.14883524622E+04  0.15327996285E+04  0.82801390361E+02 0.  0.
         24    2    4    4    0    0 -0.88438746589E+01  0.39846803602E+02  0.11149410924E+03  0.14302333325E+03  0.79741805733E+02 0.  0.
         11    1    3    3    0    0 -0.21000280398E+03  0.22229890079E+03 -0.28050603603E+03  0.41497182461E+03  0.00000000000E+00 0.  1.
        -11    1    3    3    0    0 -0.75352034116E+01  0.13855785989E+02 -0.60107780404E+02  0.62142637223E+02  0.00000000000E+00 0. -1.
          2    1    6    6  502    0 -0.28041520514E+02  0.34615041411E+02  0.11453603665E+03  0.12289439229E+03  0.00000000000E+00 0. -1.
          3    1    5    5  503    0  0.18857954849E+03 -0.17695792798E+03 -0.11220178429E+04  0.11514340598E+04  0.00000000000E+00 0. -1.
         -4    1    5    5    0  503  0.37802333567E+02 -0.99043562393E+02 -0.36633461930E+03  0.38136556868E+03  0.00000000000E+00 0.  1.
         -1    1    6    6    0  502  0.19197645855E+02  0.52317621906E+01 -0.30419274027E+01  0.20128940964E+02  0.00000000000E+00 0.  1.
<mgrwt>
<rscale>  0 0.12982407E+04</rscale>
<asrwt>0</asrwt>
<pdfrwt beam="1">  1        1 0.29772380E+00 0.12982407E+04</pdfrwt>
<pdfrwt beam="2">  1       -1 0.33497329E-01 0.12982407E+04</pdfrwt>
<totfact> 0.27226411E+01</totfact>
</mgrwt>
</event>
<event>
12    1  0.1114484E-007  0.2649143E+04  0.7818608E-02  0.8351698E-01
         -2   -1    0    0    0  501 -0.00000000000E+00  0.00000000000E+00  0.94108340774E+03  0.94108340774E+03  0.00000000000E+00 0.  1.
          2   -1    0    0  501    0  0.00000000000E+00 -0.00000000000E+00 -0.18643294730E+04  0.18643294730E+04  0.00000000000E+00 0. -1.
         23    2    1    2    0    0 -0.46497408706E+03  0.30222491681E+03  0.68223707849E+03  0.88363004724E+03  0.88395854767E+02 0.  0.
        254    2    1    2    0    0  0.46497408706E+03 -0.30222491681E+03 -0.16054831438E+04  0.19217828335E+04  0.89896180801E+03 0.  0.
        -24    2    4    4    0    0  0.41608944867E+03 -0.36523391299E+03 -0.34912921612E+03  0.66039416373E+03  0.87766744549E+02 0.  0.
         24    2    4    4    0    0  0.48884638397E+02  0.63008996182E+02 -0.12563539277E+04  0.12613886698E+04  0.79475425424E+02 0.  0.
         13    1    3    3    0    0 -0.17015394628E+03  0.10374964743E+03  0.31363865875E+03  0.37159865856E+03  0.00000000000E+00 0. -1.
        -13    1    3    3    0    0 -0.29482014078E+03  0.19847526938E+03  0.36859841974E+03  0.51203138869E+03  0.00000000000E+00 0.  1.
          2    1    6    6  502    0  0.39117589613E+02 -0.56501118117E+01 -0.62218193154E+03  0.62343601557E+03  0.00000000000E+00 0. -1.
          1    1    5    5  503    0  0.31937801967E+03 -0.26494365003E+03 -0.21655752091E+03  0.46807543943E+03  0.00000000000E+00 0. -1.
         -2    1    5    5    0  503  0.96711428993E+02 -0.10029026297E+03 -0.13257169521E+03  0.19231872430E+03  0.00000000000E+00 0.  1.
         -1    1    6    6    0  502  0.97670487835E+01  0.68659107993E+02 -0.63417199612E+03  0.63795265421E+03  0.00000000000E+00 0.  1.
<mgrwt>
<rscale>  0 0.26491429E+04</rscale>
<asrwt>0</asrwt>
<pdfrwt beam="1">  1        2 0.28681992E+00 0.26491429E+04</pdfrwt>
<pdfrwt beam="2">  1       -2 0.14478206E+00 0.26491429E+04</pdfrwt>
<totfact> 0.23036604E+00</totfact>
</mgrwt>
</event>
<event>
12    1  0.1114484E-007  0.2396270E+04  0.7818608E-02  0.8440901E-01
          2   -1    0    0  501    0  0.00000000000E+00  0.00000000000E+00  0.92569268121E+03  0.92569268121E+03  0.00000000000E+00 0. -1.
         -2   -1    0    0    0  501 -0.00000000000E+00 -0.00000000000E+00 -0.15507605663E+04  0.15507605663E+04  0.00000000000E+00 0.  1.
         23    2    1    2    0    0 -0.66307668540E+03 -0.77505303360E+03 -0.15137961512E+03  0.10351895776E+04  0.91234741072E+02 0.  0.
        254    2    1    2    0    0  0.66307668540E+03  0.77505303360E+03 -0.47368826999E+03  0.14412636700E+04  0.90137810804E+03 0.  0.
        -24    2    4    4    0    0  0.32859881669E+03 -0.14718914130E+03 -0.20087351560E+03  0.41992866864E+03  0.79674913444E+02 0.  0.
         24    2    4    4    0    0  0.33447786871E+03  0.92224217490E+03 -0.27281475439E+03  0.10213350013E+04  0.79317217066E+02 0.  0.
         11    1    3    3    0    0 -0.29377890834E+03 -0.28107900858E+03 -0.79127979313E+02  0.41421334257E+03  0.00000000000E+00 0. -1.
        -11    1    3    3    0    0 -0.36929777706E+03 -0.49397402502E+03 -0.72251635806E+02  0.62097623498E+03  0.00000000000E+00 0.  1.
          4    1    6    6  502    0  0.75988900283E+02  0.16265185630E+03 -0.77478301816E+02  0.19553216251E+03  0.00000000000E+00 0. -1.
          1    1    5    5  503    0 -0.29391834084E+01  0.30088026149E+01 -0.52107853956E+01  0.66965645463E+01  0.00000000000E+00 0. -1.
         -2    1    5    5    0  503  0.33153800010E+03 -0.15019794391E+03 -0.19566273020E+03  0.41323210410E+03  0.00000000000E+00 0.  1.
         -3    1    6    6    0  502  0.25848896843E+03  0.75959031860E+03 -0.19533645258E+03  0.82580283882E+03  0.00000000000E+00 0.  1.
<mgrwt>
<rscale>  0 0.23962702E+04</rscale>
<asrwt>0</asrwt>
<pdfrwt beam="1">  1        2 0.14241426E+00 0.23962702E+04</pdfrwt>
<pdfrwt beam="2">  1       -2 0.23857855E+00 0.23962702E+04</pdfrwt>
<totfact> 0.19156129E+00</totfact>
</mgrwt>
</event>
<event>
12    1  0.1114484E-007  0.1539837E+04  0.7818608E-02  0.8858386E-01
          2   -1    0    0  501    0  0.00000000000E+00  0.00000000000E+00  0.15040530389E+04  0.15040530389E+04  0.00000000000E+00 0. -1.
         -2   -1    0    0    0  501 -0.00000000000E+00 -0.00000000000E+00 -0.39411807278E+03  0.39411807278E+03  0.00000000000E+00 0.  1.
         23    2    1    2    0    0  0.21389940077E+03  0.10775209935E+03 -0.17683875159E+03  0.31088530414E+03  0.89522397783E+02 0.  0.
        254    2    1    2    0    0 -0.21389940077E+03 -0.10775209935E+03  0.12867737178E+04  0.15872858076E+04  0.89795666135E+03 0.  0.
        -24    2    4    4    0    0 -0.16206689210E+03  0.33236177747E+03  0.95583829348E+03  0.10283662074E+04  0.84735969889E+02 0.  0.
         24    2    4    4    0    0 -0.51832508666E+02 -0.44011387682E+03  0.33093542428E+03  0.55891960018E+03  0.80535898222E+02 0.  0.
         11    1    3    3    0    0  0.13968873777E+03  0.24324325468E+02 -0.78350163319E+02  0.16199803814E+03  0.00000000000E+00 0.  1.
        -11    1    3    3    0    0  0.74210662993E+02  0.83427773885E+02 -0.98488588271E+02  0.14888726600E+03  0.00000000000E+00 0. -1.
          4    1    6    6  502    0 -0.57706664165E+02 -0.43458861250E+03  0.31127755111E+03  0.53767186557E+03  0.00000000000E+00 0. -1.
          3    1    5    5  503    0 -0.13268156147E+03  0.24095490394E+03  0.79271842015E+03  0.83908650098E+03  0.00000000000E+00 0. -1.
         -4    1    5    5    0  503 -0.29385330630E+02  0.91406873525E+02  0.16311987333E+03  0.18927970641E+03  0.00000000000E+00 0.  1.
         -3    1    6    6    0  502  0.58741554987E+01 -0.55252643207E+01  0.19657873165E+02  0.21247734609E+02  0.00000000000E+00 0.  1.
<mgrwt>
<rscale>  0 0.15398370E+04</rscale>
<asrwt>0</asrwt>
<pdfrwt beam="1">  1        2 0.23139277E+00 0.15398370E+04</pdfrwt>
<pdfrwt beam="2">  1       -2 0.60633551E-01 0.15398370E+04</pdfrwt>
<totfact> 0.30805900E+01</totfact>
</mgrwt>
</event>
<event>
12    1  0.1114484E-007  0.2866060E+04  0.7818608E-02  0.8283048E-01
         -2   -1    0    0    0  501 -0.00000000000E+00  0.00000000000E+00  0.55812079123E+03  0.55812079123E+03  0.00000000000E+00 0.  1.
          2   -1    0    0  501    0  0.00000000000E+00 -0.00000000000E+00 -0.36794446747E+04  0.36794446747E+04  0.00000000000E+00 0. -1.
         23    2    1    2    0    0  0.64618986798E+03  0.90535894865E+03 -0.23800043180E+04  0.26284794358E+04  0.85131775483E+02 0.  0.
        254    2    1    2    0    0 -0.64618986798E+03 -0.90535894865E+03 -0.74131956545E+03  0.16090860301E+04  0.89574939737E+03 0.  0.
        -24    2    4    4    0    0 -0.51062833393E+03 -0.50569366370E+02 -0.46655781005E+03  0.69806114425E+03  0.79464550398E+02 0.  0.
         24    2    4    4    0    0 -0.13556153405E+03 -0.85478958228E+03 -0.27476175540E+03  0.91102488589E+03  0.73689626017E+02 0.  0.
         11    1    3    3    0    0  0.49657520715E+03  0.69164032578E+03 -0.17332358239E+04  0.19310773412E+04  0.00000000000E+00 0. -1.
        -11    1    3    3    0    0  0.14961466083E+03  0.21371862288E+03 -0.64676849413E+03  0.69740209456E+03  0.00000000000E+00 0.  1.
          4    1    6    6  502    0 -0.70176164879E+02 -0.23194403447E+03 -0.74929302380E+02  0.25364764852E+03  0.00000000000E+00 0. -1.
          3    1    5    5  503    0 -0.88637417110E+02  0.84157512585E+01 -0.11640256840E+03  0.14655024569E+03  0.00000000000E+00 0. -1.
         -4    1    5    5    0  503 -0.42199091682E+03 -0.58985117629E+02 -0.35015524165E+03  0.55151089857E+03  0.00000000000E+00 0.  1.
         -3    1    6    6    0  502 -0.65385369169E+02 -0.62284554781E+03 -0.19983245302E+03  0.65737723737E+03  0.00000000000E+00 0.  1.
<mgrwt>
<rscale>  0 0.28660597E+04</rscale>
<asrwt>0</asrwt>
<pdfrwt beam="1">  1        2 0.56606841E+00 0.28660597E+04</pdfrwt>
<pdfrwt beam="2">  1       -2 0.85864737E-01 0.28660597E+04</pdfrwt>
<totfact> 0.61576532E-01</totfact>
</mgrwt>
</event>
<event>
12    1  0.1114484E-007  0.1662135E+04  0.7818608E-02  0.8783260E-01
          2   -1    0    0  501    0  0.00000000000E+00  0.00000000000E+00  0.38465866988E+04  0.38465866988E+04  0.00000000000E+00 0. -1.
         -2   -1    0    0    0  501 -0.00000000000E+00 -0.00000000000E+00 -0.17955480870E+03  0.17955480870E+03  0.00000000000E+00 0.  1.
         23    2    1    2    0    0 -0.40387651610E+03 -0.34392412688E+03  0.84280091082E+03  0.99993756590E+03  0.90342211146E+02 0.  0.
        254    2    1    2    0    0  0.40387651610E+03  0.34392412688E+03  0.28242309793E+04  0.30262039416E+04  0.94880431416E+03 0.  0.
        -24    2    4    4    0    0 -0.13141779746E+02  0.50751448026E+03  0.79263900801E+03  0.94450134673E+03  0.77862333012E+02 0.  0.
         24    2    4    4    0    0  0.41701829585E+03 -0.16359035339E+03  0.20315919713E+04  0.20817025949E+04  0.73849123298E+02 0.  0.
         13    1    3    3    0    0 -0.33238569888E+03 -0.27847892765E+03  0.61622017322E+03  0.75349722485E+03  0.00000000000E+00 0.  1.
        -13    1    3    3    0    0 -0.71490817220E+02 -0.65445199228E+02  0.22658073760E+03  0.24644034105E+03  0.00000000000E+00 0. -1.
          4    1    6    6  502    0  0.38008261381E+03 -0.16952674646E+03  0.18378256973E+04  0.18843580882E+04  0.00000000000E+00 0. -1.
          3    1    5    5  503    0 -0.10547505574E+02  0.47695790627E+03  0.77207206179E+03  0.90757664295E+03  0.00000000000E+00 0. -1.
         -4    1    5    5    0  503 -0.25942741725E+01  0.30556573988E+02  0.20566946222E+02  0.36924703781E+02  0.00000000000E+00 0.  1.
         -3    1    6    6    0  502  0.36935682035E+02  0.59363930716E+01  0.19376627399E+03  0.19734450665E+03  0.00000000000E+00 0.  1.
<mgrwt>
<rscale>  0 0.16621349E+04</rscale>
<asrwt>0</asrwt>
<pdfrwt beam="1">  1        2 0.59178251E+00 0.16621349E+04</pdfrwt>
<pdfrwt beam="2">  1       -2 0.27623820E-01 0.16621349E+04</pdfrwt>
<totfact> 0.52415641E+00</totfact>
</mgrwt>
</event>
<event>
12    1  0.1114484E-007  0.3898382E+04  0.7818608E-02  0.8025366E-01
          1   -1    0    0  501    0  0.00000000000E+00  0.00000000000E+00  0.34242178402E+04  0.34242178402E+04  0.00000000000E+00 0. -1.
         -1   -1    0    0    0  501 -0.00000000000E+00 -0.00000000000E+00 -0.11095511795E+04  0.11095511795E+04  0.00000000000E+00 0.  1.
         23    2    1    2    0    0  0.17895872645E+04 -0.30579912272E+03  0.10546049297E+04  0.21013560055E+04  0.85847673046E+02 0.  0.
        254    2    1    2    0    0 -0.17895872645E+04  0.30579912272E+03  0.12600617309E+04  0.24324130143E+04  0.10162390592E+04 0.  0.
        -24    2    4    4    0    0 -0.16237208897E+04  0.60026180415E+03  0.10318256724E+04  0.20168801702E+04  0.79734821631E+02 0.  0.
         24    2    4    4    0    0 -0.16586637487E+03 -0.29446268143E+03  0.22823605855E+03  0.41553284405E+03  0.79724030214E+02 0.  0.
         11    1    3    3    0    0  0.12840100885E+04 -0.24353337466E+03  0.79361520179E+03  0.15289916613E+04  0.00000000000E+00 0.  1.
        -11    1    3    3    0    0  0.50557717607E+03 -0.62265748059E+02  0.26098972795E+03  0.57236434414E+03  0.00000000000E+00 0. -1.
          2    1    6    6  502    0 -0.99262798373E+02 -0.20883693186E+03  0.11331807727E+03  0.25750136677E+03  0.00000000000E+00 0. -1.
          3    1    5    5  503    0 -0.49349039076E+03  0.16849475644E+03  0.35091915397E+03  0.62854395339E+03  0.00000000000E+00 0. -1.
         -4    1    5    5    0  503 -0.11302304989E+04  0.43176704771E+03  0.68090651842E+03  0.13883362168E+04  0.00000000000E+00 0.  1.
         -1    1    6    6    0  502 -0.66603576494E+02 -0.85625749572E+02  0.11491798127E+03  0.15803147728E+03  0.00000000000E+00 0.  1.
<mgrwt>
<rscale>  0 0.38983817E+04</rscale>
<asrwt>0</asrwt>
<pdfrwt beam="1">  1        1 0.52680274E+00 0.38983817E+04</pdfrwt>
<pdfrwt beam="2">  1       -1 0.17070018E+00 0.38983817E+04</pdfrwt>
<totfact> 0.54903672E-02</totfact>
</mgrwt>
</event>
<event>
12    1  0.1114484E-007  0.1603781E+04  0.7818608E-02  0.8818229E-01
          1   -1    0    0  501    0  0.00000000000E+00  0.00000000000E+00  0.18394902389E+04  0.18394902389E+04  0.00000000000E+00 0. -1.
         -1   -1    0    0    0  501 -0.00000000000E+00 -0.00000000000E+00 -0.34956867374E+03  0.34956867374E+03  0.00000000000E+00 0.  1.
         23    2    1    2    0    0 -0.13135743923E+03  0.52530041051E+02  0.12286276809E+04  0.12406085814E+04  0.97823780131E+02 0.  0.
        254    2    1    2    0    0  0.13135743923E+03 -0.52530041051E+02  0.26129388427E+03  0.94845033123E+03  0.90070492105E+03 0.  0.
        -24    2    4    4    0    0  0.32747860669E+03  0.30405082575E+03  0.28095071495E+03  0.53342579191E+03  0.76945622141E+02 0.  0.
         24    2    4    4    0    0 -0.19612116745E+03 -0.35658086680E+03 -0.19656830681E+02  0.41502453932E+03  0.79028794494E+02 0.  0.
         13    1    3    3    0    0 -0.38920715150E+02  0.37696251631E+02  0.80207122041E+03  0.80389929225E+03  0.00000000000E+00 0. -1.
        -13    1    3    3    0    0 -0.92436724082E+02  0.14833789421E+02  0.42655646046E+03  0.43670928915E+03  0.00000000000E+00 0.  1.
          4    1    6    6  502    0 -0.79203080307E+02 -0.20523286301E+03  0.15660186427E+02  0.22054228037E+03  0.00000000000E+00 0. -1.
          1    1    5    5  503    0  0.30167991609E+03  0.30296136280E+03  0.26713653373E+03  0.50414113775E+03  0.00000000000E+00 0. -1.
         -2    1    5    5    0  503  0.25798690599E+02  0.10894629421E+01  0.13814181228E+02  0.29284654157E+02  0.00000000000E+00 0.  1.
         -3    1    6    6    0  502 -0.11691808715E+03 -0.15134800378E+03 -0.35317017107E+02  0.19448225896E+03  0.00000000000E+00 0.  1.
<mgrwt>
<rscale>  0 0.16037807E+04</rscale>
<asrwt>0</asrwt>
<pdfrwt beam="1">  1        1 0.28299849E+00 0.16037807E+04</pdfrwt>
<pdfrwt beam="2">  1       -1 0.53779797E-01 0.16037807E+04</pdfrwt>
<totfact> 0.12821974E+01</totfact>
</mgrwt>
</event>
<event>
12    1  0.1114484E-007  0.1770172E+04  0.7818608E-02  0.8722324E-01
          1   -1    0    0  501    0  0.00000000000E+00  0.00000000000E+00  0.30214668586E+04  0.30214668586E+04  0.00000000000E+00 0. -1.
         -1   -1    0    0    0  501 -0.00000000000E+00 -0.00000000000E+00 -0.25927057460E+03  0.25927057460E+03  0.00000000000E+00 0.  1.
         23    2    1    2    0    0  0.17057456473E+02 -0.64866530782E+03  0.93048374186E+03  0.11381767361E+04  0.92674971627E+02 0.  0.
        254    2    1    2    0    0 -0.17057456473E+02  0.64866530782E+03  0.18317125421E+04  0.21425606971E+04  0.90240670724E+03 0.  0.
        -24    2    4    4    0    0  0.28116474772E+03  0.69580074082E+03  0.15412003039E+04  0.17159481098E+04  0.77377337999E+02 0.  0.
         24    2    4    4    0    0 -0.29822220419E+03 -0.47135433000E+02  0.29051223821E+03  0.42661258728E+03  0.80266474689E+02 0.  0.
         11    1    3    3    0    0 -0.27357795424E+02 -0.45942576610E+03  0.62717369155E+03  0.77792501110E+03  0.00000000000E+00 0. -1.
        -11    1    3    3    0    0  0.44415251897E+02 -0.18923954172E+03  0.30331005031E+03  0.36025172501E+03  0.00000000000E+00 0.  1.
          2    1    6    6  502    0 -0.24169690156E+03 -0.49860063768E+02  0.19072925097E+03  0.31189912690E+03  0.00000000000E+00 0. -1.
          1    1    5    5  503    0  0.18590243210E+03  0.54292517107E+03  0.11975895240E+04  0.13279864922E+04  0.00000000000E+00 0. -1.
         -2    1    5    5    0  503  0.95262315618E+02  0.15287556975E+03  0.34361077994E+03  0.38796161755E+03  0.00000000000E+00 0.  1.
         -1    1    6    6    0  502 -0.56525302625E+02  0.27246307678E+01  0.99782987241E+02  0.11471346038E+03  0.00000000000E+00 0.  1.
<mgrwt>
<rscale>  0 0.17701722E+04</rscale>
<asrwt>0</asrwt>
<pdfrwt beam="1">  1        1 0.46484103E+00 0.17701722E+04</pdfrwt>
<pdfrwt beam="2">  1       -1 0.39887783E-01 0.17701722E+04</pdfrwt>
<totfact> 0.33508558E+00</totfact>
</mgrwt>
</event>
<event>
12    1  0.1114484E-007  0.3816236E+04  0.7818608E-02  0.8042680E-01
          2   -1    0    0  501    0  0.00000000000E+00  0.00000000000E+00  0.21216039868E+04  0.21216039868E+04  0.00000000000E+00 0. -1.
         -2   -1    0    0    0  501 -0.00000000000E+00 -0.00000000000E+00 -0.17161141263E+04  0.17161141263E+04  0.00000000000E+00 0.  1.
         23    2    1    2    0    0 -0.16922271166E+03  0.11123392100E+04  0.15975010270E+04  0.19564040339E+04  0.97838480868E+02 0.  0.
        254    2    1    2    0    0  0.16922271166E+03 -0.11123392100E+04 -0.11920111665E+04  0.18813140792E+04  0.92331857943E+03 0.  0.
        -24    2    4    4    0    0  0.29066222407E+03 -0.83872936219E+03 -0.30484873869E+03  0.94199082435E+03  0.80389602483E+02 0.  0.
         24    2    4    4    0    0 -0.12143951241E+03 -0.27360984786E+03 -0.88716242780E+03  0.93932325482E+03  0.75240279997E+02 0.  0.
         13    1    3    3    0    0 -0.67104565186E+02  0.37548206847E+03  0.46490118047E+03  0.60135090755E+03  0.00000000000E+00 0. -1.
        -13    1    3    3    0    0 -0.10211814648E+03  0.73685714158E+03  0.11325998465E+04  0.13550531264E+04  0.00000000000E+00 0.  1.
          4    1    6    6  502    0 -0.10602735119E+03 -0.21687912082E+03 -0.78689518522E+03  0.82309318110E+03  0.00000000000E+00 0. -1.
          1    1    5    5  503    0  0.20464828246E+03 -0.48725430248E+03 -0.15935506014E+03  0.55198886763E+03  0.00000000000E+00 0. -1.
         -2    1    5    5    0  503  0.86013941614E+02 -0.35147505971E+03 -0.14549367854E+03  0.39000195672E+03  0.00000000000E+00 0.  1.
         -3    1    6    6    0  502 -0.15412161215E+02 -0.56730727037E+02 -0.10026724258E+03  0.11623007372E+03  0.00000000000E+00 0.  1.
<mgrwt>
<rscale>  0 0.38162361E+04</rscale>
<asrwt>0</asrwt>
<pdfrwt beam="1">  1        2 0.32640061E+00 0.38162361E+04</pdfrwt>
<pdfrwt beam="2">  1       -2 0.26401756E+00 0.38162361E+04</pdfrwt>
<totfact> 0.24127854E-01</totfact>
</mgrwt>
</event>
<event>
12    1  0.1114484E-007  0.1554391E+04  0.7818608E-02  0.8849068E-01
         -2   -1    0    0    0  501 -0.00000000000E+00  0.00000000000E+00  0.81290153318E+03  0.81290153318E+03  0.00000000000E+00 0.  1.
          2   -1    0    0  501    0  0.00000000000E+00 -0.00000000000E+00 -0.74305818124E+03  0.74305818124E+03  0.00000000000E+00 0. -1.
         23    2    1    2    0    0  0.13737224999E+03 -0.17663675806E+03  0.48304547133E+03  0.54019407964E+03  0.91678988567E+02 0.  0.
        254    2    1    2    0    0 -0.13737224999E+03  0.17663675806E+03 -0.41320211939E+03  0.10157656348E+04  0.90053992358E+03 0.  0.
        -24    2    4    4    0    0 -0.26625456068E+03  0.21221532628E+03 -0.64657805198E+03  0.73497191968E+03  0.78700124713E+02 0.  0.
         24    2    4    4    0    0  0.12888231069E+03 -0.35578568224E+02  0.23337593259E+03  0.28079371509E+03  0.80649240503E+02 0.  0.
         11    1    3    3    0    0  0.25643171600E+02 -0.10526779238E+03  0.24051666243E+03  0.26379375517E+03  0.00000000000E+00 0.  1.
        -11    1    3    3    0    0  0.11172907839E+03 -0.71368965677E+02  0.24252880890E+03  0.27640032447E+03  0.00000000000E+00 0. -1.
          2    1    6    6  502    0  0.14349728861E+02 -0.14268270196E+02  0.31549554273E+00  0.20238522431E+02  0.00000000000E+00 0. -1.
          3    1    5    5  503    0 -0.99620988142E+02  0.66566064037E+02 -0.15531398981E+03  0.19615763454E+03  0.00000000000E+00 0. -1.
         -4    1    5    5    0  503 -0.16663357254E+03  0.14564926225E+03 -0.49126406217E+03  0.53881428514E+03  0.00000000000E+00 0.  1.
         -1    1    6    6    0  502  0.11453258183E+03 -0.21310298028E+02  0.23306043705E+03  0.26055519266E+03  0.00000000000E+00 0.  1.
<mgrwt>
<rscale>  0 0.15543914E+04</rscale>
<asrwt>0</asrwt>
<pdfrwt beam="1">  1        2 0.11431664E+00 0.15543914E+04</pdfrwt>
<pdfrwt beam="2">  1       -2 0.12506177E+00 0.15543914E+04</pdfrwt>
<totfact> 0.17487142E+01</totfact>
</mgrwt>
</event>
<event>
12    1  0.1114484E-007  0.2225833E+04  0.7818608E-02  0.8507752E-01
         -2   -1    0    0    0  501 -0.00000000000E+00  0.00000000000E+00  0.83235683170E+03  0.83235683170E+03  0.00000000000E+00 0.  1.
          2   -1    0    0  501    0  0.00000000000E+00 -0.00000000000E+00 -0.14880439173E+04  0.14880439173E+04  0.00000000000E+00 0. -1.
         23    2    1    2    0    0 -0.45904488138E+03  0.77050273520E+03 -0.19264379744E+02  0.90175428600E+03  0.91613361074E+02 0.  0.
        254    2    1    2    0    0  0.45904488138E+03 -0.77050273520E+03 -0.63642270590E+03  0.14186464630E+04  0.89617367650E+03 0.  0.
        -24    2    4    4    0    0  0.17027104324E+03 -0.22756565799E+03  0.21527412759E+03  0.36518641825E+03  0.78992488243E+02 0.  0.
         24    2    4    4    0    0  0.28877383813E+03 -0.54293707721E+03 -0.85169683349E+03  0.10534600448E+04  0.78864253033E+02 0.  0.
         11    1    3    3    0    0 -0.44493749184E+03  0.76188532674E+03 -0.28626931862E+02  0.88275598213E+03  0.00000000000E+00 0.  1.
        -11    1    3    3    0    0 -0.14107389533E+02  0.86174084584E+01  0.93625521182E+01  0.18998303876E+02  0.00000000000E+00 0. -1.
          2    1    6    6  502    0  0.16953139490E+03 -0.28516641783E+03 -0.51960909139E+03  0.61648551286E+03  0.00000000000E+00 0. -1.
          1    1    5    5  503    0  0.47065488321E+02 -0.10814279168E+03  0.54032131152E+02  0.12972854266E+03  0.00000000000E+00 0. -1.
         -2    1    5    5    0  503  0.12320555492E+03 -0.11942286631E+03  0.16124199644E+03  0.23545787559E+03  0.00000000000E+00 0.  1.
         -1    1    6    6    0  502  0.11924244323E+03 -0.25777065938E+03 -0.33208774210E+03  0.43697453194E+03  0.00000000000E+00 0.  1.
<mgrwt>
<rscale>  0 0.22258333E+04</rscale>
<asrwt>0</asrwt>
<pdfrwt beam="1">  1        2 0.22892983E+00 0.22258333E+04</pdfrwt>
<pdfrwt beam="2">  1       -2 0.12805490E+00 0.22258333E+04</pdfrwt>
<totfact> 0.53068215E+00</totfact>
</mgrwt>
</event>
<event>
12    1  0.1114484E-007  0.2089193E+04  0.7818608E-02  0.8566019E-01
         -2   -1    0    0    0  501 -0.00000000000E+00  0.00000000000E+00  0.70047691669E+03  0.70047691669E+03  0.00000000000E+00 0.  1.
          2   -1    0    0  501    0  0.00000000000E+00 -0.00000000000E+00 -0.15577693371E+04  0.15577693371E+04  0.00000000000E+00 0. -1.
         23    2    1    2    0    0  0.35389169924E+01 -0.85203107767E+03 -0.29808665824E+03  0.90734239353E+03  0.91897127455E+02 0.  0.
        254    2    1    2    0    0 -0.35389169924E+01  0.85203107767E+03 -0.55920576222E+03  0.13509038603E+04  0.88671341145E+03 0.  0.
        -24    2    4    4    0    0  0.55950781181E+02  0.70123556740E+03  0.55427441389E+02  0.70988925829E+03  0.77516107238E+02 0.  0.
         24    2    4    4    0    0 -0.59489698174E+02  0.15079551027E+03 -0.61463320361E+03  0.64101460201E+03  0.82749229038E+02 0.  0.
         13    1    3    3    0    0 -0.27892575723E+01 -0.81261841570E+03 -0.30267682892E+03  0.86716188354E+03  0.00000000000E+00 0.  1.
        -13    1    3    3    0    0  0.63281745647E+01 -0.39412661966E+02  0.45901706793E+01  0.40180509994E+02  0.00000000000E+00 0. -1.
          2    1    6    6  502    0 -0.86894300273E+01  0.65630534995E+02 -0.12509158227E+03  0.14153012850E+03  0.00000000000E+00 0. -1.
          1    1    5    5  503    0  0.43897416409E+02  0.46728950161E+03  0.72933244927E+02  0.47497970451E+03  0.00000000000E+00 0. -1.
         -4    1    5    5    0  503  0.12053364772E+02  0.23394606579E+03 -0.17505803538E+02  0.23490955379E+03  0.00000000000E+00 0.  1.
         -1    1    6    6    0  502 -0.50800268146E+02  0.85164975271E+02 -0.48954162134E+03  0.49948447351E+03  0.00000000000E+00 0.  1.
<mgrwt>
<rscale>  0 0.20891926E+04</rscale>
<asrwt>0</asrwt>
<pdfrwt beam="1">  1        2 0.23965682E+00 0.20891926E+04</pdfrwt>
<pdfrwt beam="2">  1       -2 0.10776568E+00 0.20891926E+04</pdfrwt>
<totfact> 0.75011789E+00</totfact>
</mgrwt>
</event>
<event>
12    1  0.1114484E-007  0.1623435E+04  0.7818608E-02  0.8806279E-01
         -1   -1    0    0    0  501 -0.00000000000E+00  0.00000000000E+00  0.77213693917E+03  0.77213693917E+03  0.00000000000E+00 0.  1.
          1   -1    0    0  501    0  0.00000000000E+00 -0.00000000000E+00 -0.85332689689E+03  0.85332689689E+03  0.00000000000E+00 0. -1.
         23    2    1    2    0    0 -0.11463841382E+03 -0.29106626166E+03 -0.49168989532E+03  0.58994733437E+03  0.91746223791E+02 0.  0.
        254    2    1    2    0    0  0.11463841382E+03  0.29106626166E+03  0.41049993760E+03  0.10355165017E+04  0.89773197108E+03 0.  0.
        -24    2    4    4    0    0  0.11738740529E+03  0.59929581318E+03  0.35917659716E+03  0.71293218739E+03  0.79556277288E+02 0.  0.
         24    2    4    4    0    0 -0.27489914702E+01 -0.30822955153E+03  0.51323340436E+02  0.32258431429E+03  0.80084587567E+02 0.  0.
         13    1    3    3    0    0 -0.12232655147E+03 -0.21554796315E+03 -0.40403488457E+03  0.47399250791E+03  0.00000000000E+00 0. -1.
        -13    1    3    3    0    0  0.76881376479E+01 -0.75518298502E+02 -0.87655010753E+02  0.11595482646E+03  0.00000000000E+00 0.  1.
          2    1    6    6  502    0 -0.13843594922E+02 -0.29231993316E+03  0.30668591119E+02  0.29425015026E+03  0.00000000000E+00 0. -1.
          3    1    5    5  503    0  0.56056713940E+02  0.31572396454E+03  0.23393953843E+03  0.39692780780E+03  0.00000000000E+00 0. -1.
         -4    1    5    5    0  503  0.61330691350E+02  0.28357184864E+03  0.12523705872E+03  0.31600437959E+03  0.00000000000E+00 0.  1.
         -1    1    6    6    0  502  0.11094603451E+02 -0.15909618362E+02  0.20654749318E+02  0.28334164035E+02  0.00000000000E+00 0.  1.
<mgrwt>
<rscale>  0 0.16234349E+04</rscale>
<asrwt>0</asrwt>
<pdfrwt beam="1">  1        1 0.13128106E+00 0.16234349E+04</pdfrwt>
<pdfrwt beam="2">  1       -1 0.11879030E+00 0.16234349E+04</pdfrwt>
<totfact> 0.12097144E+01</totfact>
</mgrwt>
</event>
<event>
12    1  0.1114484E-007  0.1968403E+04  0.7818608E-02  0.8621538E-01
          2   -1    0    0  501    0  0.00000000000E+00  0.00000000000E+00  0.16986752414E+04  0.16986752414E+04  0.00000000000E+00 0. -1.
         -2   -1    0    0    0  501 -0.00000000000E+00 -0.00000000000E+00 -0.57023974453E+03  0.57023974453E+03  0.00000000000E+00 0.  1.
         23    2    1    2    0    0  0.64700545911E+03 -0.25339872341E+03  0.51532329845E+02  0.70265916212E+03  0.90814866339E+02 0.  0.
        254    2    1    2    0    0 -0.64700545911E+03  0.25339872341E+03  0.10769031670E+04  0.15662558238E+04  0.90033876809E+03 0.  0.
        -24    2    4    4    0    0 -0.41178098713E+03  0.58511525933E+03  0.73787039473E+03  0.10308572746E+04  0.79313007481E+02 0.  0.
         24    2    4    4    0    0 -0.23522447198E+03 -0.33171653593E+03  0.33903277227E+03  0.53539854917E+03  0.79636507682E+02 0.  0.
         11    1    3    3    0    0  0.61832761592E+03 -0.21974770976E+03  0.42936986427E+02  0.65761818813E+03  0.00000000000E+00 0.  1.
        -11    1    3    3    0    0  0.28677843190E+02 -0.33651013648E+02  0.85953434173E+01  0.45040973991E+02  0.00000000000E+00 0. -1.
          4    1    6    6  502    0 -0.69821244294E+02 -0.15745782524E+03  0.16690593917E+03  0.23984487781E+03  0.00000000000E+00 0. -1.
          1    1    5    5  503    0 -0.47307297295E+02  0.36459896872E+02  0.44387477735E+02  0.74414734005E+02  0.00000000000E+00 0. -1.
         -2    1    5    5    0  503 -0.36447368984E+03  0.54865536246E+03  0.69348291699E+03  0.95644254062E+03  0.00000000000E+00 0.  1.
         -3    1    6    6    0  502 -0.16540322768E+03 -0.17425871069E+03  0.17212683310E+03  0.29555367136E+03  0.00000000000E+00 0.  1.
<mgrwt>
<rscale>  0 0.19684025E+04</rscale>
<asrwt>0</asrwt>
<pdfrwt beam="1">  1        2 0.26133465E+00 0.19684025E+04</pdfrwt>
<pdfrwt beam="2">  1       -2 0.87729192E-01 0.19684025E+04</pdfrwt>
<totfact> 0.10255740E+01</totfact>
</mgrwt>
</event>
<event>
12    1  0.1114484E-007  0.1787196E+04  0.7818608E-02  0.8713139E-01
          1   -1    0    0  501    0  0.00000000000E+00  0.00000000000E+00  0.23553050876E+04  0.23553050876E+04  0.00000000000E+00 0. -1.
         -1   -1    0    0    0  501 -0.00000000000E+00 -0.00000000000E+00 -0.33902909561E+03  0.33902909561E+03  0.00000000000E+00 0.  1.
         23    2    1    2    0    0 -0.17519687114E+03  0.62541999182E+03  0.95331764618E+03  0.11574786459E+04  0.95384334801E+02 0.  0.
        254    2    1    2    0    0  0.17519687114E+03 -0.62541999182E+03  0.10629583458E+04  0.15368555373E+04  0.90011131971E+03 0.  0.
        -24    2    4    4    0    0 -0.98870051770E+02 -0.17683439906E+03 -0.11415260758E+03  0.24501307187E+03  0.77167970949E+02 0.  0.
         24    2    4    4    0    0  0.27406692291E+03 -0.44858559276E+03  0.11771109534E+04  0.12918424655E+04  0.83216865521E+02 0.  0.
         13    1    3    3    0    0 -0.86093640695E+02  0.29245877233E+03  0.36441979709E+03  0.47512739028E+03  0.00000000000E+00 0. -1.
        -13    1    3    3    0    0 -0.89103230449E+02  0.33296121949E+03  0.58889784909E+03  0.68235125561E+03  0.00000000000E+00 0.  1.
          2    1    6    6  502    0  0.33638791001E+02 -0.11217095106E+03  0.30367332547E+03  0.32547101118E+03  0.00000000000E+00 0. -1.
          3    1    5    5  503    0  0.49164516698E+01 -0.42074056507E+02 -0.44101810300E+01  0.42589287675E+02  0.00000000000E+00 0. -1.
         -4    1    5    5    0  503 -0.10378650344E+03 -0.13476034255E+03 -0.10974242655E+03  0.20242378419E+03  0.00000000000E+00 0.  1.
         -1    1    6    6    0  502  0.24042813191E+03 -0.33641464170E+03  0.87343762794E+03  0.96637145430E+03  0.00000000000E+00 0.  1.
<mgrwt>
<rscale>  0 0.17871955E+04</rscale>
<asrwt>0</asrwt>
<pdfrwt beam="1">  1        1 0.36235462E+00 0.17871955E+04</pdfrwt>
<pdfrwt beam="2">  1       -1 0.52158324E-01 0.17871955E+04</pdfrwt>
<totfact> 0.59680302E+00</totfact>
</mgrwt>
</event>
<event>
12    1  0.1114484E-007  0.1601939E+04  0.7818608E-02  0.8819357E-01
         -1   -1    0    0    0  501 -0.00000000000E+00  0.00000000000E+00  0.77206234931E+03  0.77206234931E+03  0.00000000000E+00 0.  1.
          1   -1    0    0  501    0  0.00000000000E+00 -0.00000000000E+00 -0.83095945494E+03  0.83095945494E+03  0.00000000000E+00 0. -1.
         23    2    1    2    0    0  0.46686971810E+03 -0.20784764405E+03  0.15344687778E+03  0.54120589129E+03  0.90498042229E+02 0.  0.
        254    2    1    2    0    0 -0.46686971810E+03  0.20784764405E+03 -0.21234398341E+03  0.10618159130E+04  0.90619815103E+03 0.  0.
        -24    2    4    4    0    0  0.20414660393E+03 -0.95558941334E+02 -0.21429305212E+03  0.32100538515E+03  0.79470736404E+02 0.  0.
         24    2    4    4    0    0 -0.67101632202E+03  0.30340658539E+03  0.19490687061E+01  0.74081052782E+03  0.80485891830E+02 0.  0.
         13    1    3    3    0    0  0.15617272475E+03 -0.33527882209E+02  0.74762553159E+02  0.17636178213E+03  0.00000000000E+00 0. -1.
        -13    1    3    3    0    0  0.31069699335E+03 -0.17431976184E+03  0.78684324619E+02  0.36484410916E+03  0.00000000000E+00 0.  1.
          2    1    6    6  502    0 -0.33442361119E+03  0.19277879399E+03 -0.12476262453E+02  0.38621039895E+03  0.00000000000E+00 0. -1.
          3    1    5    5  503    0  0.94503790500E+02 -0.81612210517E+02 -0.85730322872E+02  0.15146355200E+03  0.00000000000E+00 0. -1.
         -4    1    5    5    0  503  0.10964281343E+03 -0.13946730817E+02 -0.12856272924E+03  0.16954183315E+03  0.00000000000E+00 0.  1.
         -1    1    6    6    0  502 -0.33659271084E+03  0.11062779140E+03  0.14425331159E+02  0.35460012887E+03  0.00000000000E+00 0.  1.
<mgrwt>
<rscale>  0 0.16019395E+04</rscale>
<asrwt>0</asrwt>
<pdfrwt beam="1">  1        1 0.12783992E+00 0.16019395E+04</pdfrwt>
<pdfrwt beam="2">  1       -1 0.11877882E+00 0.16019395E+04</pdfrwt>
<totfact> 0.12663539E+01</totfact>
</mgrwt>
</event>
<event>
12    1  0.1114484E-007  0.3182156E+04  0.7818608E-02  0.8193546E-01
          2   -1    0    0  501    0  0.00000000000E+00  0.00000000000E+00  0.19253588954E+04  0.19253588954E+04  0.00000000000E+00 0.  1.
         -2   -1    0    0    0  501 -0.00000000000E+00 -0.00000000000E+00 -0.13148350731E+04  0.13148350731E+04  0.00000000000E+00 0. -1.
         23    2    1    2    0    0 -0.97519266940E+03 -0.45662658463E+03 -0.72960898298E+03  0.13037448900E+04  0.88954426397E+02 0.  0.
        254    2    1    2    0    0  0.97519266940E+03  0.45662658463E+03  0.13401328053E+04  0.19364490785E+04  0.89127465880E+03 0.  0.
        -24    2    4    4    0    0  0.12707557327E+03  0.21754803355E+03  0.91946972587E+03  0.95683058466E+03  0.81393136783E+02 0.  0.
         24    2    4    4    0    0  0.84811709613E+03  0.23907855108E+03  0.42066307946E+03  0.97961849383E+03  0.78954446995E+02 0.  0.
         13    1    3    3    0    0 -0.19649377438E+03 -0.12805608039E+03 -0.17885972138E+03  0.29495586624E+03  0.00000000000E+00 0.  1.
        -13    1    3    3    0    0 -0.77869889501E+03 -0.32857050424E+03 -0.55074926160E+03  0.10087890238E+04  0.00000000000E+00 0. -1.
          2    1    6    6  502    0  0.83240333745E+03  0.24195399245E+03  0.40347534049E+03  0.95615344012E+03  0.00000000000E+00 0. -1.
          1    1    5    5  503    0  0.85959496165E+02  0.11971187500E+03  0.66468456811E+03  0.68082710220E+03  0.00000000000E+00 0. -1.
         -2    1    5    5    0  503  0.41116077102E+02  0.97836158548E+02  0.25478515776E+03  0.27600348246E+03  0.00000000000E+00 0.  1.
         -1    1    6    6    0  502  0.15713758675E+02 -0.28754413725E+01  0.17187738968E+02  0.23465053710E+02  0.00000000000E+00 0.  1.
<mgrwt>
<rscale>  0 0.31821561E+04</rscale>
<asrwt>0</asrwt>
<pdfrwt beam="1">  1        2 0.29620906E+00 0.31821561E+04</pdfrwt>
<pdfrwt beam="2">  1       -2 0.20228232E+00 0.31821561E+04</pdfrwt>
<totfact> 0.79664828E-01</totfact>
</mgrwt>
</event>
<event>
12    1  0.1114484E-007  0.1998645E+04  0.7818608E-02  0.8607254E-01
          2   -1    0    0  501    0  0.00000000000E+00  0.00000000000E+00  0.26960766165E+04  0.26960766165E+04  0.00000000000E+00 0. -1.
         -2   -1    0    0    0  501 -0.00000000000E+00 -0.00000000000E+00 -0.37040701241E+03  0.37040701241E+03  0.00000000000E+00 0.  1.
         23    2    1    2    0    0 -0.48185532368E+03 -0.38142117231E+03  0.17529619225E+04  0.18596411572E+04  0.87880988961E+02 0.  0.
        254    2    1    2    0    0  0.48185532368E+03  0.38142117231E+03  0.57270768159E+03  0.12068424717E+04  0.86649177680E+03 0.  0.
        -24    2    4    4    0    0 -0.17943214948E+03  0.34254776454E+03  0.22234411302E+03  0.45317403948E+03  0.79968357551E+02 0.  0.
         24    2    4    4    0    0  0.66128747316E+03  0.38873407768E+02  0.35036356857E+03  0.75366843220E+03  0.80306983029E+02 0.  0.
         11    1    3    3    0    0 -0.15375130859E+03 -0.11357843565E+03  0.67214501767E+03  0.69879786113E+03  0.00000000000E+00 0.  1.
        -11    1    3    3    0    0 -0.32810401509E+03 -0.26784273667E+03  0.10808169048E+04  0.11608432961E+04  0.00000000000E+00 0. -1.
          4    1    6    6  502    0  0.45782439034E+02 -0.17624735551E+02  0.21954390706E+02  0.53746239853E+02  0.00000000000E+00 0. -1.
          3    1    5    5  503    0 -0.14262646004E+03  0.21706864794E+03  0.17889085769E+03  0.31537762125E+03  0.00000000000E+00 0. -1.
         -4    1    5    5    0  503 -0.36805689434E+02  0.12547911660E+03  0.43453255326E+02  0.13779641823E+03  0.00000000000E+00 0.  1.
         -3    1    6    6    0  502  0.61550503413E+03  0.56498143319E+02  0.32840917786E+03  0.69992219235E+03  0.00000000000E+00 0.  1.
<mgrwt>
<rscale>  0 0.19986452E+04</rscale>
<asrwt>0</asrwt>
<pdfrwt beam="1">  1        2 0.41478101E+00 0.19986452E+04</pdfrwt>
<pdfrwt beam="2">  1       -2 0.56985696E-01 0.19986452E+04</pdfrwt>
<totfact> 0.71698252E+00</totfact>
</mgrwt>
</event>
<event>
12    1  0.1114484E-007  0.1814965E+04  0.7818608E-02  0.8698382E-01
         -1   -1    0    0    0  501 -0.00000000000E+00  0.00000000000E+00  0.11337539733E+04  0.11337539733E+04  0.00000000000E+00 0.  1.
          1   -1    0    0  501    0  0.00000000000E+00 -0.00000000000E+00 -0.72636927126E+03  0.72636927126E+03  0.00000000000E+00 0. -1.
         23    2    1    2    0    0  0.45564604093E+03 -0.44120935361E+03  0.40987368323E+03  0.76093234922E+03  0.93501847857E+02 0.  0.
        254    2    1    2    0    0 -0.45564604093E+03  0.44120935361E+03 -0.24889812176E+01  0.10991908953E+04  0.89773906065E+03 0.  0.
        -24    2    4    4    0    0  0.12971695209E+03  0.28988014079E+03 -0.27828551303E+03  0.42966358878E+03  0.79441733857E+02 0.  0.
         24    2    4    4    0    0 -0.58536299302E+03  0.15132921282E+03  0.27579653181E+03  0.66952730655E+03  0.81564226272E+02 0.  0.
         11    1    3    3    0    0  0.17647887909E+03 -0.11482768485E+03  0.15576798564E+03  0.26190429038E+03  0.00000000000E+00 0. -1.
        -11    1    3    3    0    0  0.27916716184E+03 -0.32638166876E+03  0.25410569759E+03  0.49902805883E+03  0.00000000000E+00 0.  1.
          2    1    6    6  502    0 -0.49499613815E+03  0.11860609640E+03  0.19907996351E+03  0.54655412793E+03  0.00000000000E+00 0. -1.
          1    1    5    5  503    0  0.12716594734E+03  0.25406212502E+03 -0.27177945650E+03  0.39317021061E+03  0.00000000000E+00 0. -1.
         -2    1    5    5    0  503  0.25510047474E+01  0.35818015767E+02 -0.65060565258E+01  0.36493378170E+02  0.00000000000E+00 0.  1.
         -1    1    6    6    0  502 -0.90366854864E+02  0.32723116426E+02  0.76716568307E+02  0.12297317862E+03  0.00000000000E+00 0.  1.
<mgrwt>
<rscale>  0 0.18149645E+04</rscale>
<asrwt>0</asrwt>
<pdfrwt beam="1">  1        1 0.11174912E+00 0.18149645E+04</pdfrwt>
<pdfrwt beam="2">  1       -1 0.17442369E+00 0.18149645E+04</pdfrwt>
<totfact> 0.55401210E+00</totfact>
</mgrwt>
</event>
<event>
12    1  0.1114484E-007  0.2079383E+04  0.7818608E-02  0.8570380E-01
         -2   -1    0    0    0  501 -0.00000000000E+00  0.00000000000E+00  0.40090735247E+03  0.40090735247E+03  0.00000000000E+00 0.  1.
          2   -1    0    0  501    0  0.00000000000E+00 -0.00000000000E+00 -0.26962804977E+04  0.26962804977E+04  0.00000000000E+00 0. -1.
         23    2    1    2    0    0 -0.65094894946E+03  0.17460748113E+03 -0.16774405254E+04  0.18102552273E+04  0.94841786138E+02 0.  0.
        254    2    1    2    0    0  0.65094894946E+03 -0.17460748113E+03 -0.61793261980E+03  0.12869326228E+04  0.90561169707E+03 0.  0.
        -24    2    4    4    0    0 -0.13246781935E+03  0.15265275196E+03  0.25230821711E+02  0.21873026278E+03  0.79722943067E+02 0.  0.
         24    2    4    4    0    0  0.78341676881E+03 -0.32726023308E+03 -0.64316344151E+03  0.10682023601E+04  0.80968980153E+02 0.  0.
         13    1    3    3    0    0 -0.30891527103E+02 -0.54303687157E+01 -0.12552748224E+03  0.12938672323E+03  0.00000000000E+00 0.  1.
        -13    1    3    3    0    0 -0.62005742236E+03  0.18003784984E+03 -0.15519130432E+04  0.16808685041E+04  0.00000000000E+00 0. -1.
          2    1    6    6  502    0  0.44842402541E+03 -0.14926428524E+03 -0.33210273634E+03  0.57762977840E+03  0.00000000000E+00 0. -1.
          1    1    5    5  503    0 -0.17489251594E+02 -0.57958086356E+01 -0.81286632129E+01  0.20138035771E+02  0.00000000000E+00 0. -1.
         -2    1    5    5    0  503 -0.11497856775E+03  0.15844856059E+03  0.33359484924E+02  0.19859222701E+03  0.00000000000E+00 0.  1.
         -1    1    6    6    0  502  0.33499274340E+03 -0.17799594785E+03 -0.31106070517E+03  0.49057258167E+03  0.00000000000E+00 0.  1.
<mgrwt>
<rscale>  0 0.20793833E+04</rscale>
<asrwt>0</asrwt>
<pdfrwt beam="1">  1        2 0.41481238E+00 0.20793833E+04</pdfrwt>
<pdfrwt beam="2">  1       -2 0.61678055E-01 0.20793833E+04</pdfrwt>
<totfact> 0.60231914E+00</totfact>
</mgrwt>
</event>
<event>
12    1  0.1114484E-007  0.3514197E+04  0.7818608E-02  0.8110434E-01
          1   -1    0    0  501    0  0.00000000000E+00  0.00000000000E+00  0.25539981650E+04  0.25539981650E+04  0.00000000000E+00 0. -1.
         -1   -1    0    0    0  501 -0.00000000000E+00 -0.00000000000E+00 -0.12088478822E+04  0.12088478822E+04  0.00000000000E+00 0.  1.
         23    2    1    2    0    0 -0.91848395943E+03 -0.10792406216E+04 -0.25512587812E+03  0.14428411791E+04  0.91259802464E+02 0.  0.
        254    2    1    2    0    0  0.91848395943E+03  0.10792406216E+04  0.16002761610E+04  0.23200048681E+04  0.90175700362E+03 0.  0.
        -24    2    4    4    0    0 -0.18287332899E+02  0.27468128854E+02 -0.86516027771E+02  0.12114049020E+03  0.78109350646E+02 0.  0.
         24    2    4    4    0    0  0.93677129233E+03  0.10517724927E+04  0.16867921887E+04  0.21988643779E+04  0.77271170204E+02 0.  0.
         13    1    3    3    0    0 -0.22823968721E+03 -0.32772453385E+03 -0.57658379609E+02  0.40351110721E+03  0.00000000000E+00 0.  1.
        -13    1    3    3    0    0 -0.69024427222E+03 -0.75151608771E+03 -0.19746749851E+03  0.10393300719E+04  0.00000000000E+00 0. -1.
          2    1    6    6  502    0  0.82365334370E+03  0.94318284309E+03  0.14648397937E+04  0.19271103568E+04  0.00000000000E+00 0. -1.
          3    1    5    5  503    0 -0.30015144776E+02  0.36643174280E+01 -0.89468963252E+02  0.94440624329E+02  0.00000000000E+00 0. -1.
         -4    1    5    5    0  503  0.11727811877E+02  0.23803811426E+02  0.29529354808E+01  0.26699865876E+02  0.00000000000E+00 0.  1.
         -1    1    6    6    0  502  0.11311794863E+03  0.10858964961E+03  0.22195239500E+03  0.27175402104E+03  0.00000000000E+00 0.  1.
<mgrwt>
<rscale>  0 0.35141971E+04</rscale>
<asrwt>0</asrwt>
<pdfrwt beam="1">  1        1 0.39292279E+00 0.35141971E+04</pdfrwt>
<pdfrwt beam="2">  1       -1 0.18597660E+00 0.35141971E+04</pdfrwt>
<totfact> 0.19094681E-01</totfact>
</mgrwt>
</event>
<event>
12    1  0.1114484E-007  0.1574802E+04  0.7818608E-02  0.8836180E-01
          1   -1    0    0  501    0  0.00000000000E+00  0.00000000000E+00  0.36907346367E+04  0.36907346367E+04  0.00000000000E+00 0. -1.
         -1   -1    0    0    0  501 -0.00000000000E+00 -0.00000000000E+00 -0.16798826676E+03  0.16798826676E+03  0.00000000000E+00 0.  1.
         23    2    1    2    0    0 -0.14925459059E+03  0.50396699122E+03  0.11545000622E+04  0.12716857606E+04  0.89747530381E+02 0.  0.
        254    2    1    2    0    0  0.14925459059E+03 -0.50396699122E+03  0.23682463078E+04  0.25870371428E+04  0.89883866350E+03 0.  0.
        -24    2    4    4    0    0 -0.90551223924E+02  0.60698511337E+02  0.59154648638E+00  0.14006745321E+03  0.87947189208E+02 0.  0.
         24    2    4    4    0    0  0.23980581452E+03 -0.56466550255E+03  0.23676547613E+04  0.24469696896E+04  0.74280783239E+02 0.  0.
         11    1    3    3    0    0 -0.34292902897E+01  0.12113105440E+03  0.31660676027E+03  0.33900491593E+03  0.00000000000E+00 0. -1.
        -11    1    3    3    0    0 -0.14582530030E+03  0.38283593682E+03  0.83789330190E+03  0.93268084471E+03  0.00000000000E+00 0.  1.
          2    1    6    6  502    0  0.24097289958E+03 -0.55367302572E+03  0.23481784677E+04  0.24245749884E+04  0.00000000000E+00 0. -1.
          3    1    5    5  503    0 -0.25774659840E+02 -0.16547801813E+02 -0.20782877214E+02  0.37014737876E+02  0.00000000000E+00 0. -1.
         -2    1    5    5    0  503 -0.64776564084E+02  0.77246313150E+02  0.21374423700E+02  0.10305271534E+03  0.00000000000E+00 0.  1.
         -1    1    6    6    0  502 -0.11670850596E+01 -0.10992476828E+02  0.19476293558E+02  0.22394701273E+02  0.00000000000E+00 0.  1.
<mgrwt>
<rscale>  0 0.15748017E+04</rscale>
<asrwt>0</asrwt>
<pdfrwt beam="1">  1        1 0.56780527E+00 0.15748017E+04</pdfrwt>
<pdfrwt beam="2">  1       -1 0.25844352E-01 0.15748017E+04</pdfrwt>
<totfact> 0.22613862E+00</totfact>
</mgrwt>
</event>
<event>
12    1  0.1114484E-007  0.1917985E+04  0.7818608E-02  0.8645955E-01
         -1   -1    0    0    0  501 -0.00000000000E+00  0.00000000000E+00  0.49140436462E+03  0.49140436462E+03  0.00000000000E+00 0.  1.
          1   -1    0    0  501    0  0.00000000000E+00 -0.00000000000E+00 -0.18715073135E+04  0.18715073135E+04  0.00000000000E+00 0. -1.
         23    2    1    2    0    0 -0.50050962758E+03 -0.54404697429E+03 -0.65944552177E+03  0.99483240876E+03  0.91247618031E+02 0.  0.
        254    2    1    2    0    0  0.50050962758E+03  0.54404697429E+03 -0.72065742710E+03  0.13680792694E+04  0.89766183080E+03 0.  0.
        -24    2    4    4    0    0  0.74394207721E+03  0.37037396947E+03 -0.40696958889E+03  0.92860781458E+03  0.77855863731E+02 0.  0.
         24    2    4    4    0    0 -0.24343244963E+03  0.17367300482E+03 -0.31368783821E+03  0.43947145477E+03  0.72893275277E+02 0.  0.
         13    1    3    3    0    0 -0.47577104142E+03 -0.48179011027E+03 -0.58662596977E+03  0.89588493827E+03  0.00000000000E+00 0. -1.
        -13    1    3    3    0    0 -0.24738586162E+02 -0.62256864019E+02 -0.72819551995E+02  0.98947470486E+02  0.00000000000E+00 0.  1.
          2    1    6    6  502    0 -0.10299167510E+03  0.34325961880E+02 -0.13150209460E+03  0.17052377454E+03  0.00000000000E+00 0. -1.
          1    1    5    5  503    0  0.44430469583E+03  0.26305975584E+03 -0.25733219137E+03  0.57691156566E+03  0.00000000000E+00 0. -1.
         -2    1    5    5    0  503  0.29963738138E+03  0.10731421362E+03 -0.14963739752E+03  0.35169624892E+03  0.00000000000E+00 0.  1.
         -1    1    6    6    0  502 -0.14044077454E+03  0.13934704294E+03 -0.18218574361E+03  0.26894768023E+03  0.00000000000E+00 0.  1.
<mgrwt>
<rscale>  0 0.19179853E+04</rscale>
<asrwt>0</asrwt>
<pdfrwt beam="1">  1        1 0.28792420E+00 0.19179853E+04</pdfrwt>
<pdfrwt beam="2">  1       -1 0.75600671E-01 0.19179853E+04</pdfrwt>
<totfact> 0.59829337E+00</totfact>
</mgrwt>
</event>
<event>
12    1  0.1114484E-007  0.1160602E+04  0.7818608E-02  0.9148058E-01
         -1   -1    0    0    0  501 -0.00000000000E+00  0.00000000000E+00  0.20602218007E+03  0.20602218007E+03  0.00000000000E+00 0.  1.
          1   -1    0    0  501    0  0.00000000000E+00 -0.00000000000E+00 -0.16345281090E+04  0.16345281090E+04  0.00000000000E+00 0. -1.
         23    2    1    2    0    0 -0.47927771450E+02  0.16938194710E+03 -0.94068108923E+02  0.21981419790E+03  0.92098627581E+02 0.  0.
        254    2    1    2    0    0  0.47927771450E+02 -0.16938194710E+03 -0.13344378201E+04  0.16207360912E+04  0.90281441420E+03 0.  0.
        -24    2    4    4    0    0 -0.63698716047E+02 -0.47555118554E+03 -0.40559905864E+03  0.63331352510E+03  0.79805815667E+02 0.  0.
         24    2    4    4    0    0  0.11162648750E+03  0.30616923844E+03 -0.92883876141E+03  0.98742256611E+03  0.77857588470E+02 0.  0.
         11    1    3    3    0    0 -0.85480413025E+01  0.10459361693E+03 -0.81965301585E+01  0.10526194383E+03  0.00000000000E+00 0. -1.
        -11    1    3    3    0    0 -0.39379730147E+02  0.64788330174E+02 -0.85871578764E+02  0.11455225407E+03  0.00000000000E+00 0.  1.
          4    1    6    6  502    0  0.46587717225E+02  0.93024634173E+02 -0.40507481635E+03  0.41822195639E+03  0.00000000000E+00 0. -1.
          1    1    5    5  503    0 -0.17620703128E+02 -0.33908464545E+03 -0.31497900185E+03  0.46314215697E+03  0.00000000000E+00 0. -1.
         -2    1    5    5    0  503 -0.46078012919E+02 -0.13646654009E+03 -0.90620056786E+02  0.17017136813E+03  0.00000000000E+00 0.  1.
         -3    1    6    6    0  502  0.65038770271E+02  0.21314460426E+03 -0.52376394506E+03  0.56920060972E+03  0.00000000000E+00 0.  1.
<mgrwt>
<rscale>  0 0.11606016E+04</rscale>
<asrwt>0</asrwt>
<pdfrwt beam="1">  1        1 0.25146587E+00 0.11606016E+04</pdfrwt>
<pdfrwt beam="2">  1       -1 0.31695719E-01 0.11606016E+04</pdfrwt>
<totfact> 0.48568978E+01</totfact>
</mgrwt>
</event>
<event>
12    1  0.1114484E-007  0.1700375E+04  0.7818608E-02  0.8761151E-01
         -1   -1    0    0    0  501 -0.00000000000E+00  0.00000000000E+00  0.76346031494E+03  0.76346031494E+03  0.00000000000E+00 0.  1.
          1   -1    0    0  501    0  0.00000000000E+00 -0.00000000000E+00 -0.94676658458E+03  0.94676658458E+03  0.00000000000E+00 0. -1.
         23    2    1    2    0    0 -0.43711917599E+03 -0.24848030562E+03  0.27619602398E+03  0.58272687976E+03  0.10232661649E+03 0.  0.
        254    2    1    2    0    0  0.43711917599E+03  0.24848030562E+03 -0.45950229362E+03  0.11275000198E+04  0.89849780213E+03 0.  0.
        -24    2    4    4    0    0  0.44630111476E+03  0.35062776547E+03 -0.66892384188E+03  0.88088593665E+03  0.79852440130E+02 0.  0.
         24    2    4    4    0    0 -0.91819387698E+01 -0.10214745985E+03  0.20942154826E+03  0.24661408312E+03  0.80266490889E+02 0.  0.
         11    1    3    3    0    0 -0.42182076774E+03 -0.22439538785E+03  0.28023233944E+03  0.55390993334E+03  0.00000000000E+00 0.  1.
        -11    1    3    3    0    0 -0.15298408250E+02 -0.24084917764E+02 -0.40363154620E+01  0.28816946424E+02  0.00000000000E+00 0. -1.
          2    1    6    6  502    0 -0.39865324681E+02 -0.30071485692E+02  0.10304277655E+03  0.11450481284E+03  0.00000000000E+00 0. -1.
          1    1    5    5  503    0  0.18170192933E+03  0.15627035529E+03 -0.22481627785E+03  0.32860062972E+03  0.00000000000E+00 0. -1.
         -2    1    5    5    0  503  0.26459918543E+03  0.19435741017E+03 -0.44410756403E+03  0.55228530693E+03  0.00000000000E+00 0.  1.
         -1    1    6    6    0  502  0.30683385912E+02 -0.72075974159E+02  0.10637877171E+03  0.13210927028E+03  0.00000000000E+00 0.  1.
<mgrwt>
<rscale>  0 0.17003749E+04</rscale>
<asrwt>0</asrwt>
<pdfrwt beam="1">  1        1 0.14565640E+00 0.17003749E+04</pdfrwt>
<pdfrwt beam="2">  1       -1 0.11745543E+00 0.17003749E+04</pdfrwt>
<totfact> 0.10352115E+01</totfact>
</mgrwt>
</event>
<event>
12    1  0.1159859E-007  0.2238910E+04  0.7818608E-02  0.8502405E-01
         -2   -1    0    0    0  501 -0.00000000000E+00  0.00000000000E+00  0.10008048131E+04  0.10008048131E+04  0.00000000000E+00 0.  1.
          2   -1    0    0  501    0  0.00000000000E+00 -0.00000000000E+00 -0.12521713345E+04  0.12521713345E+04  0.00000000000E+00 0. -1.
         23    2    1    2    0    0  0.38120158130E+03  0.15077872089E+03 -0.94922846429E+03  0.10380412163E+04  0.91902235931E+02 0.  0.
        254    2    1    2    0    0 -0.38120158130E+03 -0.15077872089E+03  0.69786194296E+03  0.12149349313E+04  0.90609421570E+03 0.  0.
        -24    2    4    4    0    0 -0.33428807419E+03 -0.46513321735E+03  0.18643066464E+03  0.60742790810E+03  0.78197470522E+02 0.  0.
         24    2    4    4    0    0 -0.46913507109E+02  0.31435449646E+03  0.51143127832E+03  0.60750702324E+03  0.80518347322E+02 0.  0.
         13    1    3    3    0    0  0.35269353967E+03  0.10899070871E+03 -0.84851284425E+03  0.92533548207E+03  0.00000000000E+00 0. -1.
        -13    1    3    3    0    0  0.28508041626E+02  0.41788012180E+02 -0.10071562003E+03  0.11270573418E+03  0.00000000000E+00 0.  1.
          2    1    6    6  502    0 -0.65468144792E+02  0.17531384417E+03  0.27622735648E+03  0.33365037750E+03  0.00000000000E+00 0. -1.
          3    1    5    5  503    0 -0.14871357437E+03 -0.26715456802E+03  0.80935355197E+02  0.31628756241E+03  0.00000000000E+00 0. -1.
         -4    1    5    5    0  503 -0.18557449982E+03 -0.19797864933E+03  0.10549530944E+03  0.29114034569E+03  0.00000000000E+00 0.  1.
         -1    1    6    6    0  502  0.18554637683E+02  0.13904065229E+03  0.23520392183E+03  0.27385664574E+03  0.00000000000E+00 0.  1.
<mgrwt>
<rscale>  0 0.22389096E+04</rscale>
<asrwt>0</asrwt>
<pdfrwt beam="1">  1        2 0.19264174E+00 0.22389096E+04</pdfrwt>
<pdfrwt beam="2">  1       -2 0.15396997E+00 0.22389096E+04</pdfrwt>
<totfact> 0.44911256E+00</totfact>
</mgrwt>
</event>
<event>
12    1  0.1231336E-007  0.1587023E+04  0.7818608E-02  0.8828560E-01
          2   -1    0    0  501    0  0.00000000000E+00  0.00000000000E+00  0.95121337076E+03  0.95121337076E+03  0.00000000000E+00 0. -1.
         -2   -1    0    0    0  501 -0.00000000000E+00 -0.00000000000E+00 -0.66195540122E+03  0.66195540122E+03  0.00000000000E+00 0.  1.
         23    2    1    2    0    0  0.68925677003E+01  0.27333120713E+03 -0.37160042297E+03  0.47046728481E+03  0.92169059073E+02 0.  0.
        254    2    1    2    0    0 -0.68925677003E+01 -0.27333120713E+03  0.66085839250E+03  0.11427014872E+04  0.89122130673E+03 0.  0.
        -24    2    4    4    0    0  0.33700571052E+03 -0.14651556433E+03  0.66843643804E+03  0.76705173184E+03  0.80755359559E+02 0.  0.
         24    2    4    4    0    0 -0.34389827822E+03 -0.12681564280E+03 -0.75780455397E+01  0.37564975533E+03  0.81896757495E+02 0.  0.
         13    1    3    3    0    0  0.11521358504E+02  0.27538615853E+03 -0.33636489633E+03  0.43486966035E+03  0.00000000000E+00 0.  1.
        -13    1    3    3    0    0 -0.46287908036E+01 -0.20549514076E+01 -0.35235526638E+02  0.35597624458E+02  0.00000000000E+00 0. -1.
          4    1    6    6  502    0 -0.24197057935E+03 -0.55721889626E+02 -0.27384350883E+02  0.24980911297E+03  0.00000000000E+00 0. -1.
          1    1    5    5  503    0  0.21121436328E+03 -0.12094417637E+03  0.49142966393E+03  0.54839959486E+03  0.00000000000E+00 0. -1.
         -2    1    5    5    0  503  0.12579134724E+03 -0.25571387952E+02  0.17700677412E+03  0.21865213698E+03  0.00000000000E+00 0.  1.
         -3    1    6    6    0  502 -0.10192769887E+03 -0.71093753175E+02  0.19806305343E+02  0.12584064236E+03  0.00000000000E+00 0.  1.
<mgrwt>
<rscale>  0 0.15870234E+04</rscale>
<asrwt>0</asrwt>
<pdfrwt beam="1">  1        2 0.14634052E+00 0.15870234E+04</pdfrwt>
<pdfrwt beam="2">  1       -2 0.10183929E+00 0.15870234E+04</pdfrwt>
<totfact> 0.20577691E+01</totfact>
</mgrwt>
</event>
<event>
12    1  0.1114484E-007  0.2537724E+04  0.7818608E-02  0.8389668E-01
         -1   -1    0    0    0  501 -0.00000000000E+00  0.00000000000E+00  0.74381402743E+03  0.74381402743E+03  0.00000000000E+00 0.  1.
          1   -1    0    0  501    0  0.00000000000E+00 -0.00000000000E+00 -0.21645333300E+04  0.21645333300E+04  0.00000000000E+00 0. -1.
         23    2    1    2    0    0  0.10151214642E+03 -0.59863519137E+03  0.43911792896E+03  0.75233461331E+03  0.67186357484E+02 0.  0.
        254    2    1    2    0    0 -0.10151214642E+03  0.59863519137E+03 -0.18598372315E+04  0.21560127441E+04  0.90594018389E+03 0.  0.
        -24    2    4    4    0    0  0.18217985710E+03  0.67748453040E+03 -0.87146073957E+03  0.11215193178E+04  0.78657295991E+02 0.  0.
         24    2    4    4    0    0 -0.28369200351E+03 -0.78849339029E+02 -0.98837649197E+03  0.10344934264E+04  0.81179974214E+02 0.  0.
         13    1    3    3    0    0  0.21310567285E+02 -0.60124668363E+02  0.25963483689E+02  0.68871028082E+02  0.00000000000E+00 0. -1.
        -13    1    3    3    0    0  0.80201579132E+02 -0.53851052301E+03  0.41315444527E+03  0.68346358523E+03  0.00000000000E+00 0.  1.
          4    1    6    6  502    0 -0.10757796543E+03 -0.36883531181E+02 -0.25692836743E+03  0.28097259566E+03  0.00000000000E+00 0. -1.
          1    1    5    5  503    0  0.12797252004E+03  0.32477487049E+03 -0.42690423784E+03  0.55145526625E+03  0.00000000000E+00 0. -1.
         -2    1    5    5    0  503  0.54207337055E+02  0.35270965991E+03 -0.44455650174E+03  0.57006405151E+03  0.00000000000E+00 0.  1.
         -3    1    6    6    0  502 -0.17611403808E+03 -0.41965807847E+02 -0.73144812453E+03  0.75352083071E+03  0.00000000000E+00 0.  1.
<mgrwt>
<rscale>  0 0.25377236E+04</rscale>
<asrwt>0</asrwt>
<pdfrwt beam="1">  1        1 0.33300512E+00 0.25377236E+04</pdfrwt>
<pdfrwt beam="2">  1       -1 0.11443293E+00 0.25377236E+04</pdfrwt>
<totfact> 0.14163244E+00</totfact>
</mgrwt>
</event>
<event>
12    1  0.1182561E-007  0.1567056E+04  0.7818608E-02  0.8841046E-01
         -1   -1    0    0    0  501 -0.00000000000E+00  0.00000000000E+00  0.11282817331E+04  0.11282817331E+04  0.00000000000E+00 0.  1.
          1   -1    0    0  501    0  0.00000000000E+00 -0.00000000000E+00 -0.54411590009E+03  0.54411590009E+03  0.00000000000E+00 0. -1.
         23    2    1    2    0    0  0.16520514408E+03 -0.49294591877E+03  0.20556388727E+03  0.56636793110E+03  0.90706687554E+02 0.  0.
        254    2    1    2    0    0 -0.16520514408E+03  0.49294591877E+03  0.37860194574E+03  0.11060297021E+04  0.89981878737E+03 0.  0.
        -24    2    4    4    0    0 -0.17396244717E+03  0.10723111201E+03  0.60998210197E+03  0.64909614642E+03  0.86522818742E+02 0.  0.
         24    2    4    4    0    0  0.87573030939E+01  0.38571480677E+03 -0.23138015624E+03  0.45693355566E+03  0.79993093910E+02 0.  0.
         13    1    3    3    0    0  0.78024633329E+02 -0.23188753094E+03  0.48327498445E+02  0.24938969008E+03  0.00000000000E+00 0.  1.
        -13    1    3    3    0    0  0.87180510749E+02 -0.26105838784E+03  0.15723638882E+03  0.31697824102E+03  0.00000000000E+00 0. -1.
          4    1    6    6  502    0  0.25292590310E+02  0.13750685650E+03 -0.47759963870E+02  0.14774594701E+03  0.00000000000E+00 0. -1.
          1    1    5    5  503    0 -0.81222522978E+02  0.36417876636E+01  0.18892353947E+03  0.20567562962E+03  0.00000000000E+00 0. -1.
         -2    1    5    5    0  503 -0.92739924193E+02  0.10358932434E+03  0.42105856251E+03  0.44342051680E+03  0.00000000000E+00 0.  1.
         -3    1    6    6    0  502 -0.16535287216E+02  0.24820795027E+03 -0.18362019237E+03  0.30918760865E+03  0.00000000000E+00 0.  1.
<mgrwt>
<rscale>  0 0.15670559E+04</rscale>
<asrwt>0</asrwt>
<pdfrwt beam="1">  1        1 0.83710139E-01 0.15670559E+04</pdfrwt>
<pdfrwt beam="2">  1       -1 0.17358180E+00 0.15670559E+04</pdfrwt>
<totfact> 0.87765641E+00</totfact>
</mgrwt>
</event>
<event>
12    1  0.1114484E-007  0.1722239E+04  0.7818608E-02  0.8748781E-01
         -2   -1    0    0    0  501 -0.00000000000E+00  0.00000000000E+00  0.87561609742E+03  0.87561609742E+03  0.00000000000E+00 0.  1.
          2   -1    0    0  501    0  0.00000000000E+00 -0.00000000000E+00 -0.84686327627E+03  0.84686327627E+03  0.00000000000E+00 0. -1.
         23    2    1    2    0    0 -0.33580474740E+03  0.30164905151E+02 -0.45510357801E+03  0.57365356609E+03  0.91018664521E+02 0.  0.
        254    2    1    2    0    0  0.33580474740E+03 -0.30164905151E+02  0.48385639916E+03  0.11488258076E+04  0.98590515331E+03 0.  0.
        -24    2    4    4    0    0  0.28575429929E+03  0.26355318208E+03  0.67787100593E+03  0.78531534115E+03  0.78072306321E+02 0.  0.
         24    2    4    4    0    0  0.50050448105E+02 -0.29371808723E+03 -0.19401460677E+03  0.36351046645E+03  0.75649385071E+02 0.  0.
         13    1    3    3    0    0 -0.20717117592E+03  0.94324754045E+01 -0.20478061972E+03  0.29145148814E+03  0.00000000000E+00 0.  1.
        -13    1    3    3    0    0 -0.12863357148E+03  0.20732429746E+02 -0.25032295828E+03  0.28220207795E+03  0.00000000000E+00 0. -1.
          4    1    6    6  502    0 -0.17085461931E+02 -0.34710087523E+02 -0.35539455482E+02  0.52533380637E+02  0.00000000000E+00 0. -1.
          1    1    5    5  503    0  0.10927913042E+02 -0.34833151939E+01  0.95207224028E+01  0.14906271273E+02  0.00000000000E+00 0. -1.
         -2    1    5    5    0  503  0.27482638625E+03  0.26703649727E+03  0.66835028353E+03  0.77040906987E+03  0.00000000000E+00 0.  1.
         -3    1    6    6    0  502  0.67135910036E+02 -0.25900799971E+03 -0.15847515129E+03  0.31097708582E+03  0.00000000000E+00 0.  1.
<mgrwt>
<rscale>  0 0.17222394E+04</rscale>
<asrwt>0</asrwt>
<pdfrwt beam="1">  1        2 0.13028666E+00 0.17222394E+04</pdfrwt>
<pdfrwt beam="2">  1       -2 0.13471017E+00 0.17222394E+04</pdfrwt>
<totfact> 0.12017827E+01</totfact>
</mgrwt>
</event>
<event>
12    1  0.1114484E-007  0.1648215E+04  0.7818608E-02  0.8791463E-01
          2   -1    0    0  501    0  0.00000000000E+00  0.00000000000E+00  0.97352629923E+03  0.97352629923E+03  0.00000000000E+00 0. -1.
         -2   -1    0    0    0  501 -0.00000000000E+00 -0.00000000000E+00 -0.69762179700E+03  0.69762179700E+03  0.00000000000E+00 0.  1.
         23    2    1    2    0    0  0.24422637930E+03  0.29140587515E+03 -0.36013185474E+03  0.53172054018E+03  0.92021039113E+02 0.  0.
        254    2    1    2    0    0 -0.24422637930E+03 -0.29140587515E+03  0.63603635698E+03  0.11394275560E+04  0.86555704588E+03 0.  0.
        -24    2    4    4    0    0 -0.43031565724E+03 -0.42014746858E+03  0.66273965427E+03  0.89835221788E+03  0.78213795577E+02 0.  0.
         24    2    4    4    0    0  0.18608927795E+03  0.12874159343E+03 -0.26703297287E+02  0.24107533816E+03  0.78744113048E+02 0.  0.
         13    1    3    3    0    0  0.92388746993E+02  0.17425344699E+03 -0.15451881164E+03  0.25055140692E+03  0.00000000000E+00 0. -1.
        -13    1    3    3    0    0  0.15183763230E+03  0.11715242815E+03 -0.20561304310E+03  0.28116913326E+03  0.00000000000E+00 0.  1.
          2    1    6    6  502    0  0.72242256708E+02  0.51143389542E+02  0.27998582085E+02  0.92835933490E+02  0.00000000000E+00 0. -1.
          1    1    5    5  503    0 -0.12671963096E+03 -0.15707555491E+03  0.18097430165E+03  0.27107617505E+03  0.00000000000E+00 0. -1.
         -2    1    5    5    0  503 -0.30359602628E+03 -0.26307191367E+03  0.48176535261E+03  0.62727604284E+03  0.00000000000E+00 0.  1.
         -1    1    6    6    0  502  0.11384702124E+03  0.77598203890E+02 -0.54701879372E+02  0.14823940467E+03  0.00000000000E+00 0.  1.
<mgrwt>
<rscale>  0 0.16482150E+04</rscale>
<asrwt>0</asrwt>
<pdfrwt beam="1">  1        2 0.14977328E+00 0.16482150E+04</pdfrwt>
<pdfrwt beam="2">  1       -2 0.10732643E+00 0.16482150E+04</pdfrwt>
<totfact> 0.17458638E+01</totfact>
</mgrwt>
</event>
<event>
12    1  0.1114484E-007  0.1209242E+04  0.7818608E-02  0.9104805E-01
         -1   -1    0    0    0  501 -0.00000000000E+00  0.00000000000E+00  0.12058082674E+03  0.12058082674E+03  0.00000000000E+00 0.  1.
          1   -1    0    0  501    0  0.00000000000E+00 -0.00000000000E+00 -0.30317151783E+04  0.30317151783E+04  0.00000000000E+00 0. -1.
         23    2    1    2    0    0 -0.83454320613E+01  0.25884406247E+03 -0.68572898522E+03  0.73852038410E+03  0.90101174482E+02 0.  0.
        254    2    1    2    0    0  0.83454320613E+01 -0.25884406247E+03 -0.22254053663E+04  0.24137756209E+04  0.89822814963E+03 0.  0.
        -24    2    4    4    0    0  0.34109145605E+03  0.13108558600E+03 -0.59438517819E+03  0.70227436210E+03  0.79804306651E+02 0.  0.
         24    2    4    4    0    0 -0.33274602399E+03 -0.38992964847E+03 -0.16310201881E+04  0.17115012588E+04  0.79023146100E+02 0.  0.
         13    1    3    3    0    0 -0.30137536298E+02  0.24797942635E+03 -0.62874034067E+03  0.67654747281E+03  0.00000000000E+00 0. -1.
        -13    1    3    3    0    0  0.21792104237E+02  0.10864636122E+02 -0.56988644556E+02  0.61972911287E+02  0.00000000000E+00 0.  1.
          4    1    6    6  502    0 -0.61816052902E+02 -0.45417779783E+02 -0.32389157659E+03  0.33285094637E+03  0.00000000000E+00 0. -1.
          3    1    5    5  503    0  0.97182248746E+02  0.75462992972E+02 -0.17462038504E+03  0.21361491439E+03  0.00000000000E+00 0. -1.
         -4    1    5    5    0  503  0.24390920730E+03  0.55622593032E+02 -0.41976479314E+03  0.48865944770E+03  0.00000000000E+00 0.  1.
         -3    1    6    6    0  502 -0.27092997109E+03 -0.34451186869E+03 -0.13071286116E+04  0.13786503125E+04  0.00000000000E+00 0.  1.
<mgrwt>
<rscale>  0 0.12092423E+04</rscale>
<asrwt>0</asrwt>
<pdfrwt beam="1">  1        1 0.46641776E+00 0.12092423E+04</pdfrwt>
<pdfrwt beam="2">  1       -1 0.18550895E-01 0.12092423E+04</pdfrwt>
<totfact> 0.13172467E+01</totfact>
</mgrwt>
</event>
<event>
12    1  0.2086864E-007  0.1720916E+04  0.7818608E-02  0.8749524E-01
         -2   -1    0    0    0  501 -0.00000000000E+00  0.00000000000E+00  0.71343727100E+03  0.71343727100E+03  0.00000000000E+00 0.  1.
          2   -1    0    0  501    0  0.00000000000E+00 -0.00000000000E+00 -0.10377760468E+04  0.10377760468E+04  0.00000000000E+00 0. -1.
         23    2    1    2    0    0 -0.26917151573E+03 -0.29225913477E+03 -0.60728659251E+03  0.73153388424E+03  0.92065800440E+02 0.  0.
        254    2    1    2    0    0  0.26917151573E+03  0.29225913477E+03  0.28294781672E+03  0.10196794336E+04  0.89544289237E+03 0.  0.
        -24    2    4    4    0    0  0.28794477707E+02 -0.30728446365E+03  0.16175798156E+03  0.35756597020E+03  0.80217921284E+02 0.  0.
         24    2    4    4    0    0  0.24037703803E+03  0.59954359843E+03  0.12118983516E+03  0.66211346336E+03  0.80458780689E+02 0.  0.
         11    1    3    3    0    0 -0.25792989281E+03 -0.29378684683E+03 -0.56037900433E+03  0.68327386125E+03  0.00000000000E+00 0. -1.
        -11    1    3    3    0    0 -0.11241622925E+02  0.15277120604E+01 -0.46907588177E+02  0.48260022987E+02  0.00000000000E+00 0.  1.
          2    1    6    6  502    0  0.24275795964E+03  0.54870156056E+03  0.11011350679E+03  0.61002443714E+03  0.00000000000E+00 0. -1.
          1    1    5    5  503    0  0.28604509076E+02 -0.31236162642E+03  0.16042837050E+03  0.35231415762E+03  0.00000000000E+00 0. -1.
         -2    1    5    5    0  503  0.18996863102E+00  0.50771627624E+01  0.13296110611E+01  0.52518125795E+01  0.00000000000E+00 0.  1.
         -1    1    6    6    0  502 -0.23809216171E+01  0.50842037866E+02  0.11076328370E+02  0.52089026218E+02  0.00000000000E+00 0.  1.
<mgrwt>
<rscale>  0 0.17209162E+04</rscale>
<asrwt>0</asrwt>
<pdfrwt beam="1">  1        2 0.15965785E+00 0.17209162E+04</pdfrwt>
<pdfrwt beam="2">  1       -2 0.10975958E+00 0.17209162E+04</pdfrwt>
<totfact> 0.14953882E+01</totfact>
</mgrwt>
</event>
<event>
12    1  0.1114484E-007  0.1844840E+04  0.7818608E-02  0.8682811E-01
         -1   -1    0    0    0  501 -0.00000000000E+00  0.00000000000E+00  0.15689444422E+04  0.15689444422E+04  0.00000000000E+00 0.  1.
          1   -1    0    0  501    0  0.00000000000E+00 -0.00000000000E+00 -0.54231282163E+03  0.54231282163E+03  0.00000000000E+00 0. -1.
         23    2    1    2    0    0  0.40330386967E+03  0.29693258946E+03 -0.13966267552E+03  0.52790991463E+03  0.91434353802E+02 0.  0.
        254    2    1    2    0    0 -0.40330386967E+03 -0.29693258946E+03  0.11662942961E+04  0.15833473492E+04  0.94653233920E+03 0.  0.
        -24    2    4    4    0    0 -0.14316978081E+03  0.26261665265E+03  0.60766991903E+02  0.31456259552E+03  0.76104578087E+02 0.  0.
         24    2    4    4    0    0 -0.26013408887E+03 -0.55954924211E+03  0.11055273042E+04  0.12687847537E+04  0.82819275197E+02 0.  0.
         11    1    3    3    0    0  0.15502761512E+03  0.68464319330E+02 -0.23612386436E+02  0.17110952418E+03  0.00000000000E+00 0. -1.
        -11    1    3    3    0    0  0.24827625456E+03  0.22846827013E+03 -0.11605028908E+03  0.35680039046E+03  0.00000000000E+00 0.  1.
          4    1    6    6  502    0 -0.24508012233E+03 -0.54376809110E+03  0.10306180213E+04  0.11907650940E+04  0.00000000000E+00 0. -1.
          3    1    5    5  503    0 -0.75075388462E+02  0.14924006161E+03  0.71828806618E+02  0.18184687900E+03  0.00000000000E+00 0. -1.
         -4    1    5    5    0  503 -0.68094392347E+02  0.11337659104E+03 -0.11061814715E+02  0.13271571651E+03  0.00000000000E+00 0.  1.
         -3    1    6    6    0  502 -0.15053966534E+02 -0.15781151017E+02  0.74909282841E+02  0.78019659648E+02  0.00000000000E+00 0.  1.
<mgrwt>
<rscale>  0 0.18448400E+04</rscale>
<asrwt>0</asrwt>
<pdfrwt beam="1">  1        1 0.83432742E-01 0.18448400E+04</pdfrwt>
<pdfrwt beam="2">  1       -1 0.24137607E+00 0.18448400E+04</pdfrwt>
<totfact> 0.29534219E+00</totfact>
</mgrwt>
</event>
<event>
12    1  0.1114484E-007  0.1238568E+04  0.7818608E-02  0.9079752E-01
          2   -1    0    0  501    0  0.00000000000E+00  0.00000000000E+00  0.37772042197E+03  0.37772042197E+03  0.00000000000E+00 0. -1.
         -2   -1    0    0    0  501 -0.00000000000E+00 -0.00000000000E+00 -0.10153355210E+04  0.10153355210E+04  0.00000000000E+00 0.  1.
         23    2    1    2    0    0  0.18017849604E+03 -0.20865820889E+03 -0.10433605526E+03  0.30745064350E+03  0.87391917181E+02 0.  0.
        254    2    1    2    0    0 -0.18017849604E+03  0.20865820889E+03 -0.53327904376E+03  0.10856052995E+04  0.90451632884E+03 0.  0.
        -24    2    4    4    0    0 -0.51254384535E+03  0.16951245814E+03 -0.14000298230E+03  0.56418232498E+03  0.85236106785E+02 0.  0.
         24    2    4    4    0    0  0.33236534930E+03  0.39145750753E+02 -0.39327606145E+03  0.52142297448E+03  0.72227021164E+02 0.  0.
         11    1    3    3    0    0  0.18954385975E+03 -0.19715320240E+03 -0.10404836457E+03  0.29261292206E+03  0.00000000000E+00 0. -1.
        -11    1    3    3    0    0 -0.93653637084E+01 -0.11505006492E+02 -0.28769069632E+00  0.14837721446E+02  0.00000000000E+00 0.  1.
          2    1    6    6  502    0  0.33031414043E+03  0.40171918028E+02 -0.39640074861E+03  0.51754687504E+03  0.00000000000E+00 0. -1.
          3    1    5    5  503    0 -0.30842340580E+03  0.83700282388E+02 -0.12182847600E+03  0.34201302911E+03  0.00000000000E+00 0. -1.
         -4    1    5    5    0  503 -0.20412043954E+03  0.85812175751E+02 -0.18174506302E+02  0.22216929587E+03  0.00000000000E+00 0.  1.
         -1    1    6    6    0  502  0.20512088795E+01 -0.10261672752E+01  0.31246871517E+01  0.38760994492E+01  0.00000000000E+00 0.  1.
<mgrwt>
<rscale>  0 0.12385685E+04</rscale>
<asrwt>0</asrwt>
<pdfrwt beam="1">  1        2 0.58110835E-01 0.12385685E+04</pdfrwt>
<pdfrwt beam="2">  1       -2 0.15620546E+00 0.12385685E+04</pdfrwt>
<totfact> 0.22420719E+01</totfact>
</mgrwt>
</event>
<event>
12    1  0.1114484E-007  0.1526521E+04  0.7818608E-02  0.8867006E-01
          1   -1    0    0  501    0  0.00000000000E+00  0.00000000000E+00  0.88987812597E+03  0.88987812597E+03  0.00000000000E+00 0. -1.
         -1   -1    0    0    0  501 -0.00000000000E+00 -0.00000000000E+00 -0.65465921167E+03  0.65465921167E+03  0.00000000000E+00 0.  1.
         23    2    1    2    0    0  0.32823694501E+03  0.30033484727E+02 -0.29080789392E+03  0.44703754927E+03  0.81436091580E+02 0.  0.
        254    2    1    2    0    0 -0.32823694501E+03 -0.30033484727E+02  0.52602680823E+03  0.10974997884E+04  0.90507462688E+03 0.  0.
        -24    2    4    4    0    0  0.23954758298E+03 -0.82292583305E+02 -0.64944757700E+02  0.27308375784E+03  0.78751529931E+02 0.  0.
         24    2    4    4    0    0 -0.56778452799E+03  0.52259098578E+02  0.59097156593E+03  0.82441603053E+03  0.72829362556E+02 0.  0.
         11    1    3    3    0    0  0.30495312644E+03  0.23096411439E+02 -0.23344570954E+03  0.38474245002E+03  0.00000000000E+00 0.  1.
        -11    1    3    3    0    0  0.23283818575E+02  0.69370732887E+01 -0.57362184378E+02  0.62295099244E+02  0.00000000000E+00 0. -1.
          2    1    6    6  502    0 -0.52977455404E+02 -0.50249054898E+01  0.30905332880E+02  0.61538606230E+02  0.00000000000E+00 0. -1.
          1    1    5    5  503    0  0.83043192554E+02  0.71965141987E+01 -0.66895426841E+01  0.83622434953E+02  0.00000000000E+00 0. -1.
         -2    1    5    5    0  503  0.15650439042E+03 -0.89489097504E+02 -0.58255215015E+02  0.18946132289E+03  0.00000000000E+00 0.  1.
         -1    1    6    6    0  502 -0.51480707259E+03  0.57284004068E+02  0.56006623305E+03  0.76287742430E+03  0.00000000000E+00 0.  1.
<mgrwt>
<rscale>  0 0.15265214E+04</rscale>
<asrwt>0</asrwt>
<pdfrwt beam="1">  1        1 0.13690433E+00 0.15265214E+04</pdfrwt>
<pdfrwt beam="2">  1       -1 0.10071680E+00 0.15265214E+04</pdfrwt>
<totfact> 0.16793394E+01</totfact>
</mgrwt>
</event>
<event>
12    1  0.1114484E-007  0.2559859E+04  0.7818608E-02  0.8381965E-01
         -2   -1    0    0    0  501 -0.00000000000E+00  0.00000000000E+00  0.60074020841E+03  0.60074020841E+03  0.00000000000E+00 0.  1.
          2   -1    0    0  501    0  0.00000000000E+00 -0.00000000000E+00 -0.27270023287E+04  0.27270023287E+04  0.00000000000E+00 0. -1.
         23    2    1    2    0    0  0.66120934619E+03 -0.80318183372E+03 -0.14715222514E+04  0.18045980328E+04  0.94326381389E+02 0.  0.
        254    2    1    2    0    0 -0.66120934619E+03  0.80318183372E+03 -0.65473986895E+03  0.15231445043E+04  0.89943650557E+03 0.  0.
        -24    2    4    4    0    0 -0.89591345192E+02  0.68401274635E+03 -0.78112144226E+02  0.69855233152E+03  0.77290403580E+02 0.  0.
         24    2    4    4    0    0 -0.57161800100E+03  0.11916908737E+03 -0.57662772473E+03  0.82459217281E+03  0.80649290660E+02 0.  0.
         11    1    3    3    0    0  0.38673615307E+03 -0.48720905919E+03 -0.95613482251E+03  0.11406714331E+04  0.00000000000E+00 0.  1.
        -11    1    3    3    0    0  0.27447319312E+03 -0.31597277453E+03 -0.51538742885E+03  0.66392659971E+03  0.00000000000E+00 0. -1.
          4    1    6    6  502    0 -0.54240427173E+02  0.56058728972E+01 -0.25540097665E+02  0.60214170588E+02  0.00000000000E+00 0. -1.
          1    1    5    5  503    0 -0.36219994428E+01  0.29814944775E+03 -0.48850875571E+02  0.30214668643E+03  0.00000000000E+00 0. -1.
         -2    1    5    5    0  503 -0.85969345750E+02  0.38586329860E+03 -0.29261268655E+02  0.39640564509E+03  0.00000000000E+00 0.  1.
         -3    1    6    6    0  502 -0.51737757382E+03  0.11356321447E+03 -0.55108762706E+03  0.76437800222E+03  0.00000000000E+00 0.  1.
<mgrwt>
<rscale>  0 0.25598593E+04</rscale>
<asrwt>0</asrwt>
<pdfrwt beam="1">  1        2 0.41953882E+00 0.25598593E+04</pdfrwt>
<pdfrwt beam="2">  1       -2 0.92421571E-01 0.25598593E+04</pdfrwt>
<totfact> 0.22562583E+00</totfact>
</mgrwt>
</event>
<event>
12    1  0.1114484E-007  0.1692417E+04  0.7818608E-02  0.8765701E-01
          1   -1    0    0  501    0  0.00000000000E+00  0.00000000000E+00  0.46424727376E+03  0.46424727376E+03  0.00000000000E+00 0. -1.
         -1   -1    0    0    0  501 -0.00000000000E+00 -0.00000000000E+00 -0.15424305951E+04  0.15424305951E+04  0.00000000000E+00 0.  1.
         23    2    1    2    0    0  0.17024632268E+03  0.57324207075E+03 -0.32224119548E+03  0.68676827147E+03  0.10109890487E+03 0.  0.
        254    2    1    2    0    0 -0.17024632268E+03 -0.57324207075E+03 -0.75594212589E+03  0.13199095974E+04  0.90173309000E+03 0.  0.
        -24    2    4    4    0    0 -0.28667357538E+03 -0.49212736698E+03 -0.29856586764E+02  0.57578960849E+03  0.79190740087E+02 0.  0.
         24    2    4    4    0    0  0.11642725270E+03 -0.81114703765E+02 -0.72608553913E+03  0.74411998893E+03  0.79871443330E+02 0.  0.
         11    1    3    3    0    0  0.11968709198E+03  0.38929643925E+03 -0.27112782223E+03  0.48927192193E+03  0.00000000000E+00 0. -1.
        -11    1    3    3    0    0  0.50559230695E+02  0.18394563150E+03 -0.51113373252E+02  0.19749634954E+03  0.00000000000E+00 0.  1.
          4    1    6    6  502    0  0.69729628443E+02 -0.58900541707E+02 -0.26784264860E+03  0.28296851293E+03  0.00000000000E+00 0. -1.
          3    1    5    5  503    0 -0.24820925320E+03 -0.37830399760E+03 -0.44991326049E+02  0.45469326738E+03  0.00000000000E+00 0. -1.
         -4    1    5    5    0  503 -0.38464322177E+02 -0.11382336938E+03  0.15134739284E+02  0.12109634111E+03  0.00000000000E+00 0.  1.
         -3    1    6    6    0  502  0.46697624255E+02 -0.22214162058E+02 -0.45824289052E+03  0.46115147600E+03  0.00000000000E+00 0.  1.
<mgrwt>
<rscale>  0 0.16924174E+04</rscale>
<asrwt>0</asrwt>
<pdfrwt beam="1">  1        1 0.71422658E-01 0.16924174E+04</pdfrwt>
<pdfrwt beam="2">  1       -1 0.23729701E+00 0.16924174E+04</pdfrwt>
<totfact> 0.39474360E+00</totfact>
</mgrwt>
</event>
<event>
12    1  0.1114484E-007  0.1430169E+04  0.7818608E-02  0.8932266E-01
         -1   -1    0    0    0  501 -0.00000000000E+00  0.00000000000E+00  0.30820965502E+03  0.30820965502E+03  0.00000000000E+00 0.  1.
          1   -1    0    0  501    0  0.00000000000E+00 -0.00000000000E+00 -0.16590845496E+04  0.16590845496E+04  0.00000000000E+00 0. -1.
         23    2    1    2    0    0  0.39109295733E+03  0.17064914164E+03 -0.34456919396E+03  0.55607983056E+03  0.91771551806E+02 0.  0.
        254    2    1    2    0    0 -0.39109295733E+03 -0.17064914164E+03 -0.10063057007E+04  0.14112143741E+04  0.89263655294E+03 0.  0.
        -24    2    4    4    0    0  0.64943578991E+02 -0.36663320947E+03 -0.13342844784E+03  0.40370750436E+03  0.80864204962E+02 0.  0.
         24    2    4    4    0    0 -0.45603653632E+03  0.19598406782E+03 -0.87287725283E+03  0.10075068697E+04  0.82318386582E+02 0.  0.
         13    1    3    3    0    0  0.50268205301E+02  0.43273084566E+02 -0.22143309830E+02  0.69926951044E+02  0.00000000000E+00 0. -1.
        -13    1    3    3    0    0  0.34082475203E+03  0.12737605707E+03 -0.32242588413E+03  0.48615287952E+03  0.00000000000E+00 0.  1.
          4    1    6    6  502    0 -0.42586886218E+03  0.15731266533E+03 -0.79369998954E+03  0.91436931042E+03  0.00000000000E+00 0. -1.
          1    1    5    5  503    0  0.80517638318E+02 -0.32176609501E+03 -0.12943142893E+03  0.35604635201E+03  0.00000000000E+00 0. -1.
         -2    1    5    5    0  503 -0.15574059327E+02 -0.44867114452E+02 -0.39970189086E+01  0.47661152350E+02  0.00000000000E+00 0.  1.
         -1    1    6    6    0  502 -0.30167674144E+02  0.38671402494E+02 -0.79177263284E+02  0.93137559315E+02  0.00000000000E+00 0.  1.
<mgrwt>
<rscale>  0 0.14301690E+04</rscale>
<asrwt>0</asrwt>
<pdfrwt beam="1">  1        1 0.25524379E+00 0.14301690E+04</pdfrwt>
<pdfrwt beam="2">  1       -1 0.47416868E-01 0.14301690E+04</pdfrwt>
<totfact> 0.21949666E+01</totfact>
</mgrwt>
</event>
<event>
12    1  0.1114484E-007  0.1395399E+04  0.7818608E-02  0.8957156E-01
         -1   -1    0    0    0  501 -0.00000000000E+00  0.00000000000E+00  0.39500375162E+03  0.39500375162E+03  0.00000000000E+00 0.  1.
          1   -1    0    0  501    0  0.00000000000E+00 -0.00000000000E+00 -0.12323541354E+04  0.12323541354E+04  0.00000000000E+00 0. -1.
         23    2    1    2    0    0 -0.39536859305E+03 -0.34977224130E+02 -0.27174674303E+03  0.48963175903E+03  0.91396042161E+02 0.  0.
        254    2    1    2    0    0  0.39536859305E+03  0.34977224130E+02 -0.56560364074E+03  0.11377261280E+04  0.90386588235E+03 0.  0.
        -24    2    4    4    0    0  0.67115817900E+03  0.97508415735E+02 -0.47652762743E+03  0.83278860964E+03  0.80604567254E+02 0.  0.
         24    2    4    4    0    0 -0.27578958595E+03 -0.62531191605E+02 -0.89076013308E+02  0.30493751833E+03  0.71290310009E+02 0.  0.
         11    1    3    3    0    0  0.18088964421E+01 -0.30188181427E+01  0.37975107615E+01  0.51774952729E+01  0.00000000000E+00 0. -1.
        -11    1    3    3    0    0 -0.39717748949E+03 -0.31958405987E+02 -0.27554425379E+03  0.48445426375E+03  0.00000000000E+00 0.  1.
          4    1    6    6  502    0 -0.46457569988E+02 -0.17156082881E+02 -0.45257408855E+02  0.67088523946E+02  0.00000000000E+00 0. -1.
          1    1    5    5  503    0  0.26482103628E+03  0.41782119442E+02 -0.14115240565E+03  0.30298502997E+03  0.00000000000E+00 0. -1.
         -2    1    5    5    0  503  0.40633714272E+03  0.55726296293E+02 -0.33537522178E+03  0.52980357967E+03  0.00000000000E+00 0.  1.
         -3    1    6    6    0  502 -0.22933201596E+03 -0.45375108724E+02 -0.43818604453E+02  0.23784899439E+03  0.00000000000E+00 0.  1.
<mgrwt>
<rscale>  0 0.13953989E+04</rscale>
<asrwt>0</asrwt>
<pdfrwt beam="1">  1        1 0.18959294E+00 0.13953989E+04</pdfrwt>
<pdfrwt beam="2">  1       -1 0.60769809E-01 0.13953989E+04</pdfrwt>
<totfact> 0.27107943E+01</totfact>
</mgrwt>
</event>
<event>
12    1  0.1114484E-007  0.1850776E+04  0.7818608E-02  0.8679754E-01
          1   -1    0    0  501    0  0.00000000000E+00  0.00000000000E+00  0.25467179086E+04  0.25467179086E+04  0.00000000000E+00 0. -1.
         -1   -1    0    0    0  501 -0.00000000000E+00 -0.00000000000E+00 -0.33625360919E+03  0.33625360919E+03  0.00000000000E+00 0.  1.
         23    2    1    2    0    0 -0.38965213474E+03  0.25158175395E+03  0.16930345514E+02  0.47277574728E+03  0.90045019793E+02 0.  0.
        254    2    1    2    0    0  0.38965213474E+03 -0.25158175395E+03  0.21935339539E+04  0.24101957705E+04  0.88449436417E+03 0.  0.
        -24    2    4    4    0    0  0.49015041949E+02  0.19180269161E+03  0.15015973316E+04  0.15170381612E+04  0.86136458553E+02 0.  0.
         24    2    4    4    0    0  0.34063709279E+03 -0.44338444556E+03  0.69193662233E+03  0.89315760932E+03  0.79566514415E+02 0.  0.
         11    1    3    3    0    0 -0.55004578532E+02  0.77715818157E+02  0.80730498601E+01  0.95553263604E+02  0.00000000000E+00 0. -1.
        -11    1    3    3    0    0 -0.33464755620E+03  0.17386593579E+03  0.88572956538E+01  0.37722248367E+03  0.00000000000E+00 0.  1.
          2    1    6    6  502    0  0.15556683452E+02 -0.81815316730E+01  0.45568724126E+02  0.48841135112E+02  0.00000000000E+00 0. -1.
          1    1    5    5  503    0  0.60864349191E+02  0.87942141950E+02  0.60651211519E+03  0.61586949528E+03  0.00000000000E+00 0. -1.
         -2    1    5    5    0  503 -0.11849307242E+02  0.10386054966E+03  0.89508521637E+03  0.90116866591E+03  0.00000000000E+00 0.  1.
         -1    1    6    6    0  502  0.32508040933E+03 -0.43520291389E+03  0.64636789821E+03  0.84431647421E+03  0.00000000000E+00 0.  1.
<mgrwt>
<rscale>  0 0.18507761E+04</rscale>
<asrwt>0</asrwt>
<pdfrwt beam="1">  1        1 0.39180274E+00 0.18507761E+04</pdfrwt>
<pdfrwt beam="2">  1       -1 0.51731326E-01 0.18507761E+04</pdfrwt>
<totfact> 0.44463017E+00</totfact>
</mgrwt>
</event>
<event>
12    1  0.1114484E-007  0.1542834E+04  0.7818608E-02  0.8856458E-01
         -2   -1    0    0    0  501 -0.00000000000E+00  0.00000000000E+00  0.47214045177E+03  0.47214045177E+03  0.00000000000E+00 0.  1.
          2   -1    0    0  501    0  0.00000000000E+00 -0.00000000000E+00 -0.12603973341E+04  0.12603973341E+04  0.00000000000E+00 0. -1.
         23    2    1    2    0    0 -0.17955210636E+03 -0.42907332004E+03 -0.45219962358E+02  0.47649392747E+03  0.93052378018E+02 0.  0.
        254    2    1    2    0    0  0.17955210636E+03  0.42907332004E+03 -0.74303692001E+03  0.12560438584E+04  0.89955513280E+03 0.  0.
        -24    2    4    4    0    0 -0.33573970270E+03  0.33244972056E+03 -0.40395676400E+03  0.62670511580E+03  0.79588129272E+02 0.  0.
         24    2    4    4    0    0  0.51529180905E+03  0.96623599486E+02 -0.33908015601E+03  0.62933874264E+03  0.78931187335E+02 0.  0.
         11    1    3    3    0    0 -0.15042517375E+03 -0.35851977315E+03 -0.20530582916E+01  0.38880377529E+03  0.00000000000E+00 0.  1.
        -11    1    3    3    0    0 -0.29126932605E+02 -0.70553546896E+02 -0.43166904066E+02  0.87690152180E+02  0.00000000000E+00 0. -1.
          2    1    6    6  502    0  0.99738883074E+02  0.22121170676E+02 -0.10546715124E+03  0.14683497873E+03  0.00000000000E+00 0. -1.
          3    1    5    5  503    0 -0.49540446539E+02  0.88867135250E+02 -0.10766502403E+03  0.14813298407E+03  0.00000000000E+00 0. -1.
         -2    1    5    5    0  503 -0.28619925616E+03  0.24358258531E+03 -0.29629173997E+03  0.47857213172E+03  0.00000000000E+00 0.  1.
         -1    1    6    6    0  502  0.41555292598E+03  0.74502428809E+02 -0.23361300478E+03  0.48250376391E+03  0.00000000000E+00 0.  1.
<mgrwt>
<rscale>  0 0.15428345E+04</rscale>
<asrwt>0</asrwt>
<pdfrwt beam="1">  1        2 0.19390728E+00 0.15428345E+04</pdfrwt>
<pdfrwt beam="2">  1       -2 0.72636994E-01 0.15428345E+04</pdfrwt>
<totfact> 0.28789702E+01</totfact>
</mgrwt>
</event>
<event>
12    1  0.1114484E-007  0.2955858E+04  0.7818608E-02  0.8256449E-01
          1   -1    0    0  501    0  0.00000000000E+00  0.00000000000E+00  0.79451073312E+03  0.79451073312E+03  0.00000000000E+00 0. -1.
         -1   -1    0    0    0  501 -0.00000000000E+00 -0.00000000000E+00 -0.27492063716E+04  0.27492063716E+04  0.00000000000E+00 0.  1.
         23    2    1    2    0    0 -0.13083536488E+04 -0.26527522934E+03 -0.10012171262E+04  0.16712158359E+04  0.91468129538E+02 0.  0.
        254    2    1    2    0    0  0.13083536488E+04  0.26527522934E+03 -0.95347851234E+03  0.18725012689E+04  0.90276215638E+03 0.  0.
        -24    2    4    4    0    0  0.40393164257E+03  0.92870580999E+02 -0.84135644552E+03  0.94155234400E+03  0.82791493414E+02 0.  0.
         24    2    4    4    0    0  0.90442200620E+03  0.17240464834E+03 -0.11212206682E+03  0.93094892491E+03  0.79950077198E+02 0.  0.
         13    1    3    3    0    0 -0.12599056664E+04 -0.26737670440E+03 -0.97936556003E+03  0.16180264184E+04  0.00000000000E+00 0.  1.
        -13    1    3    3    0    0 -0.48447982337E+02  0.21014750613E+01 -0.21851566157E+02  0.53189417495E+02  0.00000000000E+00 0. -1.
          2    1    6    6  502    0  0.29667975322E+01  0.39098079296E+01  0.42952340890E+01  0.65220795397E+01  0.00000000000E+00 0. -1.
          3    1    5    5  503    0  0.39004853386E+02 -0.28736449311E+01 -0.13755192223E+03  0.14300408292E+03  0.00000000000E+00 0. -1.
         -2    1    5    5    0  503  0.36492678918E+03  0.95744225930E+02 -0.70380452329E+03  0.79854826108E+03  0.00000000000E+00 0.  1.
         -1    1    6    6    0  502  0.90145520867E+03  0.16849484041E+03 -0.11641730091E+03  0.92442684537E+03  0.00000000000E+00 0.  1.
<mgrwt>
<rscale>  0 0.29558579E+04</rscale>
<asrwt>0</asrwt>
<pdfrwt beam="1">  1        1 0.12223242E+00 0.29558579E+04</pdfrwt>
<pdfrwt beam="2">  1       -1 0.42295484E+00 0.29558579E+04</pdfrwt>
<totfact> 0.94924651E-02</totfact>
</mgrwt>
</event>
<event>
12    1  0.1114484E-007  0.1621501E+04  0.7818608E-02  0.8807447E-01
          2   -1    0    0  501    0  0.00000000000E+00  0.00000000000E+00  0.67395856367E+03  0.67395856367E+03  0.00000000000E+00 0. -1.
         -2   -1    0    0    0  501 -0.00000000000E+00 -0.00000000000E+00 -0.97530655110E+03  0.97530655110E+03  0.00000000000E+00 0.  1.
         23    2    1    2    0    0 -0.32673543421E+03  0.32306995037E+03  0.22098928634E+03  0.51840164453E+03  0.93668370226E+02 0.  0.
        254    2    1    2    0    0  0.32673543421E+03 -0.32306995037E+03 -0.52233727377E+03  0.11308634702E+04  0.89156363988E+03 0.  0.
        -24    2    4    4    0    0 -0.90700583280E+02 -0.43035316940E+03 -0.52892926976E+03  0.69255509983E+03  0.80224358386E+02 0.  0.
         24    2    4    4    0    0  0.41743601749E+03  0.10728321903E+03  0.65919959874E+01  0.43830837041E+03  0.79424526315E+02 0.  0.
         11    1    3    3    0    0 -0.27541966558E+02  0.10954566198E+02 -0.57564235920E+01  0.30194351377E+02  0.00000000000E+00 0.  1.
        -11    1    3    3    0    0 -0.29919346765E+03  0.31211538417E+03  0.22674570993E+03  0.48820729316E+03  0.00000000000E+00 0. -1.
          4    1    6    6  502    0  0.59939484376E+02 -0.54155706138E+01 -0.17555090787E+02  0.62691717195E+02  0.00000000000E+00 0. -1.
          1    1    5    5  503    0 -0.89016724923E+02 -0.31148987079E+03 -0.34241355156E+03  0.47137772244E+03  0.00000000000E+00 0. -1.
         -2    1    5    5    0  503 -0.16838583575E+01 -0.11886329860E+03 -0.18651571820E+03  0.22117737739E+03  0.00000000000E+00 0.  1.
         -3    1    6    6    0  502  0.35749653311E+03  0.11269878964E+03  0.24147086774E+02  0.37561665322E+03  0.00000000000E+00 0.  1.
<mgrwt>
<rscale>  0 0.16215008E+04</rscale>
<asrwt>0</asrwt>
<pdfrwt beam="1">  1        2 0.10368593E+00 0.16215008E+04</pdfrwt>
<pdfrwt beam="2">  1       -2 0.15004716E+00 0.16215008E+04</pdfrwt>
<totfact> 0.12310469E+01</totfact>
</mgrwt>
</event>
<event>
12    1  0.1114484E-007  0.1269375E+04  0.7818608E-02  0.9054210E-01
         -2   -1    0    0    0  501 -0.00000000000E+00  0.00000000000E+00  0.59953233960E+03  0.59953233960E+03  0.00000000000E+00 0.  1.
          2   -1    0    0  501    0  0.00000000000E+00 -0.00000000000E+00 -0.67190429246E+03  0.67190429246E+03  0.00000000000E+00 0. -1.
         23    2    1    2    0    0 -0.55399907002E+02  0.34727936608E+02 -0.31343705788E+03  0.33301527440E+03  0.91548918385E+02 0.  0.
        254    2    1    2    0    0  0.55399907002E+02 -0.34727936608E+02  0.24106510502E+03  0.93842135765E+03  0.90457010804E+03 0.  0.
        -24    2    4    4    0    0  0.46720303260E+03  0.59010102267E+02  0.14556719097E+03  0.49923025379E+03  0.79247544849E+02 0.  0.
         24    2    4    4    0    0 -0.41180312560E+03 -0.93738038876E+02  0.95497914055E+02  0.43919110386E+03  0.73487005221E+02 0.  0.
         13    1    3    3    0    0 -0.31713612022E+02  0.44000063864E+02 -0.71496914362E+02  0.89741671317E+02  0.00000000000E+00 0.  1.
        -13    1    3    3    0    0 -0.23686294980E+02 -0.92721272555E+01 -0.24194014352E+03  0.24327360309E+03  0.00000000000E+00 0. -1.
          2    1    6    6  502    0 -0.25375020309E+03 -0.64638527163E+02  0.22924891512E+02  0.26285519856E+03  0.00000000000E+00 0. -1.
          1    1    5    5  503    0  0.14309973133E+02 -0.73366800036E+01 -0.58447952718E+01  0.17110342963E+02  0.00000000000E+00 0. -1.
         -2    1    5    5    0  503  0.45289305947E+03  0.66346782271E+02  0.15141198624E+03  0.48211991082E+03  0.00000000000E+00 0.  1.
         -1    1    6    6    0  502 -0.15805292251E+03 -0.29099511713E+02  0.72573022542E+02  0.17633590530E+03  0.00000000000E+00 0.  1.
<mgrwt>
<rscale>  0 0.12693752E+04</rscale>
<asrwt>0</asrwt>
<pdfrwt beam="1">  1        2 0.10336989E+00 0.12693752E+04</pdfrwt>
<pdfrwt beam="2">  1       -2 0.92235745E-01 0.12693752E+04</pdfrwt>
<totfact> 0.42325636E+01</totfact>
</mgrwt>
</event>
<event>
12    1  0.1114484E-007  0.2320036E+04  0.7818608E-02  0.8470063E-01
          1   -1    0    0  501    0  0.00000000000E+00  0.00000000000E+00  0.30685295420E+04  0.30685295420E+04  0.00000000000E+00 0. -1.
         -1   -1    0    0    0  501 -0.00000000000E+00 -0.00000000000E+00 -0.43852976007E+03  0.43852976007E+03  0.00000000000E+00 0.  1.
         23    2    1    2    0    0 -0.80740361639E+03  0.55638522060E+03  0.98792877375E+03  0.13949705292E+04  0.92056514033E+02 0.  0.
        254    2    1    2    0    0  0.80740361639E+03 -0.55638522060E+03  0.16420710082E+04  0.21120887730E+04  0.89613429536E+03 0.  0.
        -24    2    4    4    0    0  0.35336320425E+02 -0.48898066682E+03  0.94120125191E+03  0.10642393995E+04  0.79968460970E+02 0.  0.
         24    2    4    4    0    0  0.77206729596E+03 -0.67404553786E+02  0.70086975632E+03  0.10478493735E+04  0.78349287186E+02 0.  0.
         11    1    3    3    0    0 -0.70392631701E+03  0.50594509052E+03  0.90419675791E+03  0.12526230364E+04  0.00000000000E+00 0. -1.
        -11    1    3    3    0    0 -0.10347729937E+03  0.50440130085E+02  0.83732015840E+02  0.14234749273E+03  0.00000000000E+00 0.  1.
          4    1    6    6  502    0  0.88724296828E+02 -0.36087623251E+01  0.49606733343E+02  0.10171456143E+03  0.00000000000E+00 0. -1.
          1    1    5    5  503    0 -0.92285259758E+01 -0.19580027022E+02  0.20440580294E+02  0.29771806674E+02  0.00000000000E+00 0. -1.
         -2    1    5    5    0  503  0.44564846401E+02 -0.46940063980E+03  0.92076067161E+03  0.10344675928E+04  0.00000000000E+00 0.  1.
         -3    1    6    6    0  502  0.68334299913E+03 -0.63795791461E+02  0.65126302298E+03  0.94613481205E+03  0.00000000000E+00 0.  1.
<mgrwt>
<rscale>  0 0.23200358E+04</rscale>
<asrwt>0</asrwt>
<pdfrwt beam="1">  1        1 0.47208146E+00 0.23200358E+04</pdfrwt>
<pdfrwt beam="2">  1       -1 0.67466119E-01 0.23200358E+04</pdfrwt>
<totfact> 0.10695972E+00</totfact>
</mgrwt>
</event>
<event>
12    1  0.1114484E-007  0.1459623E+04  0.7818608E-02  0.8911756E-01
         -1   -1    0    0    0  501 -0.00000000000E+00  0.00000000000E+00  0.67536340670E+03  0.67536340670E+03  0.00000000000E+00 0.  1.
          1   -1    0    0  501    0  0.00000000000E+00 -0.00000000000E+00 -0.78864949611E+03  0.78864949611E+03  0.00000000000E+00 0. -1.
         23    2    1    2    0    0  0.28434958612E+03 -0.19188876554E+03  0.24602734933E+03  0.43164526895E+03  0.90067730753E+02 0.  0.
        254    2    1    2    0    0 -0.28434958612E+03  0.19188876554E+03 -0.35931343874E+03  0.10323676339E+04  0.90498662902E+03 0.  0.
        -24    2    4    4    0    0 -0.60266983204E+03  0.16718309085E+03 -0.29772755888E+03  0.69753308419E+03  0.82155900022E+02 0.  0.
         24    2    4    4    0    0  0.31832024592E+03  0.24705674690E+02 -0.61585879862E+02  0.33483454967E+03  0.79894966861E+02 0.  0.
         11    1    3    3    0    0  0.79522250752E-01 -0.11318346508E+02 -0.42154210683E+01  0.12078123457E+02  0.00000000000E+00 0. -1.
        -11    1    3    3    0    0  0.28427006387E+03 -0.18057041903E+03  0.25024277040E+03  0.41956714550E+03  0.00000000000E+00 0.  1.
          4    1    6    6  502    0  0.20992012030E+03 -0.21826842200E+02 -0.43550913234E+02  0.21549837584E+03  0.00000000000E+00 0. -1.
          3    1    5    5  503    0 -0.57178931070E+03  0.16127940211E+03 -0.26021483944E+03  0.64858756081E+03  0.00000000000E+00 0. -1.
         -4    1    5    5    0  503 -0.30880521345E+02  0.59036887335E+01 -0.37512719445E+02  0.48945523384E+02  0.00000000000E+00 0.  1.
         -3    1    6    6    0  502  0.10840012562E+03  0.46532516889E+02 -0.18034966628E+02  0.11933617383E+03  0.00000000000E+00 0.  1.
<mgrwt>
<rscale>  0 0.14596233E+04</rscale>
<asrwt>0</asrwt>
<pdfrwt beam="1">  1        1 0.12133069E+00 0.14596233E+04</pdfrwt>
<pdfrwt beam="2">  1       -1 0.10390206E+00 0.14596233E+04</pdfrwt>
<totfact> 0.19161726E+01</totfact>
</mgrwt>
</event>
<event>
12    1  0.1114484E-007  0.1350802E+04  0.7818608E-02  0.8990221E-01
          1   -1    0    0  501    0  0.00000000000E+00  0.00000000000E+00  0.43955481521E+03  0.43955481521E+03  0.00000000000E+00 0. -1.
         -1   -1    0    0    0  501 -0.00000000000E+00 -0.00000000000E+00 -0.10377920904E+04  0.10377920904E+04  0.00000000000E+00 0.  1.
         23    2    1    2    0    0 -0.82596787377E+01 -0.97027744786E+01  0.23666785213E+03  0.25380804061E+03  0.90799136107E+02 0.  0.
        254    2    1    2    0    0  0.82596787377E+01  0.97027744786E+01 -0.83490512737E+03  0.12235388650E+04  0.89432567694E+03 0.  0.
        -24    2    4    4    0    0  0.30201580373E+03 -0.70357309817E+02  0.11754752683E+02  0.32016449807E+03  0.78761887139E+02 0.  0.
         24    2    4    4    0    0 -0.29375612500E+03  0.80060084296E+02 -0.84665988005E+03  0.90337436697E+03  0.80932171244E+02 0.  0.
         11    1    3    3    0    0 -0.26863279711E+02 -0.28729138836E+02  0.21746359115E+03  0.22099188377E+03  0.00000000000E+00 0. -1.
        -11    1    3    3    0    0  0.18603600973E+02  0.19026364357E+02  0.19204260983E+02  0.32816156840E+02  0.00000000000E+00 0.  1.
          4    1    6    6  502    0 -0.14296460612E+03  0.88016466454E+01 -0.31205147689E+03  0.34335473175E+03  0.00000000000E+00 0. -1.
          3    1    5    5  503    0  0.22663900166E+03 -0.29286114374E+02 -0.18202853066E+02  0.22924715358E+03  0.00000000000E+00 0. -1.
         -4    1    5    5    0  503  0.75376802078E+02 -0.41071195443E+02  0.29957605748E+02  0.90917344488E+02  0.00000000000E+00 0.  1.
         -3    1    6    6    0  502 -0.15079151888E+03  0.71258437650E+02 -0.53460840316E+03  0.56001963522E+03  0.00000000000E+00 0.  1.
<mgrwt>
<rscale>  0 0.13508020E+04</rscale>
<asrwt>0</asrwt>
<pdfrwt beam="1">  1        1 0.67623818E-01 0.13508020E+04</pdfrwt>
<pdfrwt beam="2">  1       -1 0.15966032E+00 0.13508020E+04</pdfrwt>
<totfact> 0.15209373E+01</totfact>
</mgrwt>
</event>
<event>
12    1  0.1114484E-007  0.1378977E+04  0.7818608E-02  0.8969178E-01
          2   -1    0    0  501    0  0.00000000000E+00  0.00000000000E+00  0.35040688884E+04  0.35040688884E+04  0.00000000000E+00 0. -1.
         -2   -1    0    0    0  501 -0.00000000000E+00 -0.00000000000E+00 -0.13566925253E+03  0.13566925253E+03  0.00000000000E+00 0.  1.
         23    2    1    2    0    0  0.91421083252E+02  0.15219577127E+03  0.59501440286E+02  0.20841534925E+03  0.91515950267E+02 0.  0.
        254    2    1    2    0    0 -0.91421083252E+02 -0.15219577127E+03  0.33088981956E+04  0.34313227917E+04  0.89086893798E+03 0.  0.
        -24    2    4    4    0    0 -0.26867432019E+03 -0.87273485182E+02  0.31703859337E+04  0.31839259426E+04  0.78961307400E+02 0.  0.
         24    2    4    4    0    0  0.17725323694E+03 -0.64922286084E+02  0.13851226191E+03  0.24739684906E+03  0.79912082866E+02 0.  0.
         13    1    3    3    0    0  0.33755537193E+02  0.90996409543E+02  0.75319954953E+02  0.12285307670E+03  0.00000000000E+00 0. -1.
        -13    1    3    3    0    0  0.57665546059E+02  0.61199361723E+02 -0.15818514667E+02  0.85562272550E+02  0.00000000000E+00 0.  1.
          4    1    6    6  502    0  0.17625873081E+03 -0.61016701658E+02  0.10580224660E+03  0.21443948670E+03  0.00000000000E+00 0. -1.
          1    1    5    5  503    0 -0.16332356528E+03 -0.89554336444E+02  0.21834368453E+04  0.21913673867E+04  0.00000000000E+00 0. -1.
         -2    1    5    5    0  503 -0.10535075491E+03  0.22808512619E+01  0.98694908844E+03  0.99255855596E+03  0.00000000000E+00 0.  1.
         -3    1    6    6    0  502  0.99450612803E+00 -0.39055844257E+01  0.32710015313E+02  0.32957362363E+02  0.00000000000E+00 0.  1.
<mgrwt>
<rscale>  0 0.13789770E+04</rscale>
<asrwt>0</asrwt>
<pdfrwt beam="1">  1        2 0.53908745E+00 0.13789770E+04</pdfrwt>
<pdfrwt beam="2">  1       -2 0.20872195E-01 0.13789770E+04</pdfrwt>
<totfact> 0.15891175E+01</totfact>
</mgrwt>
</event>
<event>
12    1  0.1114484E-007  0.1354416E+04  0.7818608E-02  0.8987492E-01
         -1   -1    0    0    0  501 -0.00000000000E+00  0.00000000000E+00  0.16612644363E+03  0.16612644363E+03  0.00000000000E+00 0.  1.
          1   -1    0    0  501    0  0.00000000000E+00 -0.00000000000E+00 -0.27606122006E+04  0.27606122006E+04  0.00000000000E+00 0. -1.
         23    2    1    2    0    0  0.14885713712E+03 -0.31477696686E+02 -0.64560555450E+00  0.17627033915E+03  0.89002938144E+02 0.  0.
        254    2    1    2    0    0 -0.14885713712E+03  0.31477696686E+02 -0.25938401514E+04  0.27504683051E+04  0.90217507920E+03 0.  0.
        -24    2    4    4    0    0  0.33757915371E+03 -0.14293692135E+03 -0.13486218762E+04  0.13998320375E+04  0.79737819307E+02 0.  0.
         24    2    4    4    0    0 -0.48643629083E+03  0.17441461803E+03 -0.12452182752E+04  0.13506362676E+04  0.81296065678E+02 0.  0.
         11    1    3    3    0    0  0.49878403266E+02  0.14662748818E+01 -0.40835400619E+02  0.64478950194E+02  0.00000000000E+00 0. -1.
        -11    1    3    3    0    0  0.98978733854E+02 -0.32943971568E+02  0.40189795064E+02  0.11179138896E+03  0.00000000000E+00 0.  1.
          4    1    6    6  502    0 -0.24272627008E+03  0.62176232380E+02 -0.51590688012E+03  0.57353451075E+03  0.00000000000E+00 0. -1.
          1    1    5    5  503    0  0.64154997712E+01 -0.19573952554E+02 -0.52502838625E+02  0.56398992186E+02  0.00000000000E+00 0. -1.
         -2    1    5    5    0  503  0.33116365393E+03 -0.12336296879E+03 -0.12961190376E+04  0.13434330453E+04  0.00000000000E+00 0.  1.
         -3    1    6    6    0  502 -0.24371002075E+03  0.11223838565E+03 -0.72931139511E+03  0.77710175682E+03  0.00000000000E+00 0.  1.
<mgrwt>
<rscale>  0 0.13544160E+04</rscale>
<asrwt>0</asrwt>
<pdfrwt beam="1">  1        1 0.42470956E+00 0.13544160E+04</pdfrwt>
<pdfrwt beam="2">  1       -1 0.25557915E-01 0.13544160E+04</pdfrwt>
<totfact> 0.11804301E+01</totfact>
</mgrwt>
</event>
<event>
12    1  0.1114484E-007  0.1071716E+04  0.7818608E-02  0.9233206E-01
         -2   -1    0    0    0  501 -0.00000000000E+00  0.00000000000E+00  0.23404222745E+03  0.23404222745E+03  0.00000000000E+00 0.  1.
          2   -1    0    0  501    0  0.00000000000E+00 -0.00000000000E+00 -0.12268889239E+04  0.12268889239E+04  0.00000000000E+00 0. -1.
         23    2    1    2    0    0  0.46777366486E+02  0.16690736283E+02  0.20277112181E+02  0.10361584331E+03  0.88647498632E+02 0.  0.
        254    2    1    2    0    0 -0.46777366486E+02 -0.16690736283E+02 -0.10131238086E+04  0.13573153080E+04  0.90189705129E+03 0.  0.
        -24    2    4    4    0    0 -0.16459416131E+03 -0.23375410506E+03 -0.10532093538E+04  0.10947768221E+04  0.86914485701E+02 0.  0.
         24    2    4    4    0    0  0.11781679483E+03  0.21706336877E+03  0.40085545142E+02  0.26253848592E+03  0.79512907447E+02 0.  0.
         13    1    3    3    0    0  0.37124092070E+02 -0.30824273943E+02 -0.57362931553E+01  0.48592583131E+02  0.00000000000E+00 0. -1.
        -13    1    3    3    0    0  0.96532744157E+01  0.47515010226E+02  0.26013405336E+02  0.55023260181E+02  0.00000000000E+00 0.  1.
          2    1    6    6  502    0  0.12207916452E+03  0.17994154768E+03  0.15893478495E+02  0.21802496566E+03  0.00000000000E+00 0. -1.
          3    1    5    5  503    0 -0.16882709513E+03 -0.23114464375E+03 -0.96826017285E+03  0.10096822256E+04  0.00000000000E+00 0. -1.
         -4    1    5    5    0  503  0.42329338200E+01 -0.26094613035E+01 -0.84949180912E+02  0.85094596506E+02  0.00000000000E+00 0.  1.
         -1    1    6    6    0  502 -0.42623696990E+01  0.37121821097E+02  0.24192066648E+02  0.44513520257E+02  0.00000000000E+00 0.  1.
<mgrwt>
<rscale>  0 0.10717160E+04</rscale>
<asrwt>0</asrwt>
<pdfrwt beam="1">  1        2 0.18875214E+00 0.10717160E+04</pdfrwt>
<pdfrwt beam="2">  1       -2 0.36006496E-01 0.10717160E+04</pdfrwt>
<totfact> 0.13156702E+02</totfact>
</mgrwt>
</event>
<event>
12    1  0.1114484E-007  0.2025408E+04  0.7818608E-02  0.8594833E-01
          2   -1    0    0  501    0  0.00000000000E+00  0.00000000000E+00  0.21520695820E+04  0.21520695820E+04  0.00000000000E+00 0. -1.
         -2   -1    0    0    0  501 -0.00000000000E+00 -0.00000000000E+00 -0.47655021658E+03  0.47655021658E+03  0.00000000000E+00 0.  1.
         23    2    1    2    0    0 -0.54366645086E+03 -0.34569065962E+03  0.13267327913E+04  0.14780208932E+04  0.96180139272E+02 0.  0.
        254    2    1    2    0    0  0.54366645086E+03  0.34569065962E+03  0.34878657409E+03  0.11505989054E+04  0.88721503870E+03 0.  0.
        -24    2    4    4    0    0  0.97993084228E+02  0.14661430056E+03 -0.28704078804E+03  0.34495126951E+03  0.74165805121E+02 0.  0.
         24    2    4    4    0    0  0.44567336663E+03  0.19907635905E+03  0.63582736213E+03  0.80564763589E+03  0.80842639253E+02 0.  0.
         13    1    3    3    0    0 -0.16224273202E+03 -0.87101959306E+02  0.29054799248E+03  0.34398777790E+03  0.00000000000E+00 0. -1.
        -13    1    3    3    0    0 -0.38142371883E+03 -0.25858870031E+03  0.10361847989E+04  0.11340331153E+04  0.00000000000E+00 0.  1.
          2    1    6    6  502    0  0.42728837287E+03  0.20561877345E+03  0.59903958237E+03  0.76400448613E+03  0.00000000000E+00 0. -1.
          1    1    5    5  503    0  0.10983919486E+03  0.13552327935E+03 -0.26971713629E+03  0.32121416778E+03  0.00000000000E+00 0. -1.
         -2    1    5    5    0  503 -0.11846110627E+02  0.11091021210E+02 -0.17323651747E+02  0.23737101726E+02  0.00000000000E+00 0.  1.
         -1    1    6    6    0  502  0.18384993761E+02 -0.65424144011E+01  0.36787779762E+02  0.41643149756E+02  0.00000000000E+00 0.  1.
<mgrwt>
<rscale>  0 0.20254078E+04</rscale>
<asrwt>0</asrwt>
<pdfrwt beam="1">  1        2 0.33108762E+00 0.20254078E+04</pdfrwt>
<pdfrwt beam="2">  1       -2 0.73315419E-01 0.20254078E+04</pdfrwt>
<totfact> 0.85534305E+00</totfact>
</mgrwt>
</event>
<event>
12    1  0.1114484E-007  0.1308607E+04  0.7818608E-02  0.9022767E-01
         -2   -1    0    0    0  501 -0.00000000000E+00  0.00000000000E+00  0.35335979618E+03  0.35335979618E+03  0.00000000000E+00 0. -1.
          2   -1    0    0  501    0  0.00000000000E+00 -0.00000000000E+00 -0.12115504493E+04  0.12115504493E+04  0.00000000000E+00 0.  1.
         23    2    1    2    0    0  0.14265465812E+03  0.27695675368E+03 -0.72344928427E+02  0.33270481951E+03  0.91669588011E+02 0.  0.
        254    2    1    2    0    0 -0.14265465812E+03 -0.27695675368E+03 -0.78584572474E+03  0.12322054260E+04  0.89650505515E+03 0.  0.
        -24    2    4    4    0    0 -0.22392709942E+03 -0.57806634650E+03 -0.47920368973E+03  0.78760536209E+03  0.79887316407E+02 0.  0.
         24    2    4    4    0    0  0.81272441302E+02  0.30110959282E+03 -0.30664203501E+03  0.44460006393E+03  0.79797760656E+02 0.  0.
         13    1    3    3    0    0  0.56921724241E+02  0.19444608212E+03 -0.67729402735E+02  0.21362732395E+03  0.00000000000E+00 0. -1.
        -13    1    3    3    0    0  0.85732933875E+02  0.82510671556E+02 -0.46155256916E+01  0.11907749556E+03  0.00000000000E+00 0.  1.
          4    1    6    6  502    0 -0.14938290722E+02  0.26569507978E+02 -0.37066553436E+02  0.47989797536E+02  0.00000000000E+00 0. -1.
          3    1    5    5  503    0 -0.22403358504E+02 -0.62943799790E+02 -0.23167064650E+02  0.70714533788E+02  0.00000000000E+00 0. -1.
         -4    1    5    5    0  503 -0.20152374091E+03 -0.51512254671E+03 -0.45603662508E+03  0.71689082830E+03  0.00000000000E+00 0.  1.
         -3    1    6    6    0  502  0.96210732024E+02  0.27454008484E+03 -0.26957548157E+03  0.39661026639E+03  0.00000000000E+00 0.  1.
<mgrwt>
<rscale>  0 0.13086072E+04</rscale>
<asrwt>0</asrwt>
<pdfrwt beam="1">  1        2 0.18639238E+00 0.13086072E+04</pdfrwt>
<pdfrwt beam="2">  1       -2 0.54363045E-01 0.13086072E+04</pdfrwt>
<totfact> 0.58159658E+01</totfact>
</mgrwt>
</event>
<event>
12    1  0.1114484E-007  0.2480366E+04  0.7818608E-02  0.8410014E-01
          2   -1    0    0  501    0  0.00000000000E+00  0.00000000000E+00  0.24204294340E+04  0.24204294340E+04  0.00000000000E+00 0. -1.
         -2   -1    0    0    0  501 -0.00000000000E+00 -0.00000000000E+00 -0.63544663370E+03  0.63544663370E+03  0.00000000000E+00 0.  1.
         23    2    1    2    0    0 -0.26489787372E+03 -0.49477482498E+03  0.19048648854E+04  0.19878939977E+04  0.90770610770E+02 0.  0.
        254    2    1    2    0    0  0.26489787372E+03  0.49477482498E+03 -0.11988208511E+03  0.10679820699E+04  0.90068916749E+03 0.  0.
        -24    2    4    4    0    0  0.48843766847E+03  0.38679985442E+03  0.19628327656E+03  0.65810179385E+03  0.79908466740E+02 0.  0.
         24    2    4    4    0    0 -0.22353979475E+03  0.10797497056E+03 -0.31616536166E+03  0.40988027608E+03  0.80079152726E+02 0.  0.
         11    1    3    3    0    0 -0.84306973435E+02 -0.12683394632E+03  0.39367755263E+03  0.42210961983E+03  0.00000000000E+00 0.  1.
        -11    1    3    3    0    0 -0.18059090028E+03 -0.36794087866E+03  0.15111873328E+04  0.15657843779E+04  0.00000000000E+00 0. -1.
          2    1    6    6  502    0 -0.21886751683E+03  0.91534967963E+02 -0.26374289574E+03  0.35474209693E+03  0.00000000000E+00 0. -1.
          1    1    5    5  503    0  0.33363404074E+03  0.29083562532E+03  0.10745467490E+03  0.45545970322E+03  0.00000000000E+00 0. -1.
         -2    1    5    5    0  503  0.15480362773E+03  0.95964229097E+02  0.88828601659E+02  0.20264209063E+03  0.00000000000E+00 0.  1.
         -1    1    6    6    0  502 -0.46722779209E+01  0.16440002597E+02 -0.52422465926E+02  0.55138179152E+02  0.00000000000E+00 0.  1.
<mgrwt>
<rscale>  0 0.24803659E+04</rscale>
<asrwt>0</asrwt>
<pdfrwt beam="1">  1        2 0.37237375E+00 0.24803659E+04</pdfrwt>
<pdfrwt beam="2">  1       -2 0.97761022E-01 0.24803659E+04</pdfrwt>
<totfact> 0.30117042E+00</totfact>
</mgrwt>
</event>
<event>
12    1  0.1114484E-007  0.1395184E+04  0.7818608E-02  0.8957312E-01
         -2   -1    0    0    0  501 -0.00000000000E+00  0.00000000000E+00  0.12568073856E+03  0.12568073856E+03  0.00000000000E+00 0.  1.
          2   -1    0    0  501    0  0.00000000000E+00 -0.00000000000E+00 -0.38719875402E+04  0.38719875402E+04  0.00000000000E+00 0. -1.
         23    2    1    2    0    0 -0.15716841014E+03 -0.12736495868E+03 -0.20954421025E+04  0.21070688857E+04  0.89095130485E+02 0.  0.
        254    2    1    2    0    0  0.15716841014E+03  0.12736495868E+03 -0.16508646991E+04  0.18905993931E+04  0.89893718820E+03 0.  0.
        -24    2    4    4    0    0 -0.68122819024E+02 -0.36217345709E+03 -0.66346600491E+03  0.76293867663E+03  0.77961228458E+02 0.  0.
         24    2    4    4    0    0  0.22529122917E+03  0.48953841577E+03 -0.98739869424E+03  0.11276607164E+04  0.79110754982E+02 0.  0.
         11    1    3    3    0    0 -0.24714648347E+02  0.10057085206E+02 -0.15680867840E+03  0.15906263052E+03  0.00000000000E+00 0.  1.
        -11    1    3    3    0    0 -0.13245376179E+03 -0.13742204389E+03 -0.19386334241E+04  0.19480062552E+04  0.00000000000E+00 0. -1.
          2    1    6    6  502    0  0.11054567724E+03  0.31162736756E+03 -0.65166845191E+03  0.73075559128E+03  0.00000000000E+00 0. -1.
          3    1    5    5  503    0 -0.35147544068E+02 -0.30627889481E+03 -0.50452553771E+03  0.59125978170E+03  0.00000000000E+00 0. -1.
         -4    1    5    5    0  503 -0.32975274956E+02 -0.55894562281E+02 -0.15894046720E+03  0.17167889493E+03  0.00000000000E+00 0.  1.
         -1    1    6    6    0  502  0.11474555193E+03  0.17791104821E+03 -0.33573024232E+03  0.39690512515E+03  0.00000000000E+00 0.  1.
<mgrwt>
<rscale>  0 0.13951835E+04</rscale>
<asrwt>0</asrwt>
<pdfrwt beam="1">  1        2 0.59569040E+00 0.13951835E+04</pdfrwt>
<pdfrwt beam="2">  1       -2 0.19335498E-01 0.13951835E+04</pdfrwt>
<totfact> 0.97918771E+00</totfact>
</mgrwt>
</event>
<event>
12    1  0.1114484E-007  0.2415519E+04  0.7818608E-02  0.8433716E-01
          1   -1    0    0  501    0  0.00000000000E+00  0.00000000000E+00  0.83948206847E+03  0.83948206847E+03  0.00000000000E+00 0. -1.
         -1   -1    0    0    0  501 -0.00000000000E+00 -0.00000000000E+00 -0.17375984131E+04  0.17375984131E+04  0.00000000000E+00 0.  1.
         23    2    1    2    0    0  0.42866257545E+03  0.94739727734E+03 -0.42177987667E+03  0.11259984871E+04  0.93065159592E+02 0.  0.
        254    2    1    2    0    0 -0.42866257545E+03 -0.94739727734E+03 -0.47633646795E+03  0.14510819944E+04  0.89298898045E+03 0.  0.
        -24    2    4    4    0    0 -0.44844218337E+03 -0.43821794388E+03 -0.65095680765E+03  0.90680568721E+03  0.73596404522E+02 0.  0.
         24    2    4    4    0    0  0.19779607919E+02 -0.50917933346E+03  0.17462033971E+03  0.54427630724E+03  0.78035947296E+02 0.  0.
         11    1    3    3    0    0  0.40906957652E+03  0.85414630151E+03 -0.36419917413E+03  0.10146649010E+04  0.00000000000E+00 0.  1.
        -11    1    3    3    0    0  0.19592998927E+02  0.93250975826E+02 -0.57580702546E+02  0.11133358615E+03  0.00000000000E+00 0. -1.
          4    1    6    6  502    0  0.47697706952E+02 -0.25118046903E+03  0.76925881687E+02  0.26699118065E+03  0.00000000000E+00 0. -1.
          3    1    5    5  503    0 -0.30600878532E+03 -0.25371430711E+03 -0.38930293429E+03  0.55638934297E+03  0.00000000000E+00 0. -1.
         -4    1    5    5    0  503 -0.14243339804E+03 -0.18450363677E+03 -0.26165387336E+03  0.35041634423E+03  0.00000000000E+00 0.  1.
         -3    1    6    6    0  502 -0.27918099033E+02 -0.25799886442E+03  0.97694458020E+02  0.27728512659E+03  0.00000000000E+00 0.  1.
<mgrwt>
<rscale>  0 0.24155188E+04</rscale>
<asrwt>0</asrwt>
<pdfrwt beam="1">  1        1 0.12915109E+00 0.24155188E+04</pdfrwt>
<pdfrwt beam="2">  1       -1 0.26732283E+00 0.24155188E+04</pdfrwt>
<totfact> 0.98386648E-01</totfact>
</mgrwt>
</event>
<event>
12    1  0.1114484E-007  0.1387386E+04  0.7818608E-02  0.8963000E-01
          2   -1    0    0  501    0  0.00000000000E+00  0.00000000000E+00  0.12398898029E+04  0.12398898029E+04  0.00000000000E+00 0. -1.
         -2   -1    0    0    0  501 -0.00000000000E+00 -0.00000000000E+00 -0.38810732076E+03  0.38810732076E+03  0.00000000000E+00 0.  1.
         23    2    1    2    0    0  0.16967645099E+03  0.79321361110E+02  0.65337826692E+03  0.68573882329E+03  0.90843809584E+02 0.  0.
        254    2    1    2    0    0 -0.16967645099E+03 -0.79321361110E+02  0.19840421520E+03  0.94225830036E+03  0.90188940322E+03 0.  0.
        -24    2    4    4    0    0  0.77269999367E+02  0.36000211596E+03  0.20754849401E+03  0.43179729487E+03  0.88319591250E+02 0.  0.
         24    2    4    4    0    0 -0.24694645035E+03 -0.43932347707E+03 -0.91442788116E+01  0.51046100548E+03  0.80617327170E+02 0.  0.
         11    1    3    3    0    0  0.15685961451E+03  0.38237679433E+02  0.56202881943E+03  0.58475931174E+03  0.00000000000E+00 0. -1.
        -11    1    3    3    0    0  0.12816836479E+02  0.41083681677E+02  0.91349447484E+02  0.10097951155E+03  0.00000000000E+00 0.  1.
          2    1    6    6  502    0 -0.70708595256E+02 -0.18523196921E+03  0.22851908786E+02  0.19958155625E+03  0.00000000000E+00 0. -1.
          1    1    5    5  503    0  0.56821640945E+02  0.21051334877E+03  0.16953784792E+03  0.27620219182E+03  0.00000000000E+00 0. -1.
         -2    1    5    5    0  503  0.20448358422E+02  0.14948876719E+03  0.38010646090E+02  0.15559510305E+03  0.00000000000E+00 0.  1.
         -1    1    6    6    0  502 -0.17623785510E+03 -0.25409150786E+03 -0.31996187598E+02  0.31087944923E+03  0.00000000000E+00 0.  1.
<mgrwt>
<rscale>  0 0.13873865E+04</rscale>
<asrwt>0</asrwt>
<pdfrwt beam="1">  1        2 0.19075228E+00 0.13873865E+04</pdfrwt>
<pdfrwt beam="2">  1       -2 0.59708819E-01 0.13873865E+04</pdfrwt>
<totfact> 0.45712808E+01</totfact>
</mgrwt>
</event>
<event>
12    1  0.1114484E-007  0.3476695E+04  0.7818608E-02  0.8119335E-01
         -2   -1    0    0    0  501 -0.00000000000E+00  0.00000000000E+00  0.67812288749E+03  0.67812288749E+03  0.00000000000E+00 0.  1.
          2   -1    0    0  501    0  0.00000000000E+00 -0.00000000000E+00 -0.44562009107E+04  0.44562009107E+04  0.00000000000E+00 0. -1.
         23    2    1    2    0    0  0.46389133875E+03  0.14565668526E+04 -0.25612198343E+04  0.29840671873E+04  0.89597815635E+02 0.  0.
        254    2    1    2    0    0 -0.46389133875E+03 -0.14565668526E+04 -0.12168581889E+04  0.21502566109E+04  0.89781817228E+03 0.  0.
        -24    2    4    4    0    0 -0.49431703841E+03 -0.30419265952E+03 -0.22568274790E+03  0.62783380329E+03  0.79750067628E+02 0.  0.
         24    2    4    4    0    0  0.30425699664E+02 -0.11523741931E+04 -0.99117544098E+03  0.15224228076E+04  0.80314669534E+02 0.  0.
         11    1    3    3    0    0  0.25745894312E+03  0.76193260700E+03 -0.12643322852E+04  0.14984533802E+04  0.00000000000E+00 0. -1.
        -11    1    3    3    0    0  0.20643239563E+03  0.69463424559E+03 -0.12968875491E+04  0.14856138072E+04  0.00000000000E+00 0.  1.
          4    1    6    6  502    0  0.56931128251E+02 -0.65438127622E+03 -0.56777100737E+03  0.86822803736E+03  0.00000000000E+00 0. -1.
          3    1    5    5  503    0 -0.13490570684E+03 -0.11287678423E+03 -0.40295467476E+02  0.18045620758E+03  0.00000000000E+00 0. -1.
         -2    1    5    5    0  503 -0.35941133157E+03 -0.19131587529E+03 -0.18538728042E+03  0.44737759571E+03  0.00000000000E+00 0.  1.
         -1    1    6    6    0  502 -0.26505428587E+02 -0.49799291684E+03 -0.42340443361E+03  0.65419477021E+03  0.00000000000E+00 0.  1.
<mgrwt>
<rscale>  0 0.34766949E+04</rscale>
<asrwt>0</asrwt>
<pdfrwt beam="1">  1        2 0.68556938E+00 0.34766949E+04</pdfrwt>
<pdfrwt beam="2">  1       -2 0.10432660E+00 0.34766949E+04</pdfrwt>
<totfact> 0.83047662E-02</totfact>
</mgrwt>
</event>
<event>
12    1  0.1114484E-007  0.1890429E+04  0.7818608E-02  0.8659635E-01
         -2   -1    0    0    0  501 -0.00000000000E+00  0.00000000000E+00  0.29256685928E+03  0.29256685928E+03  0.00000000000E+00 0.  1.
          2   -1    0    0  501    0  0.00000000000E+00 -0.00000000000E+00 -0.30537643724E+04  0.30537643724E+04  0.00000000000E+00 0. -1.
         23    2    1    2    0    0  0.15425837690E+03  0.12449767136E+03 -0.22999865824E+04  0.23104609103E+04  0.94847358958E+02 0.  0.
        254    2    1    2    0    0 -0.15425837690E+03 -0.12449767136E+03 -0.46121093065E+03  0.10358703214E+04  0.90609959891E+03 0.  0.
        -24    2    4    4    0    0 -0.26523033695E+02  0.74797880861E+02  0.25409402449E+03  0.27810319718E+03  0.80494848927E+02 0.  0.
         24    2    4    4    0    0 -0.12773534321E+03 -0.19929555222E+03 -0.71530495513E+03  0.75776712420E+03  0.80714314958E+02 0.  0.
         13    1    3    3    0    0  0.59700011063E+02  0.59514686007E+02 -0.14907101634E+04  0.14930917187E+04  0.00000000000E+00 0.  1.
        -13    1    3    3    0    0  0.94558365841E+02  0.64982985356E+02 -0.80927641907E+03  0.81736919161E+03  0.00000000000E+00 0. -1.
          2    1    6    6  502    0 -0.13917469474E+03 -0.17870976571E+03 -0.65175708438E+03  0.68999570510E+03  0.00000000000E+00 0. -1.
          3    1    5    5  503    0 -0.10772755364E+02  0.89924647011E+02  0.19219852963E+03  0.21246827808E+03  0.00000000000E+00 0. -1.
         -4    1    5    5    0  503 -0.15750278331E+02 -0.15126766150E+02  0.61895494858E+02  0.65634919100E+02  0.00000000000E+00 0.  1.
         -1    1    6    6    0  502  0.11439351526E+02 -0.20585786515E+02 -0.63547870751E+02  0.67771419100E+02  0.00000000000E+00 0.  1.
<mgrwt>
<rscale>  0 0.18904288E+04</rscale>
<asrwt>0</asrwt>
<pdfrwt beam="1">  1        2 0.46980992E+00 0.18904288E+04</pdfrwt>
<pdfrwt beam="2">  1       -2 0.45010284E-01 0.18904288E+04</pdfrwt>
<totfact> 0.70900744E+00</totfact>
</mgrwt>
</event>
<event>
12    1  0.1114484E-007  0.1332896E+04  0.7818608E-02  0.9003878E-01
          4   -1    0    0  501    0  0.00000000000E+00  0.00000000000E+00  0.57303920472E+03  0.57303920472E+03  0.00000000000E+00 0. -1.
         -4   -1    0    0    0  501 -0.00000000000E+00 -0.00000000000E+00 -0.77508290407E+03  0.77508290407E+03  0.00000000000E+00 0.  1.
         23    2    1    2    0    0 -0.26330119993E+03  0.22822781968E+02 -0.29297614314E+03  0.40493495030E+03  0.91043353740E+02 0.  0.
        254    2    1    2    0    0  0.26330119993E+03 -0.22822781968E+02  0.90932443790E+02  0.94318715849E+03  0.90082456968E+03 0.  0.
        -24    2    4    4    0    0  0.32994046189E+02  0.13779376463E+02 -0.39264328636E+03  0.40045274516E+03  0.70108291123E+02 0.  0.
         24    2    4    4    0    0  0.23030715375E+03 -0.36602158430E+02  0.48357573015E+03  0.54273441332E+03  0.79586767406E+02 0.  0.
         11    1    3    3    0    0 -0.26430543660E+03  0.15035038682E+02 -0.26007479495E+03  0.37110957300E+03  0.00000000000E+00 0.  1.
        -11    1    3    3    0    0  0.10042366620E+01  0.77877432862E+01 -0.32901348191E+02  0.33825377301E+02  0.00000000000E+00 0. -1.
          2    1    6    6  502    0  0.36404410070E+02  0.14313207328E+02  0.13571639416E+03  0.14124124264E+03  0.00000000000E+00 0. -1.
          3    1    5    5  503    0 -0.65245791337E+01 -0.23423161658E+02 -0.13147853833E+03  0.13370796788E+03  0.00000000000E+00 0. -1.
         -4    1    5    5    0  503  0.39518625323E+02  0.37202538120E+02 -0.26116474804E+03  0.26674477728E+03  0.00000000000E+00 0.  1.
         -1    1    6    6    0  502  0.19390274368E+03 -0.50915365758E+02  0.34785933599E+03  0.40149317069E+03  0.00000000000E+00 0.  1.
<mgrwt>
<rscale>  0 0.13328959E+04</rscale>
<asrwt>0</asrwt>
<pdfrwt beam="1">  1        4 0.88159878E-01 0.13328959E+04</pdfrwt>
<pdfrwt beam="2">  1       -4 0.11924352E+00 0.13328959E+04</pdfrwt>
<totfact> 0.11663450E+00</totfact>
</mgrwt>
</event>
<event>
12    1  0.1114484E-007  0.2950414E+04  0.7818608E-02  0.8258034E-01
         -1   -1    0    0    0  501 -0.00000000000E+00  0.00000000000E+00  0.95601167946E+03  0.95601167946E+03  0.00000000000E+00 0. -1.
          1   -1    0    0  501    0  0.00000000000E+00 -0.00000000000E+00 -0.22763689095E+04  0.22763689095E+04  0.00000000000E+00 0.  1.
         23    2    1    2    0    0  0.81875928604E+03 -0.22468433393E+03  0.52705548950E+03  0.10034705657E+04  0.91191386036E+02 0.  0.
        254    2    1    2    0    0 -0.81875928604E+03  0.22468433393E+03 -0.18474127195E+04  0.22289100232E+04  0.91337632821E+03 0.  0.
        -24    2    4    4    0    0 -0.95949062614E+03  0.33332228132E+02 -0.12266275502E+04  0.15596954690E+04  0.79382051044E+02 0.  0.
         24    2    4    4    0    0  0.14073134011E+03  0.19135210580E+03 -0.62078516929E+03  0.66921455418E+03  0.77800736731E+02 0.  0.
         11    1    3    3    0    0  0.13594824032E+03 -0.73309591647E+02  0.10025014603E+03  0.18413666678E+03  0.00000000000E+00 0.  1.
        -11    1    3    3    0    0  0.68281104571E+03 -0.15137474228E+03  0.42680534347E+03  0.81933389894E+03  0.00000000000E+00 0. -1.
          2    1    6    6  502    0  0.89774515121E+02  0.17428459589E+03 -0.49687938658E+03  0.53415700757E+03  0.00000000000E+00 0. -1.
          3    1    5    5  503    0 -0.71174642332E+03  0.24972059944E+02 -0.85160071071E+03  0.11101487943E+04  0.00000000000E+00 0. -1.
         -4    1    5    5    0  503 -0.24774420282E+03  0.83601681877E+01 -0.37502683951E+03  0.44954667477E+03  0.00000000000E+00 0.  1.
         -1    1    6    6    0  502  0.50956824988E+02  0.17067509908E+02 -0.12390578271E+03  0.13505754661E+03  0.00000000000E+00 0.  1.
<mgrwt>
<rscale>  0 0.29504137E+04</rscale>
<asrwt>0</asrwt>
<pdfrwt beam="1">  1        1 0.35021060E+00 0.29504137E+04</pdfrwt>
<pdfrwt beam="2">  1       -1 0.14707872E+00 0.29504137E+04</pdfrwt>
<totfact> 0.60720004E-01</totfact>
</mgrwt>
</event>
<event>
12    1  0.1114484E-007  0.1567510E+04  0.7818608E-02  0.8840760E-01
          2   -1    0    0  501    0  0.00000000000E+00  0.00000000000E+00  0.19124885171E+04  0.19124885171E+04  0.00000000000E+00 0. -1.
         -2   -1    0    0    0  501 -0.00000000000E+00 -0.00000000000E+00 -0.32118999517E+03  0.32118999517E+03  0.00000000000E+00 0.  1.
         23    2    1    2    0    0  0.46080344209E+02  0.50662010214E+03  0.67539363575E+03  0.85071157064E+03  0.93628452955E+02 0.  0.
        254    2    1    2    0    0 -0.46080344209E+02 -0.50662010214E+03  0.91590488619E+03  0.13829669416E+04  0.90273388940E+03 0.  0.
        -24    2    4    4    0    0  0.56372323343E+02 -0.56049797760E+03  0.10461990121E+04  0.11909764381E+04  0.80973337867E+02 0.  0.
         24    2    4    4    0    0 -0.10245266755E+03  0.53877875464E+02 -0.13029412591E+03  0.19199050353E+03  0.80525894251E+02 0.  0.
         11    1    3    3    0    0 -0.16513634195E+02  0.22264909063E+02  0.24711665670E+02  0.37136137523E+02  0.00000000000E+00 0.  1.
        -11    1    3    3    0    0  0.62593978404E+02  0.48435519308E+03  0.65068197008E+03  0.81357543312E+03  0.00000000000E+00 0. -1.
          2    1    6    6  502    0 -0.89804301011E+02  0.27198622787E+02 -0.13252513250E+03  0.16238068945E+03  0.00000000000E+00 0. -1.
          3    1    5    5  503    0 -0.53821226923E+00 -0.37092667518E+03  0.66492433201E+03  0.76138771682E+03  0.00000000000E+00 0. -1.
         -4    1    5    5    0  503  0.56910535612E+02 -0.18957130242E+03  0.38127468010E+03  0.42958872128E+03  0.00000000000E+00 0.  1.
         -1    1    6    6    0  502 -0.12648366540E+02  0.26679252676E+02  0.22310065866E+01  0.29609814081E+02  0.00000000000E+00 0.  1.
<mgrwt>
<rscale>  0 0.15675104E+04</rscale>
<asrwt>0</asrwt>
<pdfrwt beam="1">  1        2 0.29422900E+00 0.15675104E+04</pdfrwt>
<pdfrwt beam="2">  1       -2 0.49413847E-01 0.15675104E+04</pdfrwt>
<totfact> 0.27850863E+01</totfact>
</mgrwt>
</event>
<event>
12    1  0.1114484E-007  0.1721190E+04  0.7818608E-02  0.8749370E-01
         -2   -1    0    0    0  501 -0.00000000000E+00  0.00000000000E+00  0.49246292969E+03  0.49246292969E+03  0.00000000000E+00 0.  1.
          2   -1    0    0  501    0  0.00000000000E+00 -0.00000000000E+00 -0.15039182914E+04  0.15039182914E+04  0.00000000000E+00 0. -1.
         23    2    1    2    0    0  0.48065150672E+03  0.34863267840E+03 -0.16009321961E+03  0.62183957219E+03  0.92108627290E+02 0.  0.
        254    2    1    2    0    0 -0.48065150672E+03 -0.34863267840E+03 -0.85136214213E+03  0.13745416489E+04  0.90109745988E+03 0.  0.
        -24    2    4    4    0    0 -0.69329018303E+03 -0.61782594262E+02 -0.45741090817E+03  0.83705010986E+03  0.83425299859E+02 0.  0.
         24    2    4    4    0    0  0.21263867632E+03 -0.28685008414E+03 -0.39395123396E+03  0.53749153906E+03  0.78748983428E+02 0.  0.
         13    1    3    3    0    0  0.39244976065E+03  0.30903280536E+03 -0.16202050502E+03  0.52513687117E+03  0.00000000000E+00 0.  1.
        -13    1    3    3    0    0  0.88201746071E+02  0.39599873037E+02  0.19272854145E+01  0.96702701015E+02  0.00000000000E+00 0. -1.
          2    1    6    6  502    0  0.14970868496E+02 -0.19988161936E+01 -0.36547889871E+02  0.39545801594E+02  0.00000000000E+00 0. -1.
          3    1    5    5  503    0 -0.71480971759E+01  0.84781091971E+01 -0.48585893087E+01  0.12107002885E+02  0.00000000000E+00 0. -1.
         -4    1    5    5    0  503 -0.68614208586E+03 -0.70260703459E+02 -0.45255231886E+03  0.82494310697E+03  0.00000000000E+00 0.  1.
         -1    1    6    6    0  502  0.19766780782E+03 -0.28485126794E+03 -0.35740334409E+03  0.49794573747E+03  0.00000000000E+00 0.  1.
<mgrwt>
<rscale>  0 0.17211903E+04</rscale>
<asrwt>0</asrwt>
<pdfrwt beam="1">  1        2 0.23137204E+00 0.17211903E+04</pdfrwt>
<pdfrwt beam="2">  1       -2 0.75763529E-01 0.17211903E+04</pdfrwt>
<totfact> 0.18730602E+01</totfact>
</mgrwt>
</event>
<event>
12    1  0.1114484E-007  0.2376241E+04  0.7818608E-02  0.8448453E-01
         -2   -1    0    0    0  501 -0.00000000000E+00  0.00000000000E+00  0.55536086744E+03  0.55536086744E+03  0.00000000000E+00 0.  1.
          2   -1    0    0  501    0  0.00000000000E+00 -0.00000000000E+00 -0.25418249254E+04  0.25418249254E+04  0.00000000000E+00 0. -1.
         23    2    1    2    0    0  0.70449923741E+03  0.73261314635E+03 -0.80466343342E+03  0.12983345192E+04  0.71750157099E+02 0.  0.
        254    2    1    2    0    0 -0.70449923741E+03 -0.73261314635E+03 -0.11818006245E+04  0.17988512735E+04  0.89787080952E+03 0.  0.
        -24    2    4    4    0    0 -0.56784299347E+03 -0.16719630167E+03 -0.15706144301E+03  0.61790448927E+03  0.82081620702E+02 0.  0.
         24    2    4    4    0    0 -0.13665624394E+03 -0.56541684469E+03 -0.10247391815E+04  0.11809467843E+04  0.78573405061E+02 0.  0.
         11    1    3    3    0    0  0.89646124562E+02  0.83561595686E+02 -0.12699965952E+03  0.17648762404E+03  0.00000000000E+00 0.  1.
        -11    1    3    3    0    0  0.61485311285E+03  0.64905155067E+03 -0.67766377390E+03  0.11218468952E+04  0.00000000000E+00 0. -1.
          2    1    6    6  502    0 -0.40138884296E+02 -0.97736560598E+02 -0.24165792523E+03  0.26374631397E+03  0.00000000000E+00 0. -1.
          1    1    5    5  503    0 -0.25529451516E+02 -0.27643082460E+02 -0.97428656804E+01  0.38869220911E+02  0.00000000000E+00 0. -1.
         -2    1    5    5    0  503 -0.54231354196E+03 -0.13955321921E+03 -0.14731857733E+03  0.57903526836E+03  0.00000000000E+00 0.  1.
         -1    1    6    6    0  502 -0.96517359645E+02 -0.46768028409E+03 -0.78308125624E+03  0.91720047030E+03  0.00000000000E+00 0.  1.
<mgrwt>
<rscale>  0 0.23762408E+04</rscale>
<asrwt>0</asrwt>
<pdfrwt beam="1">  1        2 0.39105000E+00 0.23762408E+04</pdfrwt>
<pdfrwt beam="2">  1       -2 0.85440131E-01 0.23762408E+04</pdfrwt>
<totfact> 0.35311478E+00</totfact>
</mgrwt>
</event>
<event>
12    1  0.1114484E-007  0.2223320E+04  0.7818608E-02  0.8508784E-01
          2   -1    0    0  501    0  0.00000000000E+00  0.00000000000E+00  0.11921037928E+04  0.11921037928E+04  0.00000000000E+00 0. -1.
         -2   -1    0    0    0  501 -0.00000000000E+00 -0.00000000000E+00 -0.10366442952E+04  0.10366442952E+04  0.00000000000E+00 0.  1.
         23    2    1    2    0    0  0.61947600648E+03 -0.76355004678E+02 -0.62054956705E+03  0.88472645728E+03  0.89880641418E+02 0.  0.
        254    2    1    2    0    0 -0.61947600648E+03  0.76355004678E+02  0.77600906473E+03  0.13440216307E+04  0.90256493726E+03 0.  0.
        -24    2    4    4    0    0 -0.50751302316E+03 -0.11526091289E+03 -0.77008345153E+01  0.52571696749E+03  0.73922123440E+02 0.  0.
         24    2    4    4    0    0 -0.11196298332E+03  0.19161591757E+03  0.78370989925E+03  0.81830466324E+03  0.78542639387E+02 0.  0.
         13    1    3    3    0    0  0.23502327194E+03 -0.20362487718E+02 -0.29591555952E+03  0.37843967501E+03  0.00000000000E+00 0. -1.
        -13    1    3    3    0    0  0.38445273454E+03 -0.55992516960E+02 -0.32463400753E+03  0.50628678226E+03  0.00000000000E+00 0.  1.
          2    1    6    6  502    0 -0.55596196398E+01  0.10100160970E+01  0.10929484799E+03  0.10944082099E+03  0.00000000000E+00 0. -1.
          1    1    5    5  503    0 -0.18583302508E+03 -0.20187022657E+02  0.25434381378E+02  0.18864871282E+03  0.00000000000E+00 0. -1.
         -2    1    5    5    0  503 -0.32167999808E+03 -0.95073890237E+02 -0.33135215894E+02  0.33706825467E+03  0.00000000000E+00 0.  1.
         -1    1    6    6    0  502 -0.10640336368E+03  0.19060590148E+03  0.67441505126E+03  0.70886384225E+03  0.00000000000E+00 0.  1.
<mgrwt>
<rscale>  0 0.22233197E+04</rscale>
<asrwt>0</asrwt>
<pdfrwt beam="1">  1        2 0.18340058E+00 0.22233197E+04</pdfrwt>
<pdfrwt beam="2">  1       -2 0.15948374E+00 0.22233197E+04</pdfrwt>
<totfact> 0.44394072E+00</totfact>
</mgrwt>
</event>
<event>
12    1  0.1114484E-007  0.2083898E+04  0.7818608E-02  0.8568370E-01
          2   -1    0    0  501    0  0.00000000000E+00  0.00000000000E+00  0.17382971269E+04  0.17382971269E+04  0.00000000000E+00 0.  1.
         -2   -1    0    0    0  501 -0.00000000000E+00 -0.00000000000E+00 -0.62455230915E+03  0.62455230915E+03  0.00000000000E+00 0. -1.
         23    2    1    2    0    0  0.21440542697E+03 -0.79324890695E+03  0.49696509444E+03  0.96377678941E+03  0.81718291863E+02 0.  0.
        254    2    1    2    0    0 -0.21440542697E+03  0.79324890695E+03  0.61677972331E+03  0.13990726466E+04  0.94961756934E+03 0.  0.
        -24    2    4    4    0    0 -0.29073248342E+02  0.97529571473E+03  0.42965822861E+03  0.10692080815E+04  0.80949015844E+02 0.  0.
         24    2    4    4    0    0 -0.18533217863E+03 -0.18204680778E+03  0.18712149470E+03  0.32986456515E+03  0.79417384167E+02 0.  0.
         11    1    3    3    0    0  0.14303335696E+03 -0.47421601611E+03  0.25535938097E+03  0.55726814425E+03  0.00000000000E+00 0.  1.
        -11    1    3    3    0    0  0.71372070010E+02 -0.31903289084E+03  0.24160571347E+03  0.40650864517E+03  0.00000000000E+00 0. -1.
          2    1    6    6  502    0 -0.18763956208E+03 -0.16696904021E+03  0.18921653438E+03  0.31446806281E+03  0.00000000000E+00 0. -1.
          3    1    5    5  503    0 -0.59236770831E+01  0.89095268658E+03  0.40211645255E+03  0.97751185215E+03  0.00000000000E+00 0. -1.
         -4    1    5    5    0  503 -0.23149571259E+02  0.84343028148E+02  0.27541776063E+02  0.91696229341E+02  0.00000000000E+00 0.  1.
         -1    1    6    6    0  502  0.23073834479E+01 -0.15077767565E+02 -0.20950396795E+01  0.15396502342E+02  0.00000000000E+00 0.  1.
<mgrwt>
<rscale>  0 0.20838978E+04</rscale>
<asrwt>0</asrwt>
<pdfrwt beam="1">  1        2 0.26743032E+00 0.20838978E+04</pdfrwt>
<pdfrwt beam="2">  1       -2 0.96084972E-01 0.20838978E+04</pdfrwt>
<totfact> 0.78196649E+00</totfact>
</mgrwt>
</event>
<event>
12    1  0.1114484E-007  0.1915055E+04  0.7818608E-02  0.8647399E-01
         -1   -1    0    0    0  501 -0.00000000000E+00  0.00000000000E+00  0.34932064486E+03  0.34932064486E+03  0.00000000000E+00 0.  1.
          1   -1    0    0  501    0  0.00000000000E+00 -0.00000000000E+00 -0.26246921561E+04  0.26246921561E+04  0.00000000000E+00 0. -1.
         23    2    1    2    0    0  0.60855982683E+03 -0.19526835992E+03 -0.30199983427E+03  0.71235006299E+03  0.88113092871E+02 0.  0.
        254    2    1    2    0    0 -0.60855982683E+03  0.19526835992E+03 -0.19733716769E+04  0.22616627379E+04  0.90135884619E+03 0.  0.
        -24    2    4    4    0    0  0.95183079198E+02  0.13279770430E+03 -0.20031067190E+02  0.18306532008E+03  0.80103800985E+02 0.  0.
         24    2    4    4    0    0 -0.70374290602E+03  0.62470655623E+02 -0.19533406097E+04  0.20785974178E+04  0.76622628637E+02 0.  0.
         11    1    3    3    0    0  0.79156795957E+02 -0.57424962010E+02 -0.53935762671E+02  0.11168030759E+03  0.00000000000E+00 0. -1.
        -11    1    3    3    0    0  0.52940303087E+03 -0.13784339791E+03 -0.24806407160E+03  0.60066975541E+03  0.00000000000E+00 0.  1.
          2    1    6    6  502    0 -0.59122458756E+03  0.80133999710E+02 -0.16256146339E+04  0.17316439902E+04  0.00000000000E+00 0. -1.
          1    1    5    5  503    0  0.74580469417E+02  0.75495668978E+02  0.22894062621E+02  0.10856325601E+03  0.00000000000E+00 0. -1.
         -2    1    5    5    0  503  0.20602609781E+02  0.57302035319E+02 -0.42925129810E+02  0.74502064070E+02  0.00000000000E+00 0.  1.
         -1    1    6    6    0  502 -0.11251831846E+03 -0.17663344087E+02 -0.32772597589E+03  0.34695342769E+03  0.00000000000E+00 0.  1.
<mgrwt>
<rscale>  0 0.19150553E+04</rscale>
<asrwt>0</asrwt>
<pdfrwt beam="1">  1        1 0.40379877E+00 0.19150553E+04</pdfrwt>
<pdfrwt beam="2">  1       -1 0.53741641E-01 0.19150553E+04</pdfrwt>
<totfact> 0.36241900E+00</totfact>
</mgrwt>
</event>
<event>
12    1  0.1114484E-007  0.4362284E+04  0.7818608E-02  0.7935201E-01
         -2   -1    0    0    0  501 -0.00000000000E+00  0.00000000000E+00  0.15936896293E+04  0.15936896293E+04  0.00000000000E+00 0.  1.
          2   -1    0    0  501    0  0.00000000000E+00 -0.00000000000E+00 -0.29851360925E+04  0.29851360925E+04  0.00000000000E+00 0. -1.
         23    2    1    2    0    0  0.15048003105E+04 -0.14006599899E+04 -0.10463898988E+04  0.23085819961E+04  0.91359896103E+02 0.  0.
        254    2    1    2    0    0 -0.15048003105E+04  0.14006599899E+04 -0.34505656434E+03  0.22702437256E+04  0.89926089612E+03 0.  0.
        -24    2    4    4    0    0 -0.79596967332E+03  0.12959404645E+04 -0.24353698910E+03  0.15422840685E+04  0.79375528106E+02 0.  0.
         24    2    4    4    0    0 -0.70883063723E+03  0.10471952537E+03 -0.10151957524E+03  0.72795965714E+03  0.78816159528E+02 0.  0.
         11    1    3    3    0    0  0.85614091872E+03 -0.85174840843E+03 -0.59143202833E+03  0.13447098081E+04  0.00000000000E+00 0. -1.
        -11    1    3    3    0    0  0.64865939183E+03 -0.54891158144E+03 -0.45495787050E+03  0.96387218798E+03  0.00000000000E+00 0.  1.
          2    1    6    6  502    0 -0.28735944116E+03  0.13874185864E+02 -0.67247238450E+02  0.29544903543E+03  0.00000000000E+00 0. -1.
          1    1    5    5  503    0 -0.76268632171E+03  0.12408565061E+04 -0.21664034969E+03  0.14725312680E+04  0.00000000000E+00 0. -1.
         -2    1    5    5    0  503 -0.33283351606E+02  0.55083958428E+02 -0.26896639401E+02  0.69752800527E+02  0.00000000000E+00 0.  1.
         -1    1    6    6    0  502 -0.42147119606E+03  0.90845339508E+02 -0.34272336790E+02  0.43251062171E+03  0.00000000000E+00 0.  1.
<mgrwt>
<rscale>  0 0.43622840E+04</rscale>
<asrwt>0</asrwt>
<pdfrwt beam="1">  1        2 0.45925170E+00 0.43622840E+04</pdfrwt>
<pdfrwt beam="2">  1       -2 0.24518302E+00 0.43622840E+04</pdfrwt>
<totfact> 0.93731630E-02</totfact>
</mgrwt>
</event>
<event>
12    1  0.1114484E-007  0.1128610E+04  0.7818608E-02  0.9177747E-01
          2   -1    0    0  501    0  0.00000000000E+00  0.00000000000E+00  0.11538468869E+04  0.11538468869E+04  0.00000000000E+00 0. -1.
         -2   -1    0    0    0  501 -0.00000000000E+00 -0.00000000000E+00 -0.27598127041E+03  0.27598127041E+03  0.00000000000E+00 0.  1.
         23    2    1    2    0    0  0.13307819043E+03  0.55757562203E+02  0.33997694433E+02  0.17308022530E+03  0.89343218272E+02 0.  0.
        254    2    1    2    0    0 -0.13307819043E+03 -0.55757562203E+02  0.84386792210E+03  0.12567479320E+04  0.92004542509E+03 0.  0.
        -24    2    4    4    0    0 -0.16077142869E+02 -0.47846622913E+03  0.44391255785E+03  0.65781105340E+03  0.80427706769E+02 0.  0.
         24    2    4    4    0    0 -0.11700104757E+03  0.42270866692E+03  0.39995536426E+03  0.59893687865E+03  0.79932652815E+02 0.  0.
         13    1    3    3    0    0  0.59177755994E+02  0.26749705234E+02  0.61124554561E+02  0.89183881419E+02  0.00000000000E+00 0. -1.
        -13    1    3    3    0    0  0.73900434440E+02  0.29007856969E+02 -0.27126860128E+02  0.83896343882E+02  0.00000000000E+00 0.  1.
          4    1    6    6  502    0 -0.46788315763E+02  0.95673162340E+02  0.61015087302E+02  0.12274095226E+03  0.00000000000E+00 0. -1.
          1    1    5    5  503    0  0.27847731027E+02 -0.24994609830E+03  0.20696226169E+03  0.32570220438E+03  0.00000000000E+00 0. -1.
         -2    1    5    5    0  503 -0.43924873896E+02 -0.22852013083E+03  0.23695029616E+03  0.33210884901E+03  0.00000000000E+00 0.  1.
         -3    1    6    6    0  502 -0.70212731802E+02  0.32703550458E+03  0.33894027695E+03  0.47619592639E+03  0.00000000000E+00 0.  1.
<mgrwt>
<rscale>  0 0.11286100E+04</rscale>
<asrwt>0</asrwt>
<pdfrwt beam="1">  1        2 0.17751490E+00 0.11286100E+04</pdfrwt>
<pdfrwt beam="2">  1       -2 0.42458657E-01 0.11286100E+04</pdfrwt>
<totfact> 0.10517748E+02</totfact>
</mgrwt>
</event>
<event>
12    1  0.1114484E-007  0.1794846E+04  0.7818608E-02  0.8709045E-01
          2   -1    0    0  501    0  0.00000000000E+00  0.00000000000E+00  0.81692484585E+03  0.81692484585E+03  0.00000000000E+00 0. -1.
         -2   -1    0    0    0  501 -0.00000000000E+00 -0.00000000000E+00 -0.98585373604E+03  0.98585373604E+03  0.00000000000E+00 0.  1.
         23    2    1    2    0    0  0.23235976807E+02  0.59319620264E+03  0.26002490571E+03  0.65461078140E+03  0.92090597201E+02 0.  0.
        254    2    1    2    0    0 -0.23235976807E+02 -0.59319620264E+03 -0.42895379589E+03  0.11481678005E+04  0.88423203607E+03 0.  0.
        -24    2    4    4    0    0 -0.34824808901E+03 -0.62539036913E+03 -0.35833900348E+03  0.80494697526E+03  0.84515952750E+02 0.  0.
         24    2    4    4    0    0  0.32501211220E+03  0.32194166489E+02 -0.70614792415E+02  0.34322082522E+03  0.78388446376E+02 0.  0.
         13    1    3    3    0    0  0.36162659966E+02  0.49799343203E+03  0.24886644617E+03  0.55788861285E+03  0.00000000000E+00 0. -1.
        -13    1    3    3    0    0 -0.12926683159E+02  0.95202770616E+02  0.11158459537E+02  0.96722168553E+02  0.00000000000E+00 0.  1.
          4    1    6    6  502    0  0.13708611467E+02  0.20105489080E+02 -0.56347180157E+01  0.24978125763E+02  0.00000000000E+00 0. -1.
          1    1    5    5  503    0 -0.15881590716E+03 -0.35523235966E+03 -0.22148852924E+03  0.44773841727E+03  0.00000000000E+00 0. -1.
         -4    1    5    5    0  503 -0.18943218185E+03 -0.27015800948E+03 -0.13685047424E+03  0.35720855799E+03  0.00000000000E+00 0.  1.
         -3    1    6    6    0  502  0.31130350073E+03  0.12088677409E+02 -0.64980074400E+02  0.31824269946E+03  0.00000000000E+00 0.  1.
<mgrwt>
<rscale>  0 0.17948464E+04</rscale>
<asrwt>0</asrwt>
<pdfrwt beam="1">  1        2 0.12568075E+00 0.17948464E+04</pdfrwt>
<pdfrwt beam="2">  1       -2 0.15166980E+00 0.17948464E+04</pdfrwt>
<totfact> 0.91996868E+00</totfact>
</mgrwt>
</event>
<event>
12    1  0.1114484E-007  0.1390496E+04  0.7818608E-02  0.8960727E-01
         -2   -1    0    0    0  501 -0.00000000000E+00  0.00000000000E+00  0.38415946641E+03  0.38415946641E+03  0.00000000000E+00 0.  1.
          2   -1    0    0  501    0  0.00000000000E+00 -0.00000000000E+00 -0.12582529756E+04  0.12582529756E+04  0.00000000000E+00 0. -1.
         23    2    1    2    0    0 -0.24386791031E+03  0.63654622952E+02 -0.61545147512E+03  0.67180776328E+03  0.94982545107E+02 0.  0.
        254    2    1    2    0    0  0.24386791031E+03 -0.63654622952E+02 -0.25864203410E+03  0.97060467876E+03  0.90091857120E+03 0.  0.
        -24    2    4    4    0    0 -0.23357983398E+03 -0.59301777863E+02 -0.39365272789E+03  0.46848281747E+03  0.80233661188E+02 0.  0.
         24    2    4    4    0    0  0.47744774429E+03 -0.43528450896E+01  0.13501069379E+03  0.50212186129E+03  0.76962200911E+02 0.  0.
         11    1    3    3    0    0 -0.23751073553E+03  0.71554251918E+02 -0.61312729257E+03  0.66140489668E+03  0.00000000000E+00 0. -1.
        -11    1    3    3    0    0 -0.63571747793E+01 -0.78996289654E+01 -0.23241825501E+01  0.10402866600E+02  0.00000000000E+00 0.  1.
          2    1    6    6  502    0  0.26926398585E+03  0.27989052369E+02  0.51925129546E+02  0.27564959678E+03  0.00000000000E+00 0. -1.
          1    1    5    5  503    0 -0.17943299035E+03 -0.78841072637E+02 -0.31547618152E+03  0.37139915706E+03  0.00000000000E+00 0. -1.
         -2    1    5    5    0  503 -0.54146843627E+02  0.19539294774E+02 -0.78176546371E+02  0.97083660405E+02  0.00000000000E+00 0.  1.
         -1    1    6    6    0  502  0.20818375843E+03 -0.32341897459E+02  0.83085564240E+02  0.22647226451E+03  0.00000000000E+00 0.  1.
<mgrwt>
<rscale>  0 0.13904960E+04</rscale>
<asrwt>0</asrwt>
<pdfrwt beam="1">  1        2 0.19357738E+00 0.13904960E+04</pdfrwt>
<pdfrwt beam="2">  1       -2 0.59101458E-01 0.13904960E+04</pdfrwt>
<totfact> 0.45547573E+01</totfact>
</mgrwt>
</event>
<event>
12    1  0.1114484E-007  0.2112165E+04  0.7818608E-02  0.8555903E-01
          1   -1    0    0  501    0  0.00000000000E+00  0.00000000000E+00  0.82877513353E+03  0.82877513353E+03  0.00000000000E+00 0. -1.
         -1   -1    0    0    0  501 -0.00000000000E+00 -0.00000000000E+00 -0.13457334922E+04  0.13457334922E+04  0.00000000000E+00 0.  1.
         23    2    1    2    0    0  0.81829956353E+03 -0.23801291001E+03 -0.28142132854E+03  0.90189394683E+03  0.89165050073E+02 0.  0.
        254    2    1    2    0    0 -0.81829956353E+03  0.23801291001E+03 -0.23553703012E+03  0.12726146789E+04  0.91531748993E+03 0.  0.
        -24    2    4    4    0    0 -0.19470226670E+03 -0.31820004814E+03 -0.20358544267E+03  0.43259248197E+03  0.80802102036E+02 0.  0.
         24    2    4    4    0    0 -0.62359729683E+03  0.55621295815E+03 -0.31951587451E+02  0.84002219692E+03  0.79811928638E+02 0.  0.
         11    1    3    3    0    0  0.79926710807E+03 -0.21934501714E+03 -0.28123694127E+03  0.87523389087E+03  0.00000000000E+00 0.  1.
        -11    1    3    3    0    0  0.19032455467E+02 -0.18667892867E+02 -0.18438726612E+00  0.26660055961E+02  0.00000000000E+00 0. -1.
          2    1    6    6  502    0 -0.31872396258E+03  0.26301850148E+03  0.20847304170E+02  0.41376117089E+03  0.00000000000E+00 0. -1.
          1    1    5    5  503    0 -0.44816840816E+01  0.47555888197E+01 -0.60852513762E+01  0.89292441752E+01  0.00000000000E+00 0. -1.
         -2    1    5    5    0  503 -0.19022058262E+03 -0.32295563696E+03 -0.19750019129E+03  0.42366323780E+03  0.00000000000E+00 0.  1.
         -1    1    6    6    0  502 -0.30487333425E+03  0.29319445667E+03 -0.52798891621E+02  0.42626102603E+03  0.00000000000E+00 0.  1.
<mgrwt>
<rscale>  0 0.21121652E+04</rscale>
<asrwt>0</asrwt>
<pdfrwt beam="1">  1        1 0.12750387E+00 0.21121652E+04</pdfrwt>
<pdfrwt beam="2">  1       -1 0.20703592E+00 0.21121652E+04</pdfrwt>
<totfact> 0.25828509E+00</totfact>
</mgrwt>
</event>
<event>
12    1  0.1114484E-007  0.1342957E+04  0.7818608E-02  0.8996177E-01
          2   -1    0    0  501    0  0.00000000000E+00  0.00000000000E+00  0.22275155356E+04  0.22275155356E+04  0.00000000000E+00 0. -1.
         -2   -1    0    0    0  501 -0.00000000000E+00 -0.00000000000E+00 -0.20241541611E+03  0.20241541611E+03  0.00000000000E+00 0.  1.
         23    2    1    2    0    0 -0.32251625796E+03 -0.11400606759E+03  0.66567035208E+03  0.75363266191E+03  0.88493227814E+02 0.  0.
        254    2    1    2    0    0  0.32251625796E+03  0.11400606759E+03  0.13594297674E+04  0.16762982898E+04  0.91919124439E+03 0.  0.
        -24    2    4    4    0    0  0.61259583063E+03  0.16847457499E+03  0.11089628353E+04  0.12806719066E+04  0.81637174744E+02 0.  0.
         24    2    4    4    0    0 -0.29007957267E+03 -0.54468507399E+02  0.25046693214E+03  0.39562638317E+03  0.81691946857E+02 0.  0.
         13    1    3    3    0    0 -0.12132066097E+03 -0.87444741794E+01  0.29286213653E+03  0.31711732785E+03  0.00000000000E+00 0.  1.
        -13    1    3    3    0    0 -0.20119559698E+03 -0.10526159341E+03  0.37280821555E+03  0.43651533407E+03  0.00000000000E+00 0. -1.
          2    1    6    6  502    0  0.42752263562E+01  0.40397167983E+01  0.27919489573E+01  0.65109024864E+01  0.00000000000E+00 0. -1.
          3    1    5    5  503    0  0.43837653919E+03  0.86839185146E+02  0.81134994252E+03  0.92628492561E+03  0.00000000000E+00 0. -1.
         -4    1    5    5    0  503  0.17421929144E+03  0.81635389841E+02  0.29761289275E+03  0.35438698102E+03  0.00000000000E+00 0.  1.
         -1    1    6    6    0  502 -0.29435479903E+03 -0.58508224198E+02  0.24767498319E+03  0.38911548068E+03  0.00000000000E+00 0.  1.
<mgrwt>
<rscale>  0 0.13429572E+04</rscale>
<asrwt>0</asrwt>
<pdfrwt beam="1">  1        2 0.34269468E+00 0.13429572E+04</pdfrwt>
<pdfrwt beam="2">  1       -2 0.31140835E-01 0.13429572E+04</pdfrwt>
<totfact> 0.46654969E+01</totfact>
</mgrwt>
</event>
<event>
12    1  0.1114484E-007  0.1411316E+04  0.7818608E-02  0.8945668E-01
         -2   -1    0    0    0  501 -0.00000000000E+00  0.00000000000E+00  0.21929563476E+03  0.21929563476E+03  0.00000000000E+00 0.  1.
          2   -1    0    0  501    0  0.00000000000E+00 -0.00000000000E+00 -0.22706945901E+04  0.22706945901E+04  0.00000000000E+00 0. -1.
         23    2    1    2    0    0 -0.34129468952E+03  0.22194487662E+03 -0.90912396367E+03  0.10002161163E+04  0.90467146625E+02 0.  0.
        254    2    1    2    0    0  0.34129468952E+03 -0.22194487662E+03 -0.11422749916E+04  0.14897741085E+04  0.86538612456E+03 0.  0.
        -24    2    4    4    0    0  0.60985323113E+03 -0.25201143895E+03 -0.69775794027E+03  0.96360438491E+03  0.78971757708E+02 0.  0.
         24    2    4    4    0    0 -0.26855854161E+03  0.30066562329E+02 -0.44451705136E+03  0.52616972362E+03  0.78939728026E+02 0.  0.
         13    1    3    3    0    0  0.12752151875E+01 -0.39217636222E+01 -0.19569844736E+01  0.45646677769E+01  0.00000000000E+00 0. -1.
        -13    1    3    3    0    0 -0.34256990471E+03  0.22586664024E+03 -0.90716697919E+03  0.99565144851E+03  0.00000000000E+00 0.  1.
          2    1    6    6  502    0 -0.25552669863E+03  0.25800134499E+02 -0.36998643850E+03  0.45038817183E+03  0.00000000000E+00 0. -1.
          1    1    5    5  503    0  0.52365233823E+03 -0.21967859276E+03 -0.55718340644E+03  0.79556508462E+03  0.00000000000E+00 0. -1.
         -2    1    5    5    0  503  0.86200892905E+02 -0.32332846185E+02 -0.14057453383E+03  0.16803930029E+03  0.00000000000E+00 0.  1.
         -1    1    6    6    0  502 -0.13031842983E+02  0.42664278294E+01 -0.74530612860E+02  0.75781551787E+02  0.00000000000E+00 0.  1.
<mgrwt>
<rscale>  0 0.14113163E+04</rscale>
<asrwt>0</asrwt>
<pdfrwt beam="1">  1        2 0.34933764E+00 0.14113163E+04</pdfrwt>
<pdfrwt beam="2">  1       -2 0.33737789E-01 0.14113163E+04</pdfrwt>
<totfact> 0.37715477E+01</totfact>
</mgrwt>
</event>
<event>
12    1  0.1114484E-007  0.1494530E+04  0.7818608E-02  0.8888099E-01
         -2   -1    0    0    0  501 -0.00000000000E+00  0.00000000000E+00  0.42553377181E+03  0.42553377181E+03  0.00000000000E+00 0.  1.
          2   -1    0    0  501    0  0.00000000000E+00 -0.00000000000E+00 -0.13122454910E+04  0.13122454910E+04  0.00000000000E+00 0. -1.
         23    2    1    2    0    0 -0.47459091400E+03  0.39430915541E+02 -0.21315165680E+03  0.52943668613E+03  0.89879046888E+02 0.  0.
        254    2    1    2    0    0  0.47459091400E+03 -0.39430915541E+02 -0.67356006240E+03  0.12083425767E+04  0.88295939444E+03 0.  0.
        -24    2    4    4    0    0  0.18854350501E+03  0.20746404683E+03  0.12784328473E+03  0.31871739177E+03  0.81528438957E+02 0.  0.
         24    2    4    4    0    0  0.28604740899E+03 -0.24689496237E+03 -0.80140334713E+03  0.88962518492E+03  0.80033756809E+02 0.  0.
         11    1    3    3    0    0 -0.70494839412E+02 -0.14908753767E+02 -0.65607096892E+01  0.72352168138E+02  0.00000000000E+00 0. -1.
        -11    1    3    3    0    0 -0.40409607459E+03  0.54339669309E+02 -0.20659094711E+03  0.45708451799E+03  0.00000000000E+00 0.  1.
          4    1    6    6  502    0  0.20792540716E+03 -0.15924223143E+03 -0.62571072424E+03  0.67831038149E+03  0.00000000000E+00 0. -1.
          1    1    5    5  503    0  0.10179930479E+03  0.94764759607E+02  0.10591812076E+03  0.17482021172E+03  0.00000000000E+00 0. -1.
         -2    1    5    5    0  503  0.86744200218E+02  0.11269928722E+03  0.21925163965E+02  0.14389718005E+03  0.00000000000E+00 0.  1.
         -3    1    6    6    0  502  0.78122001829E+02 -0.87652730942E+02 -0.17569262289E+03  0.21131480343E+03  0.00000000000E+00 0.  1.
<mgrwt>
<rscale>  0 0.14945297E+04</rscale>
<asrwt>0</asrwt>
<pdfrwt beam="1">  1        2 0.20188392E+00 0.14945297E+04</pdfrwt>
<pdfrwt beam="2">  1       -2 0.65466735E-01 0.14945297E+04</pdfrwt>
<totfact> 0.33790352E+01</totfact>
</mgrwt>
</event>
<event>
12    1  0.1114484E-007  0.1687702E+04  0.7818608E-02  0.8768410E-01
         -2   -1    0    0    0  501 -0.00000000000E+00  0.00000000000E+00  0.23831674267E+03  0.23831674267E+03  0.00000000000E+00 0.  1.
          2   -1    0    0  501    0  0.00000000000E+00 -0.00000000000E+00 -0.29879747534E+04  0.29879747534E+04  0.00000000000E+00 0. -1.
         23    2    1    2    0    0  0.21874494784E+03 -0.29789187283E+03 -0.18746202118E+04  0.19128657019E+04  0.90913887061E+02 0.  0.
        254    2    1    2    0    0 -0.21874494784E+03  0.29789187283E+03 -0.87503779894E+03  0.13134257942E+04  0.90708723239E+03 0.  0.
        -24    2    4    4    0    0 -0.49444677816E+03 -0.59985171765E+02 -0.57176708030E+03  0.76327430121E+03  0.87144865082E+02 0.  0.
         24    2    4    4    0    0  0.27570183032E+03  0.35787704460E+03 -0.30327071864E+03  0.55015149297E+03  0.81277660805E+02 0.  0.
         13    1    3    3    0    0 -0.63146477430E+01 -0.33392819234E+01 -0.14446599263E+02  0.16116135087E+02  0.00000000000E+00 0.  1.
        -13    1    3    3    0    0  0.22505959558E+03 -0.29455259091E+03 -0.18601736126E+04  0.18967495668E+04  0.00000000000E+00 0. -1.
          2    1    6    6  502    0  0.10903110644E+03  0.10945274605E+03 -0.64600612463E+02  0.16745424724E+03  0.00000000000E+00 0. -1.
          1    1    5    5  503    0 -0.32600956366E+03 -0.20658717804E+02 -0.42762878088E+03  0.53812209809E+03  0.00000000000E+00 0. -1.
         -2    1    5    5    0  503 -0.16843721450E+03 -0.39326453961E+02 -0.14413829943E+03  0.22515220312E+03  0.00000000000E+00 0.  1.
         -1    1    6    6    0  502  0.16667072388E+03  0.24842429855E+03 -0.23867010618E+03  0.38269724573E+03  0.00000000000E+00 0.  1.
<mgrwt>
<rscale>  0 0.16877019E+04</rscale>
<asrwt>0</asrwt>
<pdfrwt beam="1">  1        2 0.45968843E+00 0.16877019E+04</pdfrwt>
<pdfrwt beam="2">  1       -2 0.36664114E-01 0.16877019E+04</pdfrwt>
<totfact> 0.11879983E+01</totfact>
</mgrwt>
</event>
<event>
12    1  0.1114484E-007  0.1451094E+04  0.7818608E-02  0.8917642E-01
          1   -1    0    0  501    0  0.00000000000E+00  0.00000000000E+00  0.53126063901E+03  0.53126063901E+03  0.00000000000E+00 0. -1.
         -1   -1    0    0    0  501 -0.00000000000E+00 -0.00000000000E+00 -0.99088539711E+03  0.99088539711E+03  0.00000000000E+00 0.  1.
         23    2    1    2    0    0  0.15746539750E+03  0.28427855649E+03  0.22345987275E+03  0.40457892177E+03  0.90222725073E+02 0.  0.
        254    2    1    2    0    0 -0.15746539750E+03 -0.28427855649E+03 -0.68308463086E+03  0.11175671143E+04  0.82264329637E+03 0.  0.
        -24    2    4    4    0    0  0.22297805840E+02 -0.38195436510E+03 -0.78370992163E+03  0.87568897389E+03  0.79016508148E+02 0.  0.
         24    2    4    4    0    0 -0.17976320334E+03  0.97675808611E+02  0.10062529077E+03  0.24187814046E+03  0.80772599474E+02 0.  0.
         11    1    3    3    0    0  0.69675297028E+02  0.67326501160E+02  0.31489360244E+02  0.10187779239E+03  0.00000000000E+00 0.  1.
        -11    1    3    3    0    0  0.87790100474E+02  0.21695205533E+03  0.19197051251E+03  0.30270112938E+03  0.00000000000E+00 0. -1.
          4    1    6    6  502    0 -0.41924194117E+02  0.63597122969E+02  0.50080442855E+02  0.91160752843E+02  0.00000000000E+00 0. -1.
          1    1    5    5  503    0 -0.25205495497E+02 -0.23217547291E+03 -0.47119770006E+03  0.52589736619E+03  0.00000000000E+00 0. -1.
         -2    1    5    5    0  503  0.47503301337E+02 -0.14977889219E+03 -0.31251222157E+03  0.34979160770E+03  0.00000000000E+00 0.  1.
         -3    1    6    6    0  502 -0.13783900923E+03  0.34078685642E+02  0.50544847918E+02  0.15071738762E+03  0.00000000000E+00 0.  1.
<mgrwt>
<rscale>  0 0.14510939E+04</rscale>
<asrwt>0</asrwt>
<pdfrwt beam="1">  1        1 0.81732406E-01 0.14510939E+04</pdfrwt>
<pdfrwt beam="2">  1       -1 0.15244391E+00 0.14510939E+04</pdfrwt>
<totfact> 0.13210743E+01</totfact>
</mgrwt>
</event>
<event>
12    1  0.1114484E-007  0.1449053E+04  0.7818608E-02  0.8919058E-01
          2   -1    0    0  501    0  0.00000000000E+00  0.00000000000E+00  0.19017254803E+04  0.19017254803E+04  0.00000000000E+00 0. -1.
         -2   -1    0    0    0  501 -0.00000000000E+00 -0.00000000000E+00 -0.27603268967E+03  0.27603268967E+03  0.00000000000E+00 0.  1.
         23    2    1    2    0    0 -0.58612545964E+01 -0.18155460063E+03  0.11287382455E+04  0.11469989049E+04  0.92520449757E+02 0.  0.
        254    2    1    2    0    0  0.58612545964E+01  0.18155460063E+03  0.49695454507E+03  0.10307592650E+04  0.88459279629E+03 0.  0.
        -24    2    4    4    0    0  0.40953826342E+03  0.22682674357E+03  0.35546969220E+03  0.59334137420E+03  0.80767093903E+02 0.  0.
         24    2    4    4    0    0 -0.40367700883E+03 -0.45272142938E+02  0.14148485287E+03  0.43741789082E+03  0.79446543287E+02 0.  0.
         11    1    3    3    0    0 -0.33982161511E+02 -0.15482336170E+03  0.10018367041E+04  0.10142986948E+04  0.00000000000E+00 0. -1.
        -11    1    3    3    0    0  0.28120906915E+02 -0.26731238933E+02  0.12690154143E+03  0.13270021009E+03  0.00000000000E+00 0.  1.
          4    1    6    6  502    0 -0.14353130440E+03 -0.51317562182E+02  0.35921462926E+02  0.15660484996E+03  0.00000000000E+00 0. -1.
          1    1    5    5  503    0  0.37218997466E+03  0.22545887351E+03  0.34253316080E+03  0.55379242242E+03  0.00000000000E+00 0. -1.
         -2    1    5    5    0  503  0.37348288762E+02  0.13678700578E+01  0.12936531395E+02  0.39548951774E+02  0.00000000000E+00 0.  1.
         -3    1    6    6    0  502 -0.26014570442E+03  0.60454192434E+01  0.10556338994E+03  0.28081304086E+03  0.00000000000E+00 0.  1.
<mgrwt>
<rscale>  0 0.14490527E+04</rscale>
<asrwt>0</asrwt>
<pdfrwt beam="1">  1        2 0.29257314E+00 0.14490527E+04</pdfrwt>
<pdfrwt beam="2">  1       -2 0.42466569E-01 0.14490527E+04</pdfrwt>
<totfact> 0.38632560E+01</totfact>
</mgrwt>
</event>
<event>
12    1  0.1114484E-007  0.2087471E+04  0.7818608E-02  0.8566783E-01
         -2   -1    0    0    0  501 -0.00000000000E+00  0.00000000000E+00  0.11795996411E+04  0.11795996411E+04  0.00000000000E+00 0.  1.
          2   -1    0    0  501    0  0.00000000000E+00 -0.00000000000E+00 -0.92351954676E+03  0.92351954676E+03  0.00000000000E+00 0. -1.
         23    2    1    2    0    0  0.12620483099E+03 -0.30682231604E+03 -0.67091072811E+03  0.75396657563E+03  0.90976915172E+02 0.  0.
        254    2    1    2    0    0 -0.12620483099E+03  0.30682231604E+03  0.92699082247E+03  0.13491526123E+04  0.92240619752E+03 0.  0.
        -24    2    4    4    0    0  0.37154397686E+03  0.25456900002E+03  0.56586027477E+03  0.72716232482E+03  0.75610141932E+02 0.  0.
         24    2    4    4    0    0 -0.49774880785E+03  0.52253316025E+02  0.36113054770E+03  0.62199028744E+03  0.77281048356E+02 0.  0.
         13    1    3    3    0    0  0.37290949666E+02 -0.12753485283E+03 -0.36477657730E+03  0.38822378206E+03  0.00000000000E+00 0. -1.
        -13    1    3    3    0    0  0.88913881325E+02 -0.17928746321E+03 -0.30613415081E+03  0.36574279357E+03  0.00000000000E+00 0.  1.
          2    1    6    6  502    0 -0.29818936134E+00 -0.21382033124E+01 -0.25784672020E+01  0.33629337508E+01  0.00000000000E+00 0. -1.
          1    1    5    5  503    0  0.22011278165E+03  0.11580981683E+03  0.34804430327E+03  0.42778077021E+03  0.00000000000E+00 0. -1.
         -2    1    5    5    0  503  0.15143119520E+03  0.13875918319E+03  0.21781597150E+03  0.29938155461E+03  0.00000000000E+00 0.  1.
         -1    1    6    6    0  502 -0.49745061849E+03  0.54391519337E+02  0.36370901491E+03  0.61862735369E+03  0.00000000000E+00 0.  1.
<mgrwt>
<rscale>  0 0.20874706E+04</rscale>
<asrwt>0</asrwt>
<pdfrwt beam="1">  1        2 0.14207993E+00 0.20874706E+04</pdfrwt>
<pdfrwt beam="2">  1       -2 0.18147687E+00 0.20874706E+04</pdfrwt>
<totfact> 0.46179636E+00</totfact>
</mgrwt>
</event>
<event>
12    1  0.1114484E-007  0.5342112E+04  0.7818608E-02  0.7777796E-01
          1   -1    0    0  501    0  0.00000000000E+00  0.00000000000E+00  0.26014378009E+04  0.26014378009E+04  0.00000000000E+00 0. -1.
         -1   -1    0    0    0  501 -0.00000000000E+00 -0.00000000000E+00 -0.27425373947E+04  0.27425373947E+04  0.00000000000E+00 0.  1.
         23    2    1    2    0    0  0.77406854222E+01 -0.27998946577E+03  0.25105046618E+04  0.25277654674E+04  0.92252814585E+02 0.  0.
        254    2    1    2    0    0 -0.77406854222E+01  0.27998946577E+03 -0.26516042556E+04  0.28162097282E+04  0.90640944692E+03 0.  0.
        -24    2    4    4    0    0 -0.22433610441E+03  0.24336777134E+03 -0.30470192819E+03  0.45771207043E+03  0.84276417257E+02 0.  0.
         24    2    4    4    0    0  0.21659541899E+03  0.36621694440E+02 -0.23469023274E+04  0.23584976577E+04  0.79409968182E+02 0.  0.
         11    1    3    3    0    0 -0.11800404827E+01 -0.21660591268E+03  0.22058252706E+04  0.22164351193E+04  0.00000000000E+00 0. -1.
        -11    1    3    3    0    0  0.89207259049E+01 -0.63383553090E+02  0.30467939127E+03  0.31133034805E+03  0.00000000000E+00 0.  1.
          2    1    6    6  502    0  0.42292005785E+02 -0.23428598592E+02 -0.57573366342E+03  0.57776012685E+03  0.00000000000E+00 0. -1.
          3    1    5    5  503    0 -0.14277836074E+02  0.93396546746E+01 -0.50629798512E+02  0.53427167713E+02  0.00000000000E+00 0. -1.
         -4    1    5    5    0  503 -0.21005826834E+03  0.23402811666E+03 -0.25407212968E+03  0.40428490272E+03  0.00000000000E+00 0.  1.
         -1    1    6    6    0  502  0.17430341321E+03  0.60050293032E+02 -0.17711686640E+04  0.17807375309E+04  0.00000000000E+00 0.  1.
<mgrwt>
<rscale>  0 0.53421121E+04</rscale>
<asrwt>0</asrwt>
<pdfrwt beam="1">  1        1 0.40022120E+00 0.53421121E+04</pdfrwt>
<pdfrwt beam="2">  1       -1 0.42192883E+00 0.53421121E+04</pdfrwt>
<totfact> 0.40967883E-03</totfact>
</mgrwt>
</event>
<event>
12    1  0.1114484E-007  0.2227394E+04  0.7818608E-02  0.8507112E-01
         -1   -1    0    0    0  501 -0.00000000000E+00  0.00000000000E+00  0.19967297197E+04  0.19967297197E+04  0.00000000000E+00 0.  1.
          1   -1    0    0  501    0  0.00000000000E+00 -0.00000000000E+00 -0.62117621580E+03  0.62117621580E+03  0.00000000000E+00 0. -1.
         23    2    1    2    0    0  0.26536207178E+03  0.29885173709E+03 -0.40917397505E+03  0.57978896954E+03  0.94881596967E+02 0.  0.
        254    2    1    2    0    0 -0.26536207178E+03 -0.29885173709E+03  0.17847274790E+04  0.20381169660E+04  0.89941047519E+03 0.  0.
        -24    2    4    4    0    0 -0.77542072107E+02 -0.51080835134E+03  0.51370895805E+03  0.73350063724E+03  0.84784117086E+02 0.  0.
         24    2    4    4    0    0 -0.18781999967E+03  0.21195661425E+03  0.12710185209E+04  0.13046163287E+04  0.79584709886E+02 0.  0.
         13    1    3    3    0    0  0.20747425764E+03  0.16763408497E+03 -0.25075944554E+03  0.36609705483E+03  0.00000000000E+00 0. -1.
        -13    1    3    3    0    0  0.57887814139E+02  0.13121765212E+03 -0.15841452951E+03  0.21369191471E+03  0.00000000000E+00 0.  1.
          2    1    6    6  502    0 -0.12248449119E+03  0.17996037378E+03  0.85452797304E+03  0.88181984748E+03  0.00000000000E+00 0. -1.
          1    1    5    5  503    0 -0.70055253467E+02 -0.45966770585E+03  0.49338967901E+03  0.67796424219E+03  0.00000000000E+00 0. -1.
         -2    1    5    5    0  503 -0.74868186399E+01 -0.51140645486E+02  0.20319279039E+02  0.55536395047E+02  0.00000000000E+00 0.  1.
         -1    1    6    6    0  502 -0.65335508479E+02  0.31996240474E+02  0.41649054789E+03  0.42279648125E+03  0.00000000000E+00 0.  1.
<mgrwt>
<rscale>  0 0.22273940E+04</rscale>
<asrwt>0</asrwt>
<pdfrwt beam="1">  1        1 0.95565572E-01 0.22273940E+04</pdfrwt>
<pdfrwt beam="2">  1       -1 0.30718919E+00 0.22273940E+04</pdfrwt>
<totfact> 0.87876538E-01</totfact>
</mgrwt>
</event>
<event>
12    1  0.1114484E-007  0.1300028E+04  0.7818608E-02  0.9029543E-01
          2   -1    0    0  501    0  0.00000000000E+00  0.00000000000E+00  0.12931824276E+04  0.12931824276E+04  0.00000000000E+00 0. -1.
         -2   -1    0    0    0  501 -0.00000000000E+00 -0.00000000000E+00 -0.32672737520E+03  0.32672737520E+03  0.00000000000E+00 0.  1.
         23    2    1    2    0    0 -0.21358322474E+03  0.15304947578E+03  0.17141109824E+02  0.27929133125E+03  0.93101525982E+02 0.  0.
        254    2    1    2    0    0  0.21358322474E+03 -0.15304947578E+03  0.94931394259E+03  0.13406184716E+04  0.90940584381E+03 0.  0.
        -24    2    4    4    0    0  0.20273208282E+03 -0.17467568622E+01 -0.12637083227E+03  0.25135195856E+03  0.78133675594E+02 0.  0.
         24    2    4    4    0    0  0.10851141919E+02 -0.15130271892E+03  0.10756847749E+04  0.10892665130E+04  0.79959623743E+02 0.  0.
         11    1    3    3    0    0  0.85561779928E+01  0.64897030514E+01 -0.57433586426E+01  0.12178283789E+02  0.00000000000E+00 0. -1.
        -11    1    3    3    0    0 -0.22213940273E+03  0.14655977273E+03  0.22884468467E+02  0.26711304746E+03  0.00000000000E+00 0.  1.
          2    1    6    6  502    0  0.43171876934E+02 -0.63486441302E+02  0.54749105532E+03  0.55284789485E+03  0.00000000000E+00 0. -1.
          1    1    5    5  503    0  0.68708417924E+02 -0.36202981246E+02 -0.58448174868E+02  0.97199237086E+02  0.00000000000E+00 0. -1.
         -2    1    5    5    0  503  0.13402366489E+03  0.34456224384E+02 -0.67922657403E+02  0.15415272148E+03  0.00000000000E+00 0.  1.
         -1    1    6    6    0  502 -0.32320735016E+02 -0.87816277617E+02  0.52819371954E+03  0.53641861814E+03  0.00000000000E+00 0.  1.
<mgrwt>
<rscale>  0 0.13000278E+04</rscale>
<asrwt>0</asrwt>
<pdfrwt beam="1">  1        2 0.19895114E+00 0.13000278E+04</pdfrwt>
<pdfrwt beam="2">  1       -2 0.50265751E-01 0.13000278E+04</pdfrwt>
<totfact> 0.61200802E+01</totfact>
</mgrwt>
</event>
<event>
12    1  0.1114484E-007  0.1541818E+04  0.7818608E-02  0.8857111E-01
         -2   -1    0    0    0  501 -0.00000000000E+00  0.00000000000E+00  0.47561228831E+03  0.47561228831E+03  0.00000000000E+00 0.  1.
          2   -1    0    0  501    0  0.00000000000E+00 -0.00000000000E+00 -0.12495487316E+04  0.12495487316E+04  0.00000000000E+00 0. -1.
         23    2    1    2    0    0 -0.56819596503E+02 -0.17705593008E+03 -0.78807349837E+03  0.81347598217E+03  0.78141319422E+02 0.  0.
        254    2    1    2    0    0  0.56819596503E+02  0.17705593008E+03  0.14137055116E+02  0.91168503770E+03  0.89240824890E+03 0.  0.
        -24    2    4    4    0    0  0.21606446402E+03 -0.18286050057E+03 -0.28602015731E+03  0.41036066889E+03  0.80414755510E+02 0.  0.
         24    2    4    4    0    0 -0.15924486751E+03  0.35991643065E+03  0.30015721242E+03  0.50132436881E+03  0.79580184164E+02 0.  0.
         13    1    3    3    0    0  0.17726724582E+02 -0.25470986831E+02 -0.16595301201E+03  0.16882952979E+03  0.00000000000E+00 0.  1.
        -13    1    3    3    0    0 -0.74546321085E+02 -0.15158494325E+03 -0.62212048636E+03  0.64464645238E+03  0.00000000000E+00 0. -1.
          4    1    6    6  502    0 -0.12192837442E+03  0.30463645895E+03  0.21152518041E+03  0.39040082295E+03  0.00000000000E+00 0. -1.
          1    1    5    5  503    0  0.90612654161E+02 -0.12917400244E+03 -0.15550443777E+03  0.22153601551E+03  0.00000000000E+00 0. -1.
         -2    1    5    5    0  503  0.12545180986E+03 -0.53686498128E+02 -0.13051571953E+03  0.18882465338E+03  0.00000000000E+00 0.  1.
         -3    1    6    6    0  502 -0.37316493093E+02  0.55279971701E+02  0.88632032013E+02  0.11092354586E+03  0.00000000000E+00 0.  1.
<mgrwt>
<rscale>  0 0.15418181E+04</rscale>
<asrwt>0</asrwt>
<pdfrwt beam="1">  1        2 0.19223827E+00 0.15418181E+04</pdfrwt>
<pdfrwt beam="2">  1       -2 0.73171122E-01 0.15418181E+04</pdfrwt>
<totfact> 0.28751216E+01</totfact>
</mgrwt>
</event>
<event>
12    1  0.1114484E-007  0.1594869E+04  0.7818608E-02  0.8823707E-01
         -1   -1    0    0    0  501 -0.00000000000E+00  0.00000000000E+00  0.94519527809E+03  0.94519527809E+03  0.00000000000E+00 0.  1.
          1   -1    0    0  501    0  0.00000000000E+00 -0.00000000000E+00 -0.67277254083E+03  0.67277254083E+03  0.00000000000E+00 0. -1.
         23    2    1    2    0    0  0.46975246225E+03 -0.25943197518E+03  0.11283314400E+03  0.55369117651E+03  0.76617720064E+02 0.  0.
        254    2    1    2    0    0 -0.46975246225E+03  0.25943197518E+03  0.15958959325E+03  0.10642766424E+04  0.90512076972E+03 0.  0.
        -24    2    4    4    0    0 -0.49250572482E+03  0.24287685428E+03 -0.27667452613E+03  0.61987263662E+03  0.78372424318E+02 0.  0.
         24    2    4    4    0    0  0.22753262572E+02  0.16555120896E+02  0.43626411938E+03  0.44440400579E+03  0.79854589866E+02 0.  0.
         13    1    3    3    0    0  0.27799763996E+03 -0.13462285257E+03  0.29873014709E+02  0.31031983060E+03  0.00000000000E+00 0.  1.
        -13    1    3    3    0    0  0.19175482229E+03 -0.12480912260E+03  0.82960129296E+02  0.24337134591E+03  0.00000000000E+00 0. -1.
          2    1    6    6  502    0 -0.25691444228E+02 -0.95890017982E+01  0.10128038839E+03  0.10492719540E+03  0.00000000000E+00 0. -1.
          1    1    5    5  503    0 -0.26161009932E+03  0.14105904538E+03 -0.19136641239E+03  0.35349484033E+03  0.00000000000E+00 0. -1.
         -2    1    5    5    0  503 -0.23089562550E+03  0.10181780890E+03 -0.85308113734E+02  0.26637779628E+03  0.00000000000E+00 0.  1.
         -1    1    6    6    0  502  0.48444706799E+02  0.26144122695E+02  0.33498373099E+03  0.33947681039E+03  0.00000000000E+00 0.  1.
<mgrwt>
<rscale>  0 0.15948686E+04</rscale>
<asrwt>0</asrwt>
<pdfrwt beam="1">  1        1 0.10350347E+00 0.15948686E+04</pdfrwt>
<pdfrwt beam="2">  1       -1 0.14541466E+00 0.15948686E+04</pdfrwt>
<totfact> 0.10531349E+01</totfact>
</mgrwt>
</event>
<event>
12    1  0.1114484E-007  0.2531529E+04  0.7818608E-02  0.8391839E-01
          2   -1    0    0  501    0  0.00000000000E+00  0.00000000000E+00  0.11181957971E+04  0.11181957971E+04  0.00000000000E+00 0. -1.
         -2   -1    0    0    0  501 -0.00000000000E+00 -0.00000000000E+00 -0.14328074263E+04  0.14328074263E+04  0.00000000000E+00 0.  1.
         23    2    1    2    0    0  0.63597507933E+03  0.50529167803E+03  0.60843646327E+03  0.10188812582E+04  0.90222542101E+02 0.  0.
        254    2    1    2    0    0 -0.63597507933E+03 -0.50529167803E+03 -0.92304809252E+03  0.15321219652E+04  0.91410937728E+03 0.  0.
        -24    2    4    4    0    0 -0.26064726871E+03 -0.49366612688E+03 -0.35477784268E+02  0.56500987600E+03  0.79587959473E+02 0.  0.
         24    2    4    4    0    0 -0.37532781062E+03 -0.11625551149E+02 -0.88757030825E+03  0.96711208917E+03  0.80737983957E+02 0.  0.
         11    1    3    3    0    0  0.38627740151E+03  0.28651290291E+03  0.41095978416E+03  0.63260399829E+03  0.00000000000E+00 0.  1.
        -11    1    3    3    0    0  0.24969767782E+03  0.21877877511E+03  0.19747667912E+03  0.38627725993E+03  0.00000000000E+00 0. -1.
          2    1    6    6  502    0 -0.26015191647E+03  0.20512553476E+02 -0.66665613653E+03  0.71591213767E+03  0.00000000000E+00 0. -1.
          1    1    5    5  503    0 -0.23937946301E+03 -0.46746366151E+03 -0.14734120779E+02  0.52539689422E+03  0.00000000000E+00 0. -1.
         -2    1    5    5    0  503 -0.21267805697E+02 -0.26202465363E+02 -0.20743663489E+02  0.39612981776E+02  0.00000000000E+00 0.  1.
         -3    1    6    6    0  502 -0.11517589415E+03 -0.32138104625E+02 -0.22091417173E+03  0.25119995150E+03  0.00000000000E+00 0.  1.
<mgrwt>
<rscale>  0 0.25315286E+04</rscale>
<asrwt>0</asrwt>
<pdfrwt beam="1">  1        2 0.17203012E+00 0.25315286E+04</pdfrwt>
<pdfrwt beam="2">  1       -2 0.22043191E+00 0.25315286E+04</pdfrwt>
<totfact> 0.18547495E+00</totfact>
</mgrwt>
</event>
<event>
12    1  0.1114484E-007  0.2068998E+04  0.7818608E-02  0.8575024E-01
         -2   -1    0    0    0  501 -0.00000000000E+00  0.00000000000E+00  0.32105863577E+03  0.32105863577E+03  0.00000000000E+00 0.  1.
          2   -1    0    0  501    0  0.00000000000E+00 -0.00000000000E+00 -0.33333115823E+04  0.33333115823E+04  0.00000000000E+00 0. -1.
         23    2    1    2    0    0 -0.56906509321E+03  0.15220749502E+03 -0.23196303687E+04  0.23946259349E+04  0.80908090963E+02 0.  0.
        254    2    1    2    0    0  0.56906509321E+03 -0.15220749502E+03 -0.69262257789E+03  0.12597442832E+04  0.87191021425E+03 0.  0.
        -24    2    4    4    0    0  0.31135128534E+03 -0.31262478863E+03 -0.80786411952E+03  0.92381608975E+03  0.78216690767E+02 0.  0.
         24    2    4    4    0    0  0.25771380786E+03  0.16041729361E+03  0.11524154163E+03  0.33592819341E+03  0.86122142098E+02 0.  0.
         11    1    3    3    0    0 -0.36464707853E+02  0.11823255740E+02 -0.25163760816E+03  0.25454066500E+03  0.00000000000E+00 0.  1.
        -11    1    3    3    0    0 -0.53260038535E+03  0.14038423928E+03 -0.20679927605E+04  0.21400852700E+04  0.00000000000E+00 0. -1.
          4    1    6    6  502    0  0.10443041083E+03  0.26172046297E+02  0.66082512092E+02  0.12632333560E+03  0.00000000000E+00 0. -1.
          1    1    5    5  503    0  0.13588565119E+03 -0.90534296122E+02 -0.33596692428E+03  0.37354403112E+03  0.00000000000E+00 0. -1.
         -2    1    5    5    0  503  0.17546563415E+03 -0.22209049251E+03 -0.47189719524E+03  0.55027205863E+03  0.00000000000E+00 0.  1.
         -3    1    6    6    0  502  0.15328339703E+03  0.13424524732E+03  0.49159029541E+02  0.20960485781E+03  0.00000000000E+00 0.  1.
<mgrwt>
<rscale>  0 0.20689983E+04</rscale>
<asrwt>0</asrwt>
<pdfrwt beam="1">  1        2 0.51281719E+00 0.20689983E+04</pdfrwt>
<pdfrwt beam="2">  1       -2 0.49393634E-01 0.20689983E+04</pdfrwt>
<totfact> 0.38065852E+00</totfact>
</mgrwt>
</event>
<event>
12    1  0.1114484E-007  0.1247263E+04  0.7818608E-02  0.9072464E-01
          1   -1    0    0  501    0  0.00000000000E+00  0.00000000000E+00  0.86592665315E+03  0.86592665315E+03  0.00000000000E+00 0. -1.
         -1   -1    0    0    0  501 -0.00000000000E+00 -0.00000000000E+00 -0.44913329293E+03  0.44913329293E+03  0.00000000000E+00 0.  1.
         23    2    1    2    0    0  0.13761452010E+02  0.55093617192E+01  0.40424545550E+03  0.41552451075E+03  0.95007894990E+02 0.  0.
        254    2    1    2    0    0 -0.13761452010E+02 -0.55093617192E+01  0.12547904718E+02  0.89953543533E+03  0.89932575793E+03 0.  0.
        -24    2    4    4    0    0 -0.37679516356E+03 -0.45893553044E+01  0.24914608650E+03  0.45885291465E+03  0.80477123487E+02 0.  0.
         24    2    4    4    0    0  0.36303371155E+03 -0.92000641477E+00 -0.23659818179E+03  0.44068252068E+03  0.80175197396E+02 0.  0.
         11    1    3    3    0    0 -0.33904403780E+02 -0.46352520973E+01  0.27967548884E+03  0.28176119892E+03  0.00000000000E+00 0. -1.
        -11    1    3    3    0    0  0.47665855790E+02  0.10144613817E+02  0.12456996666E+03  0.13376331183E+03  0.00000000000E+00 0.  1.
          2    1    6    6  502    0  0.13240644709E+03 -0.29110224014E+02 -0.11844371754E+03  0.18002162814E+03  0.00000000000E+00 0. -1.
          1    1    5    5  503    0 -0.36624824577E+02  0.23346413857E+02  0.36340750013E+02  0.56631112710E+02  0.00000000000E+00 0. -1.
         -2    1    5    5    0  503 -0.34017033898E+03 -0.27935769161E+02  0.21280533649E+03  0.40222180194E+03  0.00000000000E+00 0.  1.
         -1    1    6    6    0  502  0.23062726446E+03  0.28190217599E+02 -0.11815446425E+03  0.26066089254E+03  0.00000000000E+00 0.  1.
<mgrwt>
<rscale>  0 0.12472634E+04</rscale>
<asrwt>0</asrwt>
<pdfrwt beam="1">  1        1 0.13321949E+00 0.12472634E+04</pdfrwt>
<pdfrwt beam="2">  1       -1 0.69097430E-01 0.12472634E+04</pdfrwt>
<totfact> 0.40597982E+01</totfact>
</mgrwt>
</event>
<event>
12    1  0.1114484E-007  0.2076652E+04  0.7818608E-02  0.8571599E-01
          1   -1    0    0  501    0  0.00000000000E+00  0.00000000000E+00  0.13958265611E+04  0.13958265611E+04  0.00000000000E+00 0.  1.
         -1   -1    0    0    0  501 -0.00000000000E+00 -0.00000000000E+00 -0.77238870660E+03  0.77238870660E+03  0.00000000000E+00 0. -1.
         23    2    1    2    0    0  0.39219249250E+03 -0.58401334613E+03 -0.26558234819E+03  0.75734546587E+03  0.90286385312E+02 0.  0.
        254    2    1    2    0    0 -0.39219249250E+03  0.58401334613E+03  0.88902020266E+03  0.14108698018E+04  0.83982744493E+03 0.  0.
        -24    2    4    4    0    0 -0.44609051853E+03  0.75959917485E+03  0.79360967041E+03  0.11883675801E+04  0.80084576092E+02 0.  0.
         24    2    4    4    0    0  0.53898026034E+02 -0.17558582872E+03  0.95410532245E+02  0.22250222168E+03  0.81662038514E+02 0.  0.
         11    1    3    3    0    0  0.38715067966E+03 -0.53988479293E+03 -0.25558892853E+03  0.71181945660E+03  0.00000000000E+00 0. -1.
        -11    1    3    3    0    0  0.50418128425E+01 -0.44128553198E+02 -0.99934196556E+01  0.45526009275E+02  0.00000000000E+00 0.  1.
          2    1    6    6  502    0  0.35753710687E+02 -0.59057927361E+02  0.76530693111E+02  0.10306848985E+03  0.00000000000E+00 0. -1.
          3    1    5    5  503    0 -0.75546909860E+02  0.15255890386E+03  0.19429302362E+03  0.25832408669E+03  0.00000000000E+00 0. -1.
         -4    1    5    5    0  503 -0.37054360867E+03  0.60704027099E+03  0.59931664679E+03  0.93004349342E+03  0.00000000000E+00 0.  1.
         -1    1    6    6    0  502  0.18144315347E+02 -0.11652790136E+03  0.18879839135E+02  0.11943373183E+03  0.00000000000E+00 0.  1.
<mgrwt>
<rscale>  0 0.20766518E+04</rscale>
<asrwt>0</asrwt>
<pdfrwt beam="1">  1        1 0.21474255E+00 0.20766518E+04</pdfrwt>
<pdfrwt beam="2">  1       -1 0.11882903E+00 0.20766518E+04</pdfrwt>
<totfact> 0.45202837E+00</totfact>
</mgrwt>
</event>
<event>
12    1  0.1114484E-007  0.1559343E+04  0.7818608E-02  0.8845922E-01
         -2   -1    0    0    0  501 -0.00000000000E+00  0.00000000000E+00  0.31320578303E+03  0.31320578303E+03  0.00000000000E+00 0.  1.
          2   -1    0    0  501    0  0.00000000000E+00 -0.00000000000E+00 -0.19408582215E+04  0.19408582215E+04  0.00000000000E+00 0. -1.
         23    2    1    2    0    0  0.35447040818E+03 -0.36789727476E+03 -0.53858321053E+03  0.74773606800E+03  0.89664249739E+02 0.  0.
        254    2    1    2    0    0 -0.35447040818E+03  0.36789727476E+03 -0.10890692280E+04  0.15063279366E+04  0.90661700519E+03 0.  0.
        -24    2    4    4    0    0 -0.54173542618E+03  0.52879080137E+03 -0.93331669543E+03  0.12043727025E+04  0.79602569004E+02 0.  0.
         24    2    4    4    0    0  0.18726501799E+03 -0.16089352661E+03 -0.15575253255E+03  0.30195523406E+03  0.77221746360E+02 0.  0.
         13    1    3    3    0    0  0.14499289418E+03 -0.14547045441E+03 -0.28128779497E+03  0.34829214184E+03  0.00000000000E+00 0.  1.
        -13    1    3    3    0    0  0.20947751400E+03 -0.22242682034E+03 -0.25729541556E+03  0.39944392616E+03  0.00000000000E+00 0. -1.
          4    1    6    6  502    0  0.39769778762E+02 -0.69023662331E+02 -0.21913242899E+02  0.82620163874E+02  0.00000000000E+00 0. -1.
          1    1    5    5  503    0 -0.80175171161E+02  0.55032981902E+02 -0.15489513167E+03  0.18289119438E+03  0.00000000000E+00 0. -1.
         -2    1    5    5    0  503 -0.46156025502E+03  0.47375781947E+03 -0.77842156376E+03  0.10214815081E+04  0.00000000000E+00 0.  1.
         -3    1    6    6    0  502  0.14749523923E+03 -0.91869864281E+02 -0.13383928965E+03  0.21933507019E+03  0.00000000000E+00 0.  1.
<mgrwt>
<rscale>  0 0.15593435E+04</rscale>
<asrwt>0</asrwt>
<pdfrwt beam="1">  1        2 0.29859358E+00 0.15593435E+04</pdfrwt>
<pdfrwt beam="2">  1       -2 0.48185505E-01 0.15593435E+04</pdfrwt>
<totfact> 0.28288166E+01</totfact>
</mgrwt>
</event>
<event>
12    1  0.1114484E-007  0.3092247E+04  0.7818608E-02  0.8217869E-01
         -2   -1    0    0    0  501 -0.00000000000E+00  0.00000000000E+00  0.28426011405E+04  0.28426011405E+04  0.00000000000E+00 0.  1.
          2   -1    0    0  501    0  0.00000000000E+00 -0.00000000000E+00 -0.84095422044E+03  0.84095422044E+03  0.00000000000E+00 0. -1.
         23    2    1    2    0    0  0.67620046131E+03 -0.24955261947E+03  0.23670232981E+04  0.24760719836E+04  0.92787933022E+02 0.  0.
        254    2    1    2    0    0 -0.67620046131E+03  0.24955261947E+03 -0.36537637804E+03  0.12074833773E+04  0.89721381798E+03 0.  0.
        -24    2    4    4    0    0 -0.49010123279E+03  0.42048214686E+03 -0.57588301092E+03  0.86907059172E+03  0.81473903319E+02 0.  0.
         24    2    4    4    0    0 -0.18609922852E+03 -0.17092952739E+03  0.21050663288E+03  0.33841278563E+03  0.79751769887E+02 0.  0.
         11    1    3    3    0    0  0.61500472242E+03 -0.23274487043E+03  0.22325448997E+04  0.23273714170E+04  0.00000000000E+00 0.  1.
        -11    1    3    3    0    0  0.61195738886E+02 -0.16807749036E+02  0.13447839841E+03  0.14870056666E+03  0.00000000000E+00 0. -1.
          2    1    6    6  502    0 -0.73880780384E+00  0.13932621055E+00 -0.59715420473E+01  0.60186845063E+01  0.00000000000E+00 0. -1.
          1    1    5    5  503    0 -0.15932720357E+02 -0.16343507825E+01 -0.15368372335E+02  0.22197061712E+02  0.00000000000E+00 0. -1.
         -2    1    5    5    0  503 -0.47416851243E+03  0.42211649764E+03 -0.56051463858E+03  0.84687353001E+03  0.00000000000E+00 0.  1.
         -1    1    6    6    0  502 -0.18536042071E+03 -0.17106885360E+03  0.21647817493E+03  0.33239410112E+03  0.00000000000E+00 0.  1.
<mgrwt>
<rscale>  0 0.30922467E+04</rscale>
<asrwt>0</asrwt>
<pdfrwt beam="1">  1        2 0.12937757E+00 0.30922467E+04</pdfrwt>
<pdfrwt beam="2">  1       -2 0.43732325E+00 0.30922467E+04</pdfrwt>
<totfact> 0.11506034E-01</totfact>
</mgrwt>
</event>
<event>
12    1  0.1114484E-007  0.1761956E+04  0.7818608E-02  0.8726796E-01
          2   -1    0    0  501    0  0.00000000000E+00  0.00000000000E+00  0.42917002288E+03  0.42917002288E+03  0.00000000000E+00 0. -1.
         -2   -1    0    0    0  501 -0.00000000000E+00 -0.00000000000E+00 -0.18084265428E+04  0.18084265428E+04  0.00000000000E+00 0.  1.
         23    2    1    2    0    0  0.27862005451E+03  0.26059768675E+03  0.15334704729E+03  0.42094688981E+03  0.90225705923E+02 0.  0.
        254    2    1    2    0    0 -0.27862005451E+03 -0.26059768675E+03 -0.15326035673E+04  0.18166496759E+04  0.89766478236E+03 0.  0.
        -24    2    4    4    0    0 -0.52166317022E+03 -0.38312437680E+03 -0.80588250479E+03  0.10365408071E+04  0.77804125271E+02 0.  0.
         24    2    4    4    0    0  0.24304311570E+03  0.12252669005E+03 -0.72672106247E+03  0.78010886886E+03  0.79772167865E+02 0.  0.
         11    1    3    3    0    0  0.24202505260E+03  0.23444377699E+03  0.10065981961E+03  0.35167088298E+03  0.00000000000E+00 0. -1.
        -11    1    3    3    0    0  0.36595001919E+02  0.26153909765E+02  0.52687227683E+02  0.69276006831E+02  0.00000000000E+00 0.  1.
          4    1    6    6  502    0  0.17170026203E+03  0.72197435097E+02 -0.58212598102E+03  0.61119890985E+03  0.00000000000E+00 0. -1.
          1    1    5    5  503    0 -0.39441263764E+03 -0.31981486347E+03 -0.66172778593E+03  0.83410223492E+03  0.00000000000E+00 0. -1.
         -2    1    5    5    0  503 -0.12725053258E+03 -0.63309513330E+02 -0.14415471885E+03  0.20243857213E+03  0.00000000000E+00 0.  1.
         -3    1    6    6    0  502  0.71342853672E+02  0.50329254949E+02 -0.14459508145E+03  0.16890995901E+03  0.00000000000E+00 0.  1.
<mgrwt>
<rscale>  0 0.17619563E+04</rscale>
<asrwt>0</asrwt>
<pdfrwt beam="1">  1        2 0.66026157E-01 0.17619563E+04</pdfrwt>
<pdfrwt beam="2">  1       -2 0.27821947E+00 0.17619563E+04</pdfrwt>
<totfact> 0.30047455E+00</totfact>
</mgrwt>
</event>
<event>
12    1  0.1114484E-007  0.2098889E+04  0.7818608E-02  0.8561733E-01
          1   -1    0    0  501    0  0.00000000000E+00  0.00000000000E+00  0.15332869604E+04  0.15332869604E+04  0.00000000000E+00 0. -1.
         -1   -1    0    0    0  501 -0.00000000000E+00 -0.00000000000E+00 -0.71828297023E+03  0.71828297023E+03  0.00000000000E+00 0.  1.
         23    2    1    2    0    0 -0.14925584926E+03 -0.20918630021E+03  0.12032393182E+04  0.12336559241E+04  0.89921440510E+02 0.  0.
        254    2    1    2    0    0  0.14925584926E+03  0.20918630021E+03 -0.38823532805E+03  0.10179140065E+04  0.90519944652E+03 0.  0.
        -24    2    4    4    0    0  0.40057524958E+02  0.49444942727E+03  0.19359525720E+02  0.50269599230E+03  0.79016631178E+02 0.  0.
         24    2    4    4    0    0  0.10919832431E+03 -0.28526312706E+03 -0.40759485377E+03  0.51521801422E+03  0.77567465298E+02 0.  0.
         13    1    3    3    0    0 -0.15487923009E+03 -0.21441071901E+03  0.11640339233E+04  0.11937062063E+04  0.00000000000E+00 0. -1.
        -13    1    3    3    0    0  0.56233808248E+01  0.52244188012E+01  0.39205394897E+02  0.39949717806E+02  0.00000000000E+00 0.  1.
          2    1    6    6  502    0  0.26050199620E+02 -0.15670624776E+03 -0.17095524386E+03  0.23336914189E+03  0.00000000000E+00 0. -1.
          1    1    5    5  503    0  0.11566460030E+02  0.17696744561E+02 -0.11555369884E+02  0.24093242597E+02  0.00000000000E+00 0. -1.
         -2    1    5    5    0  503  0.28491064929E+02  0.47675268271E+03  0.30914895604E+02  0.47860274970E+03  0.00000000000E+00 0.  1.
         -1    1    6    6    0  502  0.83148124686E+02 -0.12855687930E+03 -0.23663960991E+03  0.28184887233E+03  0.00000000000E+00 0.  1.
<mgrwt>
<rscale>  0 0.20988891E+04</rscale>
<asrwt>0</asrwt>
<pdfrwt beam="1">  1        1 0.23589030E+00 0.20988891E+04</pdfrwt>
<pdfrwt beam="2">  1       -1 0.11050507E+00 0.20988891E+04</pdfrwt>
<totfact> 0.43073027E+00</totfact>
</mgrwt>
</event>
<event>
12    1  0.1114484E-007  0.1327509E+04  0.7818608E-02  0.9008030E-01
          1   -1    0    0  501    0  0.00000000000E+00  0.00000000000E+00  0.10340313594E+04  0.10340313594E+04  0.00000000000E+00 0. -1.
         -1   -1    0    0    0  501 -0.00000000000E+00 -0.00000000000E+00 -0.42607060299E+03  0.42607060299E+03  0.00000000000E+00 0.  1.
         23    2    1    2    0    0  0.44759470437E+01  0.14759046428E+03  0.52064558437E+03  0.54721227760E+03  0.81033776816E+02 0.  0.
        254    2    1    2    0    0 -0.44759470437E+01 -0.14759046428E+03  0.87315172037E+02  0.91288968478E+03  0.89662737972E+03 0.  0.
        -24    2    4    4    0    0  0.19237862943E+03 -0.63106939291E+02  0.44090370642E+03  0.49171727114E+03  0.79986083482E+02 0.  0.
         24    2    4    4    0    0 -0.19685457648E+03 -0.84483524991E+02 -0.35358853439E+03  0.42117241364E+03  0.80449736425E+02 0.  0.
         13    1    3    3    0    0 -0.16604894623E+02  0.11638093336E+03  0.46763197103E+03  0.48218243903E+03  0.00000000000E+00 0. -1.
        -13    1    3    3    0    0  0.21080841666E+02  0.31209530924E+02  0.53013613335E+02  0.65029838572E+02  0.00000000000E+00 0.  1.
          4    1    6    6  502    0 -0.19835240709E+03 -0.91834055347E+02 -0.32536395697E+03  0.39196795228E+03  0.00000000000E+00 0. -1.
          3    1    5    5  503    0  0.15620037446E+03 -0.49526091243E+02  0.26461971828E+03  0.31124746746E+03  0.00000000000E+00 0. -1.
         -4    1    5    5    0  503  0.36178254975E+02 -0.13580848048E+02  0.17628398814E+03  0.18046980368E+03  0.00000000000E+00 0.  1.
         -3    1    6    6    0  502  0.14978306189E+01  0.73505303557E+01 -0.28224577415E+02  0.29204461360E+02  0.00000000000E+00 0.  1.
<mgrwt>
<rscale>  0 0.13275095E+04</rscale>
<asrwt>0</asrwt>
<pdfrwt beam="1">  1        1 0.15908175E+00 0.13275095E+04</pdfrwt>
<pdfrwt beam="2">  1       -1 0.65549324E-01 0.13275095E+04</pdfrwt>
<totfact> 0.32935140E+01</totfact>
</mgrwt>
</event>
<event>
12    1  0.1114484E-007  0.3305799E+04  0.7818608E-02  0.8161421E-01
         -2   -1    0    0    0  501 -0.00000000000E+00  0.00000000000E+00  0.14500371454E+04  0.14500371454E+04  0.00000000000E+00 0.  1.
          2   -1    0    0  501    0  0.00000000000E+00 -0.00000000000E+00 -0.18841428623E+04  0.18841428623E+04  0.00000000000E+00 0. -1.
         23    2    1    2    0    0 -0.10427466037E+04 -0.11051407427E+04 -0.35567021646E+02  0.15217026255E+04  0.75215202722E+02 0.  0.
        254    2    1    2    0    0  0.10427466037E+04  0.11051407427E+04 -0.39853869527E+03  0.18124773822E+04  0.90420386461E+03 0.  0.
        -24    2    4    4    0    0  0.40364167979E+03  0.98440541359E+03 -0.44449811665E+03  0.11556001478E+04  0.76501645948E+02 0.  0.
         24    2    4    4    0    0  0.63910492390E+03  0.12073532911E+03  0.45959421379E+02  0.65687723446E+03  0.79644894951E+02 0.  0.
         13    1    3    3    0    0 -0.62567760982E+03 -0.62225344885E+03  0.36865269750E+01  0.88243153644E+03  0.00000000000E+00 0. -1.
        -13    1    3    3    0    0 -0.41706899386E+03 -0.48288729385E+03 -0.39253548621E+02  0.63927108904E+03  0.00000000000E+00 0.  1.
          4    1    6    6  502    0  0.43154677657E+03  0.74980680230E+02  0.67752922993E+02  0.44322136834E+03  0.00000000000E+00 0. -1.
          1    1    5    5  503    0  0.21222070417E+03  0.51265495489E+03 -0.27310572755E+03  0.61841690506E+03  0.00000000000E+00 0. -1.
         -2    1    5    5    0  503  0.19142097562E+03  0.47175045871E+03 -0.17139238910E+03  0.53718324270E+03  0.00000000000E+00 0.  1.
         -3    1    6    6    0  502  0.20755814733E+03  0.45754648875E+02 -0.21793501614E+02  0.21365586612E+03  0.00000000000E+00 0.  1.
<mgrwt>
<rscale>  0 0.33057992E+04</rscale>
<asrwt>0</asrwt>
<pdfrwt beam="1">  1        2 0.28986813E+00 0.33057992E+04</pdfrwt>
<pdfrwt beam="2">  1       -2 0.22308264E+00 0.33057992E+04</pdfrwt>
<totfact> 0.61133847E-01</totfact>
</mgrwt>
</event>
<event>
12    1  0.1114484E-007  0.1069726E+04  0.7818608E-02  0.9235212E-01
          1   -1    0    0  501    0  0.00000000000E+00  0.00000000000E+00  0.24595969782E+03  0.24595969782E+03  0.00000000000E+00 0. -1.
         -1   -1    0    0    0  501 -0.00000000000E+00 -0.00000000000E+00 -0.11631110605E+04  0.11631110605E+04  0.00000000000E+00 0.  1.
         23    2    1    2    0    0 -0.51216614793E+02 -0.11970039957E+03 -0.22582045436E+03  0.27564738429E+03  0.89639698624E+02 0.  0.
        254    2    1    2    0    0  0.51216614793E+02  0.11970039957E+03 -0.69133090830E+03  0.11334233740E+04  0.88868374166E+03 0.  0.
        -24    2    4    4    0    0  0.25413128404E+03 -0.31299110825E+03 -0.36087996322E+03  0.54695476789E+03  0.79868810512E+02 0.  0.
         24    2    4    4    0    0 -0.20291466925E+03  0.43269150782E+03 -0.33045094508E+03  0.58646860612E+03  0.79695011881E+02 0.  0.
         11    1    3    3    0    0  0.14633769008E+02  0.62329871851E+01 -0.24978102611E+02  0.29612546913E+02  0.00000000000E+00 0. -1.
        -11    1    3    3    0    0 -0.65850383801E+02 -0.12593338675E+03 -0.20084235175E+03  0.24603483738E+03  0.00000000000E+00 0.  1.
          4    1    6    6  502    0  0.68379238529E+01  0.17558784934E+02 -0.18650905447E+02  0.26512721569E+02  0.00000000000E+00 0. -1.
          1    1    5    5  503    0  0.70811493807E+02 -0.61089240893E+02 -0.12537191064E+03  0.15641061021E+03  0.00000000000E+00 0. -1.
         -2    1    5    5    0  503  0.18331979023E+03 -0.25190186736E+03 -0.23550805258E+03  0.39054415768E+03  0.00000000000E+00 0.  1.
         -3    1    6    6    0  502 -0.20975259310E+03  0.41513272289E+03 -0.31180003963E+03  0.55995588455E+03  0.00000000000E+00 0.  1.
<mgrwt>
<rscale>  0 0.10697260E+04</rscale>
<asrwt>0</asrwt>
<pdfrwt beam="1">  1        1 0.37839954E-01 0.10697260E+04</pdfrwt>
<pdfrwt beam="2">  1       -1 0.17894016E+00 0.10697260E+04</pdfrwt>
<totfact> 0.24031797E+01</totfact>
</mgrwt>
</event>
<event>
12    1  0.1114484E-007  0.3924532E+04  0.7818608E-02  0.8019946E-01
          2   -1    0    0  501    0  0.00000000000E+00  0.00000000000E+00  0.22086623249E+04  0.22086623249E+04  0.00000000000E+00 0. -1.
         -2   -1    0    0    0  501 -0.00000000000E+00 -0.00000000000E+00 -0.17433576178E+04  0.17433576178E+04  0.00000000000E+00 0.  1.
         23    2    1    2    0    0 -0.16205185806E+04 -0.90413733110E+03  0.29445934084E+03  0.18810505823E+04  0.90001145753E+02 0.  0.
        254    2    1    2    0    0  0.16205185806E+04  0.90413733110E+03  0.17084536626E+03  0.20709693603E+04  0.90342745621E+03 0.  0.
        -24    2    4    4    0    0 -0.93329361406E+02 -0.29038091150E+00 -0.30303828428E+01  0.12378729720E+03  0.81262892556E+02 0.  0.
         24    2    4    4    0    0  0.17138479420E+04  0.90442771201E+03  0.17387574910E+03  0.19471820631E+04  0.77594820872E+02 0.  0.
         11    1    3    3    0    0 -0.11394056510E+04 -0.60251109443E+03  0.17431597772E+03  0.13006348129E+04  0.00000000000E+00 0. -1.
        -11    1    3    3    0    0 -0.48111292962E+03 -0.30162623668E+03  0.12014336311E+03  0.58041576942E+03  0.00000000000E+00 0.  1.
          4    1    6    6  502    0  0.91136812065E+03  0.46605610841E+03  0.55254949583E+02  0.10251113388E+04  0.00000000000E+00 0. -1.
          3    1    5    5  503    0 -0.66457009446E+02 -0.25408197513E+02 -0.30969125344E+02  0.77596374464E+02  0.00000000000E+00 0. -1.
         -4    1    5    5    0  503 -0.26872351960E+02  0.25117816602E+02  0.27938742501E+02  0.46190922736E+02  0.00000000000E+00 0.  1.
         -3    1    6    6    0  502  0.80247982136E+03  0.43837160360E+03  0.11862079952E+03  0.92207072430E+03  0.00000000000E+00 0.  1.
<mgrwt>
<rscale>  0 0.39245322E+04</rscale>
<asrwt>0</asrwt>
<pdfrwt beam="1">  1        2 0.33979421E+00 0.39245322E+04</pdfrwt>
<pdfrwt beam="2">  1       -2 0.26820886E+00 0.39245322E+04</pdfrwt>
<totfact> 0.20145044E-01</totfact>
</mgrwt>
</event>
<event>
12    1  0.1114484E-007  0.2146639E+04  0.7818608E-02  0.8540972E-01
          2   -1    0    0  501    0  0.00000000000E+00  0.00000000000E+00  0.22798455855E+04  0.22798455855E+04  0.00000000000E+00 0. -1.
         -2   -1    0    0    0  501 -0.00000000000E+00 -0.00000000000E+00 -0.50530373610E+03  0.50530373610E+03  0.00000000000E+00 0.  1.
         23    2    1    2    0    0 -0.72652540024E+03 -0.31055866310E+03  0.12357576144E+04  0.14696402235E+04  0.91976435215E+02 0.  0.
        254    2    1    2    0    0  0.72652540024E+03  0.31055866310E+03  0.53878423500E+03  0.13155090981E+04  0.90332158990E+03 0.  0.
        -24    2    4    4    0    0  0.86832535632E+03  0.99954835805E+02  0.22742670645E+03  0.90670485669E+03  0.80068075553E+02 0.  0.
         24    2    4    4    0    0 -0.14179995608E+03  0.21060382730E+03  0.31135752855E+03  0.40880424137E+03  0.75605539212E+02 0.  0.
         13    1    3    3    0    0 -0.21668029414E+03 -0.69580248825E+02  0.29164342791E+03  0.36992924991E+03  0.00000000000E+00 0. -1.
        -13    1    3    3    0    0 -0.50984510610E+03 -0.24097841428E+03  0.94411418647E+03  0.10997109736E+04  0.00000000000E+00 0.  1.
          2    1    6    6  502    0 -0.11687684298E+03  0.12748619024E+03  0.24337867166E+03  0.29857344648E+03  0.00000000000E+00 0. -1.
          3    1    5    5  503    0  0.82516819904E+03  0.11215661547E+03  0.21254779799E+03  0.85945228461E+03  0.00000000000E+00 0. -1.
         -4    1    5    5    0  503  0.43157157278E+02 -0.12201779662E+02  0.14878908459E+02  0.47252572079E+02  0.00000000000E+00 0.  1.
         -1    1    6    6    0  502 -0.24923113100E+02  0.83117637057E+02  0.67978856891E+02  0.11023079488E+03  0.00000000000E+00 0.  1.
<mgrwt>
<rscale>  0 0.21466388E+04</rscale>
<asrwt>0</asrwt>
<pdfrwt beam="1">  1        2 0.35074547E+00 0.21466388E+04</pdfrwt>
<pdfrwt beam="2">  1       -2 0.77739038E-01 0.21466388E+04</pdfrwt>
<totfact> 0.62988722E+00</totfact>
</mgrwt>
</event>
<event>
12    1  0.1114484E-007  0.1472664E+04  0.7818608E-02  0.8902837E-01
         -2   -1    0    0    0  501 -0.00000000000E+00  0.00000000000E+00  0.71089586652E+03  0.71089586652E+03  0.00000000000E+00 0.  1.
          2   -1    0    0  501    0  0.00000000000E+00 -0.00000000000E+00 -0.76267820142E+03  0.76267820142E+03  0.00000000000E+00 0. -1.
         23    2    1    2    0    0 -0.40573001716E+03  0.21817031190E+03 -0.47445251697E+02  0.47226760487E+03  0.92577032117E+02 0.  0.
        254    2    1    2    0    0  0.40573001716E+03 -0.21817031190E+03 -0.43370832033E+01  0.10013064631E+04  0.88903357129E+03 0.  0.
        -24    2    4    4    0    0 -0.19739237977E+03 -0.19372640192E+03  0.20978988000E+03  0.35587358165E+03  0.78361610341E+02 0.  0.
         24    2    4    4    0    0  0.60312239693E+03 -0.24443909974E+02 -0.21412696320E+03  0.64543288142E+03  0.79869378625E+02 0.  0.
         11    1    3    3    0    0 -0.39154735364E+03  0.18796968060E+03 -0.55727938670E+02  0.43788986528E+03  0.00000000000E+00 0. -1.
        -11    1    3    3    0    0 -0.14182663525E+02  0.30200631301E+02  0.82826869727E+01  0.34377739587E+02  0.00000000000E+00 0.  1.
          2    1    6    6  502    0  0.94662666282E+02 -0.30666981330E+02 -0.22441027156E+02  0.10200531276E+03  0.00000000000E+00 0. -1.
          3    1    5    5  503    0 -0.67285581779E+02 -0.78678906881E+02  0.12589660285E+03  0.16299593404E+03  0.00000000000E+00 0. -1.
         -4    1    5    5    0  503 -0.13010679799E+03 -0.11504749504E+03  0.83893277144E+02  0.19287764761E+03  0.00000000000E+00 0.  1.
         -1    1    6    6    0  502  0.50845973065E+03  0.62230713558E+01 -0.19168593604E+03  0.54342756866E+03  0.00000000000E+00 0.  1.
<mgrwt>
<rscale>  0 0.14726640E+04</rscale>
<asrwt>0</asrwt>
<pdfrwt beam="1">  1        2 0.11733511E+00 0.14726640E+04</pdfrwt>
<pdfrwt beam="2">  1       -2 0.10936859E+00 0.14726640E+04</pdfrwt>
<totfact> 0.23667931E+01</totfact>
</mgrwt>
</event>
<event>
12    1  0.1114484E-007  0.2740263E+04  0.7818608E-02  0.8322058E-01
          1   -1    0    0  501    0  0.00000000000E+00  0.00000000000E+00  0.20738933612E+04  0.20738933612E+04  0.00000000000E+00 0. -1.
         -1   -1    0    0    0  501 -0.00000000000E+00 -0.00000000000E+00 -0.90518669151E+03  0.90518669151E+03  0.00000000000E+00 0.  1.
         23    2    1    2    0    0  0.16371593053E+03 -0.81547464734E+03  0.14866181821E+04  0.17058740170E+04  0.90392124885E+02 0.  0.
        254    2    1    2    0    0 -0.16371593053E+03  0.81547464734E+03 -0.31791151234E+03  0.12732060357E+04  0.91004619302E+03 0.  0.
        -24    2    4    4    0    0 -0.26345934007E+03  0.48868636709E+03  0.24327655934E+03  0.61135912471E+03  0.79695080095E+02 0.  0.
         24    2    4    4    0    0  0.99743409536E+02  0.32678828025E+03 -0.56118807168E+03  0.66184691104E+03  0.79811991589E+02 0.  0.
         11    1    3    3    0    0  0.52792816139E+01 -0.34750232078E+02  0.32684831403E+02  0.47997371258E+02  0.00000000000E+00 0. -1.
        -11    1    3    3    0    0  0.15843664892E+03 -0.78072441526E+03  0.14539333507E+04  0.16578766457E+04  0.00000000000E+00 0.  1.
          4    1    6    6  502    0  0.11049716112E+03  0.30562974314E+03 -0.53876484441E+03  0.62919529566E+03  0.00000000000E+00 0. -1.
          3    1    5    5  503    0 -0.17410793652E+03  0.25184991256E+03  0.15584384104E+03  0.34355386012E+03  0.00000000000E+00 0. -1.
         -4    1    5    5    0  503 -0.89351403554E+02  0.23683645453E+03  0.87432718297E+02  0.26780526458E+03  0.00000000000E+00 0.  1.
         -3    1    6    6    0  502 -0.10753751581E+02  0.21158537116E+02 -0.22423227270E+02  0.32651615384E+02  0.00000000000E+00 0.  1.
<mgrwt>
<rscale>  0 0.27402633E+04</rscale>
<asrwt>0</asrwt>
<pdfrwt beam="1">  1        1 0.31906051E+00 0.27402633E+04</pdfrwt>
<pdfrwt beam="2">  1       -1 0.13925949E+00 0.27402633E+04</pdfrwt>
<totfact> 0.98165356E-01</totfact>
</mgrwt>
</event>
<event>
12    1  0.1114484E-007  0.1655921E+04  0.7818608E-02  0.8786912E-01
          1   -1    0    0  501    0  0.00000000000E+00  0.00000000000E+00  0.57901693725E+03  0.57901693725E+03  0.00000000000E+00 0. -1.
         -1   -1    0    0    0  501 -0.00000000000E+00 -0.00000000000E+00 -0.11839348016E+04  0.11839348016E+04  0.00000000000E+00 0.  1.
         23    2    1    2    0    0 -0.36021031769E+03 -0.14607844403E+03  0.24290733790E+03  0.46705021885E+03  0.89674675018E+02 0.  0.
        254    2    1    2    0    0  0.36021031769E+03  0.14607844403E+03 -0.84782520225E+03  0.12959015200E+04  0.89970150117E+03 0.  0.
        -24    2    4    4    0    0  0.34665577922E+03 -0.30323268195E+03 -0.21216791401E+03  0.51313436867E+03  0.78558054346E+02 0.  0.
         24    2    4    4    0    0  0.13554538472E+02  0.44931112598E+03 -0.63565728825E+03  0.78276715134E+03  0.81240455895E+02 0.  0.
         11    1    3    3    0    0 -0.27435779041E+03 -0.80928384524E+02  0.14175503450E+03  0.31924299583E+03  0.00000000000E+00 0. -1.
        -11    1    3    3    0    0 -0.85852527287E+02 -0.65150059506E+02  0.10115230340E+03  0.14780722302E+03  0.00000000000E+00 0.  1.
          2    1    6    6  502    0 -0.20599605524E+02  0.33761968086E+03 -0.44135206260E+03  0.55606028074E+03  0.00000000000E+00 0. -1.
          1    1    5    5  503    0  0.32886079188E+03 -0.26644775642E+03 -0.20928554967E+03  0.47216974558E+03  0.00000000000E+00 0. -1.
         -2    1    5    5    0  503  0.17794987345E+02 -0.36784925528E+02 -0.28823643321E+01  0.40964623089E+02  0.00000000000E+00 0.  1.
         -1    1    6    6    0  502  0.34154143996E+02  0.11169144512E+03 -0.19430522565E+03  0.22670687060E+03  0.00000000000E+00 0.  1.
<mgrwt>
<rscale>  0 0.16559207E+04</rscale>
<asrwt>0</asrwt>
<pdfrwt beam="1">  1        1 0.89079530E-01 0.16559207E+04</pdfrwt>
<pdfrwt beam="2">  1       -1 0.18214381E+00 0.16559207E+04</pdfrwt>
<totfact> 0.69156943E+00</totfact>
</mgrwt>
</event>
<event>
12    1  0.1114484E-007  0.2359408E+04  0.7818608E-02  0.8454859E-01
          2   -1    0    0  501    0  0.00000000000E+00  0.00000000000E+00  0.28973001167E+04  0.28973001167E+04  0.00000000000E+00 0. -1.
         -2   -1    0    0    0  501 -0.00000000000E+00 -0.00000000000E+00 -0.48034433349E+03  0.48034433349E+03  0.00000000000E+00 0.  1.
         23    2    1    2    0    0  0.71214291567E+03 -0.69148812400E+03  0.12572859823E+04  0.16044875660E+04  0.91153442094E+02 0.  0.
        254    2    1    2    0    0 -0.71214291567E+03  0.69148812400E+03  0.11596698008E+04  0.17731568842E+04  0.90219062897E+03 0.  0.
        -24    2    4    4    0    0 -0.15576966273E+03 -0.13845083018E+03  0.56599008219E+03  0.60809974775E+03  0.77509417939E+02 0.  0.
         24    2    4    4    0    0 -0.55637325294E+03  0.82993895418E+03  0.59367971864E+03  0.11650571364E+04  0.80948493369E+02 0.  0.
         13    1    3    3    0    0  0.22448772132E+03 -0.25870335249E+03  0.38243954634E+03  0.51340254013E+03  0.00000000000E+00 0. -1.
        -13    1    3    3    0    0  0.48765519435E+03 -0.43278477151E+03  0.87484643601E+03  0.10910850258E+04  0.00000000000E+00 0.  1.
          4    1    6    6  502    0 -0.44480256718E+03  0.60997811425E+03  0.46821998369E+03  0.88834260100E+03  0.00000000000E+00 0. -1.
          1    1    5    5  503    0 -0.16483869861E+03 -0.13103792114E+03  0.53281503745E+03  0.57291761839E+03  0.00000000000E+00 0. -1.
         -2    1    5    5    0  503  0.90690358798E+01 -0.74129090384E+01  0.33175044743E+02  0.35182129354E+02  0.00000000000E+00 0.  1.
         -3    1    6    6    0  502 -0.11157068576E+03  0.21996083994E+03  0.12545973495E+03  0.27671453543E+03  0.00000000000E+00 0.  1.
<mgrwt>
<rscale>  0 0.23594081E+04</rscale>
<asrwt>0</asrwt>
<pdfrwt beam="1">  1        2 0.44573847E+00 0.23594081E+04</pdfrwt>
<pdfrwt beam="2">  1       -2 0.73899130E-01 0.23594081E+04</pdfrwt>
<totfact> 0.30034668E+00</totfact>
</mgrwt>
</event>
<event>
12    1  0.1114484E-007  0.1197116E+04  0.7818608E-02  0.9115385E-01
         -1   -1    0    0    0  501 -0.00000000000E+00  0.00000000000E+00  0.14690720306E+03  0.14690720306E+03  0.00000000000E+00 0.  1.
          1   -1    0    0  501    0  0.00000000000E+00 -0.00000000000E+00 -0.24387602784E+04  0.24387602784E+04  0.00000000000E+00 0. -1.
         23    2    1    2    0    0 -0.23558449936E+03 -0.64847412327E+02 -0.39802604841E+03  0.47599579727E+03  0.91880468984E+02 0.  0.
        254    2    1    2    0    0  0.23558449936E+03  0.64847412327E+02 -0.18938270269E+04  0.21096716842E+04  0.89689941683E+03 0.  0.
        -24    2    4    4    0    0  0.23917160357E+03  0.40065595520E+03 -0.56607545653E+03  0.73779781236E+03  0.78587143014E+02 0.  0.
         24    2    4    4    0    0 -0.35871042119E+01 -0.33580854287E+03 -0.13277515704E+04  0.13718738718E+04  0.79582929851E+02 0.  0.
         13    1    3    3    0    0 -0.15029838701E+03 -0.21292906031E+02 -0.31327469289E+03  0.34811496117E+03  0.00000000000E+00 0. -1.
        -13    1    3    3    0    0 -0.85286112353E+02 -0.43554506296E+02 -0.84751355515E+02  0.12788083610E+03  0.00000000000E+00 0.  1.
          4    1    6    6  502    0  0.31873875441E+01 -0.23107000506E+02 -0.20655529549E+03  0.20786818661E+03  0.00000000000E+00 0. -1.
          3    1    5    5  503    0  0.34049593213E+02  0.46726327534E+02 -0.35541881798E+02  0.67867148493E+02  0.00000000000E+00 0. -1.
         -4    1    5    5    0  503  0.20512201036E+03  0.35392962766E+03 -0.53053357473E+03  0.66993066387E+03  0.00000000000E+00 0.  1.
         -3    1    6    6    0  502 -0.67744917560E+01 -0.31270154237E+03 -0.11211962749E+04  0.11640056852E+04  0.00000000000E+00 0.  1.
<mgrwt>
<rscale>  0 0.11971156E+04</rscale>
<asrwt>0</asrwt>
<pdfrwt beam="1">  1        1 0.37519385E+00 0.11971156E+04</pdfrwt>
<pdfrwt beam="2">  1       -1 0.22601110E-01 0.11971156E+04</pdfrwt>
<totfact> 0.24749524E+01</totfact>
</mgrwt>
</event>
<event>
12    1  0.1114484E-007  0.1660661E+04  0.7818608E-02  0.8784124E-01
          2   -1    0    0  501    0  0.00000000000E+00  0.00000000000E+00  0.14470469533E+04  0.14470469533E+04  0.00000000000E+00 0. -1.
         -2   -1    0    0    0  501 -0.00000000000E+00 -0.00000000000E+00 -0.47645249739E+03  0.47645249739E+03  0.00000000000E+00 0.  1.
         23    2    1    2    0    0  0.12634111939E+03  0.10122493778E+03  0.99306102173E+03  0.10102061516E+04  0.90209253771E+02 0.  0.
        254    2    1    2    0    0 -0.12634111939E+03 -0.10122493778E+03 -0.22466565850E+02  0.91329329902E+03  0.89854957402E+03 0.  0.
        -24    2    4    4    0    0  0.53583690307E+02  0.33265248447E+02 -0.42955937541E+03  0.44162887881E+03  0.80851845831E+02 0.  0.
         24    2    4    4    0    0 -0.17992480969E+03 -0.13449018622E+03  0.40709280956E+03  0.47166442020E+03  0.79260471578E+02 0.  0.
         11    1    3    3    0    0  0.10116818577E+03  0.57661593908E+02  0.86181927354E+03  0.86965068934E+03  0.00000000000E+00 0. -1.
        -11    1    3    3    0    0  0.25172933616E+02  0.43563343868E+02  0.13124174819E+03  0.14055546230E+03  0.00000000000E+00 0.  1.
          2    1    6    6  502    0 -0.46594130123E+02 -0.18763506347E+02  0.16197108770E+03  0.16958099948E+03  0.00000000000E+00 0. -1.
          3    1    5    5  503    0 -0.18929700839E+02 -0.25294221437E+01 -0.12791830065E+03  0.12933608619E+03  0.00000000000E+00 0. -1.
         -4    1    5    5    0  503  0.72513391147E+02  0.35794670590E+02 -0.30164107476E+03  0.31229279262E+03  0.00000000000E+00 0.  1.
         -1    1    6    6    0  502 -0.13333067957E+03 -0.11572667988E+03  0.24512172186E+03  0.30208342073E+03  0.00000000000E+00 0.  1.
<mgrwt>
<rscale>  0 0.16606615E+04</rscale>
<asrwt>0</asrwt>
<pdfrwt beam="1">  1        2 0.22262261E+00 0.16606615E+04</pdfrwt>
<pdfrwt beam="2">  1       -2 0.73300385E-01 0.16606615E+04</pdfrwt>
<totfact> 0.21810459E+01</totfact>
</mgrwt>
</event>
<event>
12    1  0.1114484E-007  0.2737454E+04  0.7818608E-02  0.8322954E-01
          2   -1    0    0  501    0  0.00000000000E+00  0.00000000000E+00  0.30754807573E+04  0.30754807573E+04  0.00000000000E+00 0.  1.
         -2   -1    0    0    0  501 -0.00000000000E+00 -0.00000000000E+00 -0.60914505813E+03  0.60914505813E+03  0.00000000000E+00 0. -1.
         23    2    1    2    0    0  0.23801911936E+03  0.71263948493E+03  0.23944443504E+04  0.25112151683E+04  0.91267394993E+02 0.  0.
        254    2    1    2    0    0 -0.23801911936E+03 -0.71263948493E+03  0.71891348713E+02  0.11734106471E+04  0.89845202663E+03 0.  0.
        -24    2    4    4    0    0 -0.22162059313E+03 -0.83361769947E+03 -0.17800636150E+03  0.88433911188E+03  0.79594245412E+02 0.  0.
         24    2    4    4    0    0 -0.16398526235E+02  0.12097821454E+03  0.24989771021E+03  0.28907153526E+03  0.78796236432E+02 0.  0.
         13    1    3    3    0    0 -0.33074715632E+01  0.74771726006E+02  0.23098279414E+03  0.24280609870E+03  0.00000000000E+00 0. -1.
        -13    1    3    3    0    0  0.24132659093E+03  0.63786775892E+03  0.21634615563E+04  0.22684090696E+04  0.00000000000E+00 0.  1.
          4    1    6    6  502    0 -0.20260764035E+02  0.12526138856E+03  0.18745581778E+03  0.22636386117E+03  0.00000000000E+00 0. -1.
          1    1    5    5  503    0 -0.21444467490E+03 -0.73635713344E+03 -0.17555558930E+03  0.78678339554E+03  0.00000000000E+00 0. -1.
         -2    1    5    5    0  503 -0.71759182292E+01 -0.97260566022E+02 -0.24507721939E+01  0.97555716335E+02  0.00000000000E+00 0.  1.
         -3    1    6    6    0  502  0.38622377998E+01 -0.42831740180E+01  0.62441892429E+02  0.62707674097E+02  0.00000000000E+00 0.  1.
<mgrwt>
<rscale>  0 0.27374542E+04</rscale>
<asrwt>0</asrwt>
<pdfrwt beam="1">  1        2 0.47315088E+00 0.27374542E+04</pdfrwt>
<pdfrwt beam="2">  1       -2 0.93714626E-01 0.27374542E+04</pdfrwt>
<totfact> 0.13123766E+00</totfact>
</mgrwt>
</event>
<event>
12    1  0.1114484E-007  0.1232306E+04  0.7818608E-02  0.9085040E-01
         -2   -1    0    0    0  501 -0.00000000000E+00  0.00000000000E+00  0.19270521389E+03  0.19270521389E+03  0.00000000000E+00 0.  1.
          2   -1    0    0  501    0  0.00000000000E+00 -0.00000000000E+00 -0.19700794895E+04  0.19700794895E+04  0.00000000000E+00 0. -1.
         23    2    1    2    0    0 -0.13703002487E+03  0.13609928130E+03 -0.77393542992E+03  0.80256862850E+03  0.88544405130E+02 0.  0.
        254    2    1    2    0    0  0.13703002487E+03 -0.13609928130E+03 -0.10034388457E+04  0.13602160749E+04  0.89777391992E+03 0.  0.
        -24    2    4    4    0    0 -0.15665509524E+03 -0.44474148511E+03 -0.45051648702E+03  0.65692861044E+03  0.79084048358E+02 0.  0.
         24    2    4    4    0    0  0.29368512011E+03  0.30864220380E+03 -0.55292235872E+03  0.70328746449E+03  0.85902055835E+02 0.  0.
         11    1    3    3    0    0 -0.14340319933E+02 -0.64398702589E+01 -0.15223552152E+03  0.15304499572E+03  0.00000000000E+00 0.  1.
        -11    1    3    3    0    0 -0.12268970494E+03  0.14253915156E+03 -0.62169990840E+03  0.64952363277E+03  0.00000000000E+00 0. -1.
          2    1    6    6  502    0  0.27490451550E+02  0.74973344303E+02 -0.88376381288E+02  0.11910966397E+03  0.00000000000E+00 0. -1.
          3    1    5    5  503    0  0.19436514620E+01 -0.21152282674E+02 -0.45206796628E+01  0.21717121999E+02  0.00000000000E+00 0. -1.
         -4    1    5    5    0  503 -0.15859874670E+03 -0.42358920243E+03 -0.44599580735E+03  0.63521148844E+03  0.00000000000E+00 0.  1.
         -1    1    6    6    0  502  0.26619466856E+03  0.23366885950E+03 -0.46454597743E+03  0.58417780052E+03  0.00000000000E+00 0.  1.
<mgrwt>
<rscale>  0 0.12323061E+04</rscale>
<asrwt>0</asrwt>
<pdfrwt beam="1">  1        2 0.30308915E+00 0.12323061E+04</pdfrwt>
<pdfrwt beam="2">  1       -2 0.29646956E-01 0.12323061E+04</pdfrwt>
<totfact> 0.71734708E+01</totfact>
</mgrwt>
</event>
<event>
12    1  0.1114484E-007  0.1262484E+04  0.7818608E-02  0.9059857E-01
         -2   -1    0    0    0  501 -0.00000000000E+00  0.00000000000E+00  0.38329585872E+03  0.38329585872E+03  0.00000000000E+00 0. -1.
          2   -1    0    0  501    0  0.00000000000E+00 -0.00000000000E+00 -0.10395791361E+04  0.10395791361E+04  0.00000000000E+00 0.  1.
         23    2    1    2    0    0 -0.27587717133E+03 -0.65407062430E+02 -0.76277731205E+02  0.31449941600E+03  0.11271775772E+03 0.  0.
        254    2    1    2    0    0  0.27587717133E+03  0.65407062430E+02 -0.58000554614E+03  0.11083755788E+04  0.90094599874E+03 0.  0.
        -24    2    4    4    0    0  0.37746113524E+03 -0.20766616649E+03 -0.66343913808E+03  0.79502713371E+03  0.79463879036E+02 0.  0.
         24    2    4    4    0    0 -0.10158396391E+03  0.27307322892E+03  0.83433591938E+02  0.31334844509E+03  0.79610261278E+02 0.  0.
         13    1    3    3    0    0 -0.65038463299E+02  0.20796557677E+02 -0.51192764845E+02  0.85341652738E+02  0.00000000000E+00 0.  1.
        -13    1    3    3    0    0 -0.21083870803E+03 -0.86203620106E+02 -0.25084966360E+02  0.22915776326E+03  0.00000000000E+00 0. -1.
          4    1    6    6  502    0 -0.44043167498E+02  0.11336051976E+03  0.76028723569E+02  0.14342515418E+03  0.00000000000E+00 0. -1.
          3    1    5    5  503    0  0.24617988363E+03 -0.10137270999E+03 -0.44967355423E+03  0.52257752230E+03  0.00000000000E+00 0. -1.
         -4    1    5    5    0  503  0.13128125161E+03 -0.10629345650E+03 -0.21376558385E+03  0.27244961141E+03  0.00000000000E+00 0.  1.
         -3    1    6    6    0  502 -0.57540796408E+02  0.15971270916E+03  0.74048683696E+01  0.16992329092E+03  0.00000000000E+00 0.  1.
<mgrwt>
<rscale>  0 0.12624839E+04</rscale>
<asrwt>0</asrwt>
<pdfrwt beam="1">  1        2 0.15993525E+00 0.12624839E+04</pdfrwt>
<pdfrwt beam="2">  1       -2 0.58968593E-01 0.12624839E+04</pdfrwt>
<totfact> 0.62747208E+01</totfact>
</mgrwt>
</event>
<event>
12    1  0.1114484E-007  0.1906670E+04  0.7818608E-02  0.8651543E-01
          2   -1    0    0  501    0  0.00000000000E+00  0.00000000000E+00  0.63330513562E+03  0.63330513562E+03  0.00000000000E+00 0. -1.
         -2   -1    0    0    0  501 -0.00000000000E+00 -0.00000000000E+00 -0.14350871713E+04  0.14350871713E+04  0.00000000000E+00 0.  1.
         23    2    1    2    0    0 -0.15207055358E+03 -0.35376711239E+03  0.36959916933E+03  0.54169230264E+03  0.92468274031E+02 0.  0.
        254    2    1    2    0    0  0.15207055358E+03  0.35376711239E+03 -0.11713812050E+04  0.15267000043E+04  0.90022350144E+03 0.  0.
        -24    2    4    4    0    0 -0.30509350777E+03  0.29955146998E+03 -0.86452488066E+03  0.96775302687E+03  0.79558281091E+02 0.  0.
         24    2    4    4    0    0  0.45716406135E+03  0.54215642412E+02 -0.30685632433E+03  0.55894697739E+03  0.79514809215E+02 0.  0.
         11    1    3    3    0    0  0.12083072663E+01 -0.33005855356E+02  0.67430501950E+01  0.33709274987E+02  0.00000000000E+00 0.  1.
        -11    1    3    3    0    0 -0.15327886085E+03 -0.32076125703E+03  0.36285611913E+03  0.50798302766E+03  0.00000000000E+00 0. -1.
          2    1    6    6  502    0  0.37334088795E+03  0.75051498107E+02 -0.25034295460E+03  0.45572770477E+03  0.00000000000E+00 0. -1.
          1    1    5    5  503    0 -0.53265438659E+02  0.16534191266E+02 -0.99403843745E+02  0.11398118523E+03  0.00000000000E+00 0. -1.
         -2    1    5    5    0  503 -0.25182806911E+03  0.28301727871E+03 -0.76512103692E+03  0.85377184164E+03  0.00000000000E+00 0.  1.
         -1    1    6    6    0  502  0.83823173400E+02 -0.20835855695E+02 -0.56513369736E+02  0.10321927262E+03  0.00000000000E+00 0.  1.
<mgrwt>
<rscale>  0 0.19066705E+04</rscale>
<asrwt>0</asrwt>
<pdfrwt beam="1">  1        2 0.97431561E-01 0.19066705E+04</pdfrwt>
<pdfrwt beam="2">  1       -2 0.22078264E+00 0.19066705E+04</pdfrwt>
<totfact> 0.42442237E+00</totfact>
</mgrwt>
</event>
<event>
12    1  0.1536944E-007  0.1649861E+04  0.7818608E-02  0.8790489E-01
         -2   -1    0    0    0  501 -0.00000000000E+00  0.00000000000E+00  0.55249758427E+03  0.55249758427E+03  0.00000000000E+00 0.  1.
          2   -1    0    0  501    0  0.00000000000E+00 -0.00000000000E+00 -0.12316979822E+04  0.12316979822E+04  0.00000000000E+00 0. -1.
         23    2    1    2    0    0 -0.32542542936E+03 -0.30247165431E+03  0.15899411449E+03  0.48083992498E+03  0.92396392140E+02 0.  0.
        254    2    1    2    0    0  0.32542542936E+03  0.30247165431E+03 -0.83819451245E+03  0.13033556415E+04  0.89374217527E+03 0.  0.
        -24    2    4    4    0    0  0.11979590687E+03 -0.30751161840E+03 -0.37779100780E+03  0.50789652791E+03  0.79488255323E+02 0.  0.
         24    2    4    4    0    0  0.20562952249E+03  0.60998327271E+03 -0.46040350465E+03  0.79545911361E+03  0.80129400552E+02 0.  0.
         11    1    3    3    0    0 -0.16869824188E+03 -0.13589801620E+03  0.12358628756E+03  0.24940115896E+03  0.00000000000E+00 0. -1.
        -11    1    3    3    0    0 -0.15672718749E+03 -0.16657363811E+03  0.35407826934E+02  0.23143876602E+03  0.00000000000E+00 0.  1.
          2    1    6    6  502    0  0.20889880898E+03  0.60896173652E+03 -0.45269359577E+03  0.78702261759E+03  0.00000000000E+00 0. -1.
          1    1    5    5  503    0  0.10663101536E+03 -0.30329595780E+03 -0.37472310590E+03  0.49373678974E+03  0.00000000000E+00 0. -1.
         -2    1    5    5    0  503  0.13164891515E+02 -0.42156606019E+01 -0.30679019055E+01  0.14159738169E+02  0.00000000000E+00 0.  1.
         -1    1    6    6    0  502 -0.32692864849E+01  0.10215361847E+01 -0.77099088765E+01  0.84364960250E+01  0.00000000000E+00 0.  1.
<mgrwt>
<rscale>  0 0.16498608E+04</rscale>
<asrwt>0</asrwt>
<pdfrwt beam="1">  1        2 0.18949200E+00 0.16498608E+04</pdfrwt>
<pdfrwt beam="2">  1       -2 0.84999629E-01 0.16498608E+04</pdfrwt>
<totfact> 0.20876032E+01</totfact>
</mgrwt>
</event>
<event>
12    1  0.1114484E-007  0.2279796E+04  0.7818608E-02  0.8485930E-01
         -2   -1    0    0    0  501 -0.00000000000E+00  0.00000000000E+00  0.44274097294E+03  0.44274097294E+03  0.00000000000E+00 0.  1.
          2   -1    0    0  501    0  0.00000000000E+00 -0.00000000000E+00 -0.29348249426E+04  0.29348249426E+04  0.00000000000E+00 0. -1.
         23    2    1    2    0    0  0.81969570506E+03 -0.39608987191E+03 -0.14706782640E+04  0.17319510633E+04  0.89284343046E+02 0.  0.
        254    2    1    2    0    0 -0.81969570506E+03  0.39608987191E+03 -0.10214057056E+04  0.16456148522E+04  0.91432510128E+03 0.  0.
        -24    2    4    4    0    0 -0.93273454298E+03  0.51747631151E+03 -0.99130149734E+03  0.14582712801E+04  0.78108943709E+02 0.  0.
         24    2    4    4    0    0  0.11303883792E+03 -0.12138643960E+03 -0.30104208299E+02  0.18734357213E+03  0.81724562178E+02 0.  0.
         13    1    3    3    0    0  0.67459186540E+03 -0.28651741382E+03 -0.11769235608E+04  0.13864759217E+04  0.00000000000E+00 0. -1.
        -13    1    3    3    0    0  0.14510383966E+03 -0.10957245809E+03 -0.29375470320E+03  0.34547514167E+03  0.00000000000E+00 0.  1.
          2    1    6    6  502    0  0.31745875831E+02  0.21989618009E+00  0.13806632324E+02  0.34618955541E+02  0.00000000000E+00 0. -1.
          1    1    5    5  503    0 -0.66348060691E+03  0.38757651425E+03 -0.75458221898E+03  0.10769477217E+04  0.00000000000E+00 0. -1.
         -2    1    5    5    0  503 -0.26925393607E+03  0.12989979727E+03 -0.23671927836E+03  0.38132355837E+03  0.00000000000E+00 0.  1.
         -1    1    6    6    0  502  0.81292962086E+02 -0.12160633578E+03 -0.43910840623E+02  0.15272461659E+03  0.00000000000E+00 0.  1.
<mgrwt>
<rscale>  0 0.22797958E+04</rscale>
<asrwt>0</asrwt>
<pdfrwt beam="1">  1        2 0.45151154E+00 0.22797958E+04</pdfrwt>
<pdfrwt beam="2">  1       -2 0.68113994E-01 0.22797958E+04</pdfrwt>
<totfact> 0.34280413E+00</totfact>
</mgrwt>
</event>
<event>
12    1  0.1114484E-007  0.1574251E+04  0.7818608E-02  0.8836525E-01
          1   -1    0    0  501    0  0.00000000000E+00  0.00000000000E+00  0.11732592104E+04  0.11732592104E+04  0.00000000000E+00 0.  1.
         -1   -1    0    0    0  501 -0.00000000000E+00 -0.00000000000E+00 -0.52807284635E+03  0.52807284635E+03  0.00000000000E+00 0. -1.
         23    2    1    2    0    0  0.18293238696E+03  0.47315515433E+03  0.37079613826E+03  0.63474884926E+03  0.89868054545E+02 0.  0.
        254    2    1    2    0    0 -0.18293238696E+03 -0.47315515433E+03  0.27439022578E+03  0.10665832075E+04  0.89720102775E+03 0.  0.
        -24    2    4    4    0    0 -0.26585775773E+03 -0.46460308203E+03 -0.20074668549E+03  0.57749931957E+03  0.81669218176E+02 0.  0.
         24    2    4    4    0    0  0.82925370776E+02 -0.85520722985E+01  0.47513691127E+03  0.48908388790E+03  0.80611474919E+02 0.  0.
         11    1    3    3    0    0  0.76483934904E+02  0.24205549926E+03  0.13343298600E+03  0.28678392349E+03  0.00000000000E+00 0.  1.
        -11    1    3    3    0    0  0.10644845205E+03  0.23109965507E+03  0.23736315226E+03  0.34796492577E+03  0.00000000000E+00 0. -1.
          4    1    6    6  502    0  0.68995355559E+02  0.29430047870E+02  0.28640922356E+03  0.29606879293E+03  0.00000000000E+00 0. -1.
          3    1    5    5  503    0 -0.33186445291E+02 -0.34112665206E+02 -0.40773984660E+02  0.62670023963E+02  0.00000000000E+00 0. -1.
         -4    1    5    5    0  503 -0.23267131244E+03 -0.43049041682E+03 -0.15997270083E+03  0.51482929561E+03  0.00000000000E+00 0.  1.
         -1    1    6    6    0  502  0.13930015217E+02 -0.37982120168E+02  0.18872768771E+03  0.19301509496E+03  0.00000000000E+00 0.  1.
<mgrwt>
<rscale>  0 0.15742507E+04</rscale>
<asrwt>0</asrwt>
<pdfrwt beam="1">  1        1 0.18050142E+00 0.15742507E+04</pdfrwt>
<pdfrwt beam="2">  1       -1 0.81241977E-01 0.15742507E+04</pdfrwt>
<totfact> 0.16228121E+01</totfact>
</mgrwt>
</event>
<event>
12    1  0.1114484E-007  0.1497124E+04  0.7818608E-02  0.8886368E-01
         -3   -1    0    0    0  501 -0.00000000000E+00  0.00000000000E+00  0.91469500462E+03  0.91469500462E+03  0.00000000000E+00 0.  1.
          3   -1    0    0  501    0  0.00000000000E+00 -0.00000000000E+00 -0.61260286593E+03  0.61260286593E+03  0.00000000000E+00 0. -1.
         23    2    1    2    0    0 -0.12198863759E+03 -0.42097016414E+03  0.24602506725E+03  0.51174509267E+03  0.96216419347E+02 0.  0.
        254    2    1    2    0    0  0.12198863759E+03  0.42097016414E+03  0.56067071443E+02  0.10155527779E+04  0.91438876927E+03 0.  0.
        -24    2    4    4    0    0  0.59425323160E+02  0.53094574537E+03  0.37949567502E+03  0.66008248872E+03  0.79102281830E+02 0.  0.
         24    2    4    4    0    0  0.62563314432E+02 -0.10997558123E+03 -0.32342860357E+03  0.35547028917E+03  0.75790949956E+02 0.  0.
         13    1    3    3    0    0 -0.49991722346E+02 -0.22599860366E+03  0.77260423053E+02  0.24401580713E+03  0.00000000000E+00 0.  1.
        -13    1    3    3    0    0 -0.71996915246E+02 -0.19497156049E+03  0.16876464420E+03  0.26772928554E+03  0.00000000000E+00 0. -1.
          4    1    6    6  502    0  0.64166149174E+02 -0.86032545883E+02 -0.17631114189E+03  0.20640860545E+03  0.00000000000E+00 0. -1.
          1    1    5    5  503    0  0.42644146018E+02  0.46086280421E+03  0.29421011090E+03  0.54842742168E+03  0.00000000000E+00 0. -1.
         -2    1    5    5    0  503  0.16781177142E+02  0.70082941160E+02  0.85285564113E+02  0.11165506703E+03  0.00000000000E+00 0.  1.
         -3    1    6    6    0  502 -0.16028347421E+01 -0.23943035347E+02 -0.14711746168E+03  0.14906168372E+03  0.00000000000E+00 0.  1.
<mgrwt>
<rscale>  0 0.14971236E+04</rscale>
<asrwt>0</asrwt>
<pdfrwt beam="1">  1        3 0.94246595E-01 0.14971236E+04</pdfrwt>
<pdfrwt beam="2">  1       -3 0.14072231E+00 0.14971236E+04</pdfrwt>
<totfact> 0.96583697E-01</totfact>
</mgrwt>
</event>
<event>
12    1  0.1114484E-007  0.1737860E+04  0.7818608E-02  0.8740061E-01
         -2   -1    0    0    0  501 -0.00000000000E+00  0.00000000000E+00  0.29692922012E+03  0.29692922012E+03  0.00000000000E+00 0.  1.
          2   -1    0    0  501    0  0.00000000000E+00 -0.00000000000E+00 -0.25428253523E+04  0.25428253523E+04  0.00000000000E+00 0. -1.
         23    2    1    2    0    0  0.13666202566E+03  0.65251165333E+02  0.17670264292E+03  0.24929095811E+03  0.89375242356E+02 0.  0.
        254    2    1    2    0    0 -0.13666202566E+03 -0.65251165333E+02 -0.24225987751E+04  0.25904636143E+04  0.90475559579E+03 0.  0.
        -24    2    4    4    0    0 -0.18700451187E+02  0.40568960575E+03 -0.13023728356E+04  0.13670237189E+04  0.87436160074E+02 0.  0.
         24    2    4    4    0    0 -0.11796157447E+03 -0.47094077109E+03 -0.11202259395E+04  0.12234398954E+04  0.78732961182E+02 0.  0.
         11    1    3    3    0    0  0.77036185980E+02  0.18936636738E+02  0.30966936757E+02  0.85159387818E+02  0.00000000000E+00 0. -1.
        -11    1    3    3    0    0  0.59625839681E+02  0.46314528595E+02  0.14573570616E+03  0.16413157029E+03  0.00000000000E+00 0.  1.
          4    1    6    6  502    0  0.53292789350E+01 -0.43132247588E+00 -0.99331047085E+01  0.11280683587E+02  0.00000000000E+00 0. -1.
          3    1    5    5  503    0 -0.38674188387E+02  0.21446264265E+03 -0.79887586488E+03  0.82806555624E+03  0.00000000000E+00 0. -1.
         -4    1    5    5    0  503  0.19973737200E+02  0.19122696311E+03 -0.50349697068E+03  0.53895816265E+03  0.00000000000E+00 0.  1.
         -3    1    6    6    0  502 -0.12329085341E+03 -0.47050944861E+03 -0.11102928348E+04  0.12121592118E+04  0.00000000000E+00 0.  1.
<mgrwt>
<rscale>  0 0.17378598E+04</rscale>
<asrwt>0</asrwt>
<pdfrwt beam="1">  1        2 0.39120388E+00 0.17378598E+04</pdfrwt>
<pdfrwt beam="2">  1       -2 0.45681420E-01 0.17378598E+04</pdfrwt>
<totfact> 0.14194333E+01</totfact>
</mgrwt>
</event>
<event>
12    1  0.1114484E-007  0.1927868E+04  0.7818608E-02  0.8641108E-01
         -2   -1    0    0    0  501 -0.00000000000E+00  0.00000000000E+00  0.23882219294E+03  0.23882219294E+03  0.00000000000E+00 0.  1.
          2   -1    0    0  501    0  0.00000000000E+00 -0.00000000000E+00 -0.38906307053E+04  0.38906307053E+04  0.00000000000E+00 0. -1.
         23    2    1    2    0    0 -0.70074631160E+03  0.22908545130E+03 -0.11848371414E+04  0.13984668520E+04  0.91350682571E+02 0.  0.
        254    2    1    2    0    0  0.70074631160E+03 -0.22908545130E+03 -0.24669713709E+04  0.27309860462E+04  0.91039085152E+03 0.  0.
        -24    2    4    4    0    0  0.42304205785E+02  0.27683856208E+03 -0.10227661343E+04  0.10630816755E+04  0.75251896857E+02 0.  0.
         24    2    4    4    0    0  0.65844210581E+03 -0.50592401338E+03 -0.14442052366E+04  0.16679043707E+04  0.81676866166E+02 0.  0.
         11    1    3    3    0    0 -0.40095423687E+03  0.11065412987E+03 -0.58953285361E+03  0.72149679279E+03  0.00000000000E+00 0.  1.
        -11    1    3    3    0    0 -0.29979207473E+03  0.11843132143E+03 -0.59530428781E+03  0.67697005920E+03  0.00000000000E+00 0. -1.
          2    1    6    6  502    0  0.52884835498E+03 -0.38320263970E+03 -0.10752944390E+04  0.12580870305E+04  0.00000000000E+00 0. -1.
          1    1    5    5  503    0  0.40273815198E+02  0.26702375222E+03 -0.10152594257E+04  0.10505595489E+04  0.00000000000E+00 0. -1.
         -2    1    5    5    0  503  0.20303905870E+01  0.98148098634E+01 -0.75067086120E+01  0.12522126528E+02  0.00000000000E+00 0.  1.
         -1    1    6    6    0  502  0.12959375083E+03 -0.12272137368E+03 -0.36891079759E+03  0.40981734028E+03  0.00000000000E+00 0.  1.
<mgrwt>
<rscale>  0 0.19278682E+04</rscale>
<asrwt>0</asrwt>
<pdfrwt beam="1">  1        2 0.59855851E+00 0.19278682E+04</pdfrwt>
<pdfrwt beam="2">  1       -2 0.36741880E-01 0.19278682E+04</pdfrwt>
<totfact> 0.27549666E+00</totfact>
</mgrwt>
</event>
<event>
12    1  0.1114484E-007  0.1781849E+04  0.7818608E-02  0.8716012E-01
          2   -1    0    0  501    0  0.00000000000E+00  0.00000000000E+00  0.31959083715E+04  0.31959083715E+04  0.00000000000E+00 0. -1.
         -2   -1    0    0    0  501 -0.00000000000E+00 -0.00000000000E+00 -0.24836338823E+03  0.24836338823E+03  0.00000000000E+00 0.  1.
         23    2    1    2    0    0 -0.20657477656E+03 -0.45755472299E+03  0.27872498366E+03  0.58147607309E+03  0.91637024333E+02 0.  0.
        254    2    1    2    0    0  0.20657477656E+03  0.45755472299E+03  0.26688199997E+04  0.28627956867E+04  0.90607366713E+03 0.  0.
        -24    2    4    4    0    0 -0.25004816668E+03  0.49357615025E+03  0.12379720472E+04  0.13582625419E+04  0.78491027422E+02 0.  0.
         24    2    4    4    0    0  0.45662294324E+03 -0.36021427268E+02  0.14308479524E+04  0.15045331447E+04  0.80573352380E+02 0.  0.
         11    1    3    3    0    0 -0.55378335589E+02 -0.69068024426E+02  0.19727288489E+02  0.90699051603E+02  0.00000000000E+00 0. -1.
        -11    1    3    3    0    0 -0.15119644097E+03 -0.38848669856E+03  0.25899769517E+03  0.49077702149E+03  0.00000000000E+00 0.  1.
          4    1    6    6  502    0  0.18340532228E+03 -0.33242892040E+01  0.45367338256E+03  0.48935478049E+03  0.00000000000E+00 0. -1.
          3    1    5    5  503    0 -0.40995832646E+02  0.97746133429E+02  0.31725009566E+03  0.33448854702E+03  0.00000000000E+00 0. -1.
         -4    1    5    5    0  503 -0.20905233403E+03  0.39583001682E+03  0.92072195157E+03  0.10237739949E+04  0.00000000000E+00 0.  1.
         -3    1    6    6    0  502  0.27321762096E+03 -0.32697138064E+02  0.97717456987E+03  0.10151783642E+04  0.00000000000E+00 0.  1.
<mgrwt>
<rscale>  0 0.17818492E+04</rscale>
<asrwt>0</asrwt>
<pdfrwt beam="1">  1        2 0.49167818E+00 0.17818492E+04</pdfrwt>
<pdfrwt beam="2">  1       -2 0.38209754E-01 0.17818492E+04</pdfrwt>
<totfact> 0.80225822E+00</totfact>
</mgrwt>
</event>
