<event>
12    3  0.4769008E-008  0.2062151E+04  0.7818608E-02  0.8578102E-01
         -2   -1    0    0    0  501 -0.00000000000E+00  0.00000000000E+00  0.30825271455E+03  0.30825271455E+03  0.00000000000E+00 0.  1.
          2   -1    0    0  501    0  0.00000000000E+00 -0.00000000000E+00 -0.34488471390E+04  0.34488471390E+04  0.00000000000E+00 0. -1.
         23    2    1    2    0    0 -0.21751334170E+03 -0.53422255456E+03 -0.18589635366E+03  0.61318801572E+03  0.93468158790E+02 0.  0.
        254    2    1    2    0    0  0.21751334170E+03  0.53422255456E+03 -0.29546980708E+04  0.31439118378E+04  0.90622026176E+03 0.  0.
         23    2    4    4    0    0  0.34051919619E+03  0.46991423848E+03 -0.29151760715E+04  0.29736720679E+04  0.87757192975E+02 0.  0.
         23    2    4    4    0    0 -0.12300585448E+03  0.64308316078E+02 -0.39521999338E+02  0.17023976999E+03  0.90297237499E+02 0.  0.
          1    1    3    3  502    0 -0.10280316884E+03 -0.17423131428E+03 -0.10025078584E+03  0.22577701934E+03  0.00000000000E+00 0. -1.
         -1    1    3    3    0  502 -0.11471017287E+03 -0.35999124027E+03 -0.85645567816E+02  0.38741099638E+03  0.00000000000E+00 0.  1.
         13    1    5    5    0    0  0.13269066263E+03  0.13829719242E+03 -0.80400744720E+03  0.82653548051E+03  0.00000000000E+00 0.  1.
        -13    1    5    5    0    0  0.20782853356E+03  0.33161704606E+03 -0.21111686243E+04  0.21471365873E+04  0.00000000000E+00 0. -1.
          1    1    6    6  503    0 -0.43575936426E+02  0.27262746462E+02  0.28973773016E+02  0.59005076924E+02  0.00000000000E+00 0. -1.
         -1    1    6    6    0  503 -0.79429918058E+02  0.37045569616E+02 -0.68495772353E+02  0.11123469306E+03  0.00000000000E+00 0.  1.
<mgrwt>
<rscale>  0 0.20621508E+04</rscale>
<asrwt>0</asrwt>
<pdfrwt beam="1">  1        2 0.53059191E+00 0.20621508E+04</pdfrwt>
<pdfrwt beam="2">  1       -2 0.47423490E-01 0.20621508E+04</pdfrwt>
<totfact> 0.34532033E+00</totfact>
</mgrwt>
</event>
<event>
12    3  0.4769008E-008  0.1639160E+04  0.7818608E-02  0.8796845E-01
          3   -1    0    0  501    0  0.00000000000E+00  0.00000000000E+00  0.34917477031E+03  0.34917477031E+03  0.00000000000E+00 0. -1.
         -3   -1    0    0    0  501 -0.00000000000E+00 -0.00000000000E+00 -0.19237120557E+04  0.19237120557E+04  0.00000000000E+00 0.  1.
         23    2    1    2    0    0 -0.12615431641E+03  0.38339875799E+03 -0.11678996954E+04  0.12391396870E+04  0.92563201505E+02 0.  0.
        254    2    1    2    0    0  0.12615431641E+03 -0.38339875799E+03 -0.40663758999E+03  0.10337471390E+04  0.86044726659E+03 0.  0.
         23    2    4    4    0    0 -0.22257220134E+03  0.15503389281E+03 -0.21549121170E+03  0.35815541380E+03  0.90911745013E+02 0.  0.
         23    2    4    4    0    0  0.34872651774E+03 -0.53843265080E+03 -0.19114637829E+03  0.67559172519E+03  0.91473152239E+02 0.  0.
          4    1    3    3  502    0 -0.75661512014E+02  0.22697233443E+03 -0.55068831335E+03  0.60041545904E+03  0.00000000000E+00 0. -1.
         -4    1    3    3    0  502 -0.50492804391E+02  0.15642642356E+03 -0.61721138203E+03  0.63872422797E+03  0.00000000000E+00 0.  1.
         13    1    5    5    0    0 -0.32264580927E+01  0.16242601946E+02  0.52976794876E+01  0.17386706352E+02  0.00000000000E+00 0. -1.
        -13    1    5    5    0    0 -0.21934574325E+03  0.13879129087E+03 -0.22078889119E+03  0.34076870745E+03  0.00000000000E+00 0.  1.
          1    1    6    6  503    0  0.73835658245E+02 -0.92367300323E+02 -0.11934715860E+01  0.11825754510E+03  0.00000000000E+00 0. -1.
         -1    1    6    6    0  503  0.27489085950E+03 -0.44606535048E+03 -0.18995290670E+03  0.55733418009E+03  0.00000000000E+00 0.  1.
<mgrwt>
<rscale>  0 0.16391604E+04</rscale>
<asrwt>0</asrwt>
<pdfrwt beam="1">  1        3 0.53719196E-01 0.16391604E+04</pdfrwt>
<pdfrwt beam="2">  1       -3 0.29595570E+00 0.16391604E+04</pdfrwt>
<totfact> 0.34400112E-01</totfact>
</mgrwt>
</event>
<event>
12    3  0.4769008E-008  0.1210858E+04  0.7818608E-02  0.9103406E-01
          2   -1    0    0  501    0  0.00000000000E+00  0.00000000000E+00  0.21215360797E+04  0.21215360797E+04  0.00000000000E+00 0. -1.
         -2   -1    0    0    0  501 -0.00000000000E+00 -0.00000000000E+00 -0.17277291658E+03  0.17277291658E+03  0.00000000000E+00 0.  1.
         23    2    1    2    0    0 -0.96517510230E+02  0.83341084882E+02  0.18512072616E+02  0.15805990126E+03  0.91536164137E+02 0.  0.
        254    2    1    2    0    0  0.96517510230E+02 -0.83341084882E+02  0.19302510905E+04  0.21362490950E+04  0.90632751110E+03 0.  0.
         23    2    4    4    0    0 -0.32917224748E+03 -0.16097458817E+03  0.13776432696E+04  0.14285161322E+04  0.92142145186E+02 0.  0.
         23    2    4    4    0    0  0.42568975771E+03  0.77633503290E+02  0.55260782085E+03  0.70773296284E+03  0.90949504538E+02 0.  0.
          1    1    3    3  502    0 -0.36780677680E+02  0.68379015995E+02  0.46406480920E+02  0.90454792855E+02  0.00000000000E+00 0. -1.
         -1    1    3    3    0  502 -0.59736832550E+02  0.14962068886E+02 -0.27894408303E+02  0.67605108409E+02  0.00000000000E+00 0.  1.
         13    1    5    5    0    0 -0.21570175448E+03 -0.12489926110E+03  0.77067712513E+03  0.80998166862E+03  0.00000000000E+00 0.  1.
        -13    1    5    5    0    0 -0.11347049300E+03 -0.36075327073E+02  0.60696614450E+03  0.61853446353E+03  0.00000000000E+00 0. -1.
          2    1    6    6  503    0  0.24207038896E+03  0.15356381158E+02  0.24995101353E+03  0.34829499109E+03  0.00000000000E+00 0. -1.
         -2    1    6    6    0  503  0.18361936876E+03  0.62277122132E+02  0.30265680731E+03  0.35943797175E+03  0.00000000000E+00 0.  1.
<mgrwt>
<rscale>  0 0.12108575E+04</rscale>
<asrwt>0</asrwt>
<pdfrwt beam="1">  1        2 0.32639015E+00 0.12108575E+04</pdfrwt>
<pdfrwt beam="2">  1       -2 0.26580450E-01 0.12108575E+04</pdfrwt>
<totfact> 0.72451052E+01</totfact>
</mgrwt>
</event>
<event>
12    3  0.4769008E-008  0.1960357E+04  0.7818608E-02  0.8625383E-01
         -2   -1    0    0    0  501 -0.00000000000E+00  0.00000000000E+00  0.50623691007E+03  0.50623691007E+03  0.00000000000E+00 0.  1.
          2   -1    0    0  501    0  0.00000000000E+00 -0.00000000000E+00 -0.18978262306E+04  0.18978262306E+04  0.00000000000E+00 0. -1.
         23    2    1    2    0    0  0.65114692337E+03  0.34769514679E+03 -0.71299154806E+03  0.10316064472E+04  0.10474103001E+03 0.  0.
        254    2    1    2    0    0 -0.65114692337E+03 -0.34769514679E+03 -0.67859777248E+03  0.13724566935E+04  0.93715431373E+03 0.  0.
         23    2    4    4    0    0 -0.50417178489E+03 -0.63436313196E+03 -0.63874990517E+03  0.10354979197E+04  0.87457009135E+02 0.  0.
         23    2    4    4    0    0 -0.14697513848E+03  0.28666798517E+03 -0.39847867305E+02  0.33695877379E+03  0.90405407205E+02 0.  0.
          1    1    3    3  502    0  0.50501604571E+03  0.31345467787E+03 -0.59093769895E+03  0.83815416574E+03  0.00000000000E+00 0. -1.
         -1    1    3    3    0  502  0.14613087766E+03  0.34240468923E+02 -0.12205384910E+03  0.19345228145E+03  0.00000000000E+00 0.  1.
         13    1    5    5    0    0 -0.13248445735E+03 -0.18401285995E+03 -0.22817697890E+03  0.32167933998E+03  0.00000000000E+00 0.  1.
        -13    1    5    5    0    0 -0.37168732754E+03 -0.45035027202E+03 -0.41057292627E+03  0.71381857971E+03  0.00000000000E+00 0. -1.
          1    1    6    6  503    0 -0.15497871179E+03  0.25472729524E+03 -0.50364219922E+02  0.30239204801E+03  0.00000000000E+00 0. -1.
         -1    1    6    6    0  503  0.80035733124E+01  0.31940689930E+02  0.10516352617E+02  0.34566725782E+02  0.00000000000E+00 0.  1.
<mgrwt>
<rscale>  0 0.19603568E+04</rscale>
<asrwt>0</asrwt>
<pdfrwt beam="1">  1        2 0.29197326E+00 0.19603568E+04</pdfrwt>
<pdfrwt beam="2">  1       -2 0.77882602E-01 0.19603568E+04</pdfrwt>
<totfact> 0.10418130E+01</totfact>
</mgrwt>
</event>
<event>
12    3  0.4769008E-008  0.2397403E+04  0.7818608E-02  0.8440476E-01
         -1   -1    0    0    0  501 -0.00000000000E+00  0.00000000000E+00  0.37768357714E+03  0.37768357714E+03  0.00000000000E+00 0.  1.
          1   -1    0    0  501    0  0.00000000000E+00 -0.00000000000E+00 -0.38044695220E+04  0.38044695220E+04  0.00000000000E+00 0. -1.
         23    2    1    2    0    0  0.83040518343E+03  0.13122985205E+03 -0.44281519814E+03  0.95457965321E+03  0.91339870088E+02 0.  0.
        254    2    1    2    0    0 -0.83040518343E+03 -0.13122985205E+03 -0.29839707467E+04  0.32275734460E+04  0.89797265485E+03 0.  0.
         23    2    4    4    0    0 -0.87896992658E+03 -0.23447821541E+03 -0.29349294779E+04  0.30740547910E+04  0.91834920385E+02 0.  0.
         23    2    4    4    0    0  0.48564743141E+02  0.10324836336E+03 -0.49041268845E+02  0.15351865494E+03  0.90245069398E+02 0.  0.
          3    1    3    3  502    0  0.60914541062E+02 -0.77922605115E+01 -0.14862428691E+02  0.63183798740E+02  0.00000000000E+00 0. -1.
         -3    1    3    3    0  502  0.76949064237E+03  0.13902211256E+03 -0.42795276945E+03  0.89139585447E+03  0.00000000000E+00 0.  1.
         13    1    5    5    0    0 -0.33956784425E+03 -0.47828074645E+02 -0.10467981533E+04  0.11015353918E+04  0.00000000000E+00 0. -1.
        -13    1    5    5    0    0 -0.53940208232E+03 -0.18665014077E+03 -0.18881313246E+04  0.19725193992E+04  0.00000000000E+00 0.  1.
          2    1    6    6  503    0  0.59812947546E+02  0.22691935109E+02 -0.17977442495E+02  0.66450741545E+02  0.00000000000E+00 0. -1.
         -2    1    6    6    0  503 -0.11248204405E+02  0.80556428252E+02 -0.31063826349E+02  0.87067913392E+02  0.00000000000E+00 0.  1.
<mgrwt>
<rscale>  0 0.23974033E+04</rscale>
<asrwt>0</asrwt>
<pdfrwt beam="1">  1        1 0.58530299E+00 0.23974033E+04</pdfrwt>
<pdfrwt beam="2">  1       -1 0.58105167E-01 0.23974033E+04</pdfrwt>
<totfact> 0.38105620E-01</totfact>
</mgrwt>
</event>
<event>
12    3  0.4769008E-008  0.1684100E+04  0.7818608E-02  0.8770485E-01
         -2   -1    0    0    0  501 -0.00000000000E+00  0.00000000000E+00  0.21560642593E+03  0.21560642593E+03  0.00000000000E+00 0.  1.
          2   -1    0    0  501    0  0.00000000000E+00 -0.00000000000E+00 -0.32886224167E+04  0.32886224167E+04  0.00000000000E+00 0. -1.
         23    2    1    2    0    0 -0.27399763552E+03  0.37178374844E+03 -0.30832093959E+03  0.56294840430E+03  0.92472937852E+02 0.  0.
        254    2    1    2    0    0  0.27399763552E+03 -0.37178374844E+03 -0.27646950512E+04  0.29412804383E+04  0.89123174934E+03 0.  0.
         23    2    4    4    0    0  0.57139459674E+03 -0.29477276073E+03 -0.14638906336E+04  0.16014628125E+04  0.91239175873E+02 0.  0.
         23    2    4    4    0    0 -0.29739696121E+03 -0.77010987711E+02 -0.13008044176E+04  0.13398176258E+04  0.92970386540E+02 0.  0.
          3    1    3    3  502    0 -0.10602291888E+03  0.20312521953E+03 -0.18714170697E+03  0.29584241181E+03  0.00000000000E+00 0. -1.
         -3    1    3    3    0  502 -0.16797471664E+03  0.16865852892E+03 -0.12117923262E+03  0.26710599249E+03  0.00000000000E+00 0.  1.
         13    1    5    5    0    0  0.78979687974E+01 -0.84379899093E+01 -0.73711198847E+01  0.13708063072E+02  0.00000000000E+00 0. -1.
        -13    1    5    5    0    0  0.56349662794E+03 -0.28633477082E+03 -0.14565195137E+04  0.15877547494E+04  0.00000000000E+00 0.  1.
          1    1    6    6  503    0 -0.10338199108E+03  0.94118760560E+01 -0.54184304029E+03  0.55169765253E+03  0.00000000000E+00 0. -1.
         -1    1    6    6    0  503 -0.19401497014E+03 -0.86422863767E+02 -0.75896137733E+03  0.78811997329E+03  0.00000000000E+00 0.  1.
<mgrwt>
<rscale>  0 0.16840999E+04</rscale>
<asrwt>0</asrwt>
<pdfrwt beam="1">  1        2 0.50594189E+00 0.16840999E+04</pdfrwt>
<pdfrwt beam="2">  1       -2 0.33170221E-01 0.16840999E+04</pdfrwt>
<totfact> 0.92366546E+00</totfact>
</mgrwt>
</event>
<event>
12    3  0.4769008E-008  0.1221070E+04  0.7818608E-02  0.9094611E-01
          1   -1    0    0  501    0  0.00000000000E+00  0.00000000000E+00  0.11135270693E+04  0.11135270693E+04  0.00000000000E+00 0. -1.
         -1   -1    0    0    0  501 -0.00000000000E+00 -0.00000000000E+00 -0.33474993788E+03  0.33474993788E+03  0.00000000000E+00 0.  1.
         23    2    1    2    0    0 -0.25830623589E+02  0.18272041933E+03  0.39472547883E+03  0.44594641604E+03  0.94900103200E+02 0.  0.
        254    2    1    2    0    0  0.25830623589E+02 -0.18272041933E+03  0.38405165262E+03  0.10023305912E+04  0.90725793981E+03 0.  0.
         23    2    4    4    0    0  0.39737349545E+03 -0.18929466051E+03 -0.14871340318E+02  0.44956000818E+03  0.90248993418E+02 0.  0.
         23    2    4    4    0    0 -0.37154287186E+03  0.65742411785E+01  0.39892299294E+03  0.55277058299E+03  0.91260269804E+02 0.  0.
          3    1    3    3  502    0 -0.47939362533E+02  0.16109004583E+03  0.36987342061E+03  0.40626903970E+03  0.00000000000E+00 0. -1.
         -3    1    3    3    0  502  0.22108738944E+02  0.21630373505E+02  0.24852058219E+02  0.39677376342E+02  0.00000000000E+00 0.  1.
         13    1    5    5    0    0  0.13254587368E+03 -0.59478523566E+02  0.37432658994E+02  0.15002435587E+03  0.00000000000E+00 0.  1.
        -13    1    5    5    0    0  0.26482762177E+03 -0.12981613695E+03 -0.52303999311E+02  0.29953565231E+03  0.00000000000E+00 0. -1.
          1    1    6    6  503    0 -0.32401437552E+03  0.98799035732E+01  0.38466229172E+03  0.50303877257E+03  0.00000000000E+00 0. -1.
         -1    1    6    6    0  503 -0.47528496336E+02 -0.33056623947E+01  0.14260701218E+02  0.49731810414E+02  0.00000000000E+00 0.  1.
<mgrwt>
<rscale>  0 0.12210702E+04</rscale>
<asrwt>0</asrwt>
<pdfrwt beam="1">  1        1 0.17131185E+00 0.12210702E+04</pdfrwt>
<pdfrwt beam="2">  1       -1 0.51499991E-01 0.12210702E+04</pdfrwt>
<totfact> 0.46416038E+01</totfact>
</mgrwt>
</event>
<event>
12    3  0.4769008E-008  0.2594909E+04  0.7818608E-02  0.8369932E-01
         -2   -1    0    0    0  501 -0.00000000000E+00  0.00000000000E+00  0.61767725524E+03  0.61767725524E+03  0.00000000000E+00 0.  1.
          2   -1    0    0  501    0  0.00000000000E+00 -0.00000000000E+00 -0.27253530870E+04  0.27253530870E+04  0.00000000000E+00 0. -1.
         23    2    1    2    0    0 -0.27460963996E+03  0.56014071364E+03 -0.21556377290E+04  0.22470952462E+04  0.11616778024E+03 0.  0.
        254    2    1    2    0    0  0.27460963996E+03 -0.56014071364E+03  0.47961897289E+02  0.10959350960E+04  0.89978070535E+03 0.  0.
         23    2    4    4    0    0  0.56739022700E+03 -0.48054784938E+03  0.15076667721E+03  0.76408701144E+03  0.90777006218E+02 0.  0.
         23    2    4    4    0    0 -0.29278058704E+03 -0.79592864260E+02 -0.10280477992E+03  0.33184808460E+03  0.86595798328E+02 0.  0.
          3    1    3    3  502    0 -0.21455911078E+03  0.45789857723E+03 -0.18844728095E+04  0.19511392797E+04  0.00000000000E+00 0. -1.
         -3    1    3    3    0  502 -0.60050529176E+02  0.10224213642E+03 -0.27116491952E+03  0.29595596648E+03  0.00000000000E+00 0.  1.
         13    1    5    5    0    0  0.14412144278E+03 -0.16684869396E+03  0.68415400833E+02  0.23084658112E+03  0.00000000000E+00 0. -1.
        -13    1    5    5    0    0  0.42326878422E+03 -0.31369915543E+03  0.82351276378E+02  0.53324043032E+03  0.00000000000E+00 0.  1.
          1    1    6    6  503    0 -0.73707805702E+02  0.53983567326E+01  0.33930159174E+01  0.73983075320E+02  0.00000000000E+00 0. -1.
         -1    1    6    6    0  503 -0.21907278134E+03 -0.84991220992E+02 -0.10619779584E+03  0.25786500928E+03  0.00000000000E+00 0.  1.
<mgrwt>
<rscale>  0 0.25949093E+04</rscale>
<asrwt>0</asrwt>
<pdfrwt beam="1">  1        2 0.41928508E+00 0.25949093E+04</pdfrwt>
<pdfrwt beam="2">  1       -2 0.95027272E-01 0.25949093E+04</pdfrwt>
<totfact> 0.21132426E+00</totfact>
</mgrwt>
</event>
<event>
12    3  0.4769008E-008  0.1422874E+04  0.7818608E-02  0.8937425E-01
          1   -1    0    0  501    0  0.00000000000E+00  0.00000000000E+00  0.70095709358E+03  0.70095709358E+03  0.00000000000E+00 0. -1.
         -1   -1    0    0    0  501 -0.00000000000E+00 -0.00000000000E+00 -0.72207378233E+03  0.72207378233E+03  0.00000000000E+00 0.  1.
         23    2    1    2    0    0 -0.28687488082E+03 -0.30773269459E+03  0.12363659854E+02  0.43087834254E+03  0.92231650827E+02 0.  0.
        254    2    1    2    0    0  0.28687488082E+03  0.30773269459E+03 -0.33480348603E+02  0.99215253338E+03  0.89791375264E+03 0.  0.
         23    2    4    4    0    0 -0.17578756168E+03  0.45259057871E+03  0.16465235295E+02  0.49601801913E+03  0.10011629510E+03 0.  0.
         23    2    4    4    0    0  0.46266244250E+03 -0.14485788412E+03 -0.49945583898E+02  0.49613451425E+03  0.92814614094E+02 0.  0.
          1    1    3    3  502    0 -0.26653328362E+03 -0.25061577167E+03  0.31738490564E+02  0.36722688909E+03  0.00000000000E+00 0. -1.
         -1    1    3    3    0  502 -0.20341597202E+02 -0.57116922924E+02 -0.19374830710E+02  0.63651453448E+02  0.00000000000E+00 0.  1.
         13    1    5    5    0    0 -0.11608545849E+03  0.16601909897E+03 -0.35530241496E+01  0.20260996737E+03  0.00000000000E+00 0. -1.
        -13    1    5    5    0    0 -0.59702103190E+02  0.28657147974E+03  0.20018259445E+02  0.29340805176E+03  0.00000000000E+00 0.  1.
          2    1    6    6  503    0  0.43887189030E+03 -0.11404996175E+03 -0.55434774065E+02  0.45682485051E+03  0.00000000000E+00 0. -1.
         -2    1    6    6    0  503  0.23790552206E+02 -0.30807922370E+02  0.54891901674E+01  0.39309663745E+02  0.00000000000E+00 0.  1.
<mgrwt>
<rscale>  0 0.14228742E+04</rscale>
<asrwt>0</asrwt>
<pdfrwt beam="1">  1        1 0.10783955E+00 0.14228742E+04</pdfrwt>
<pdfrwt beam="2">  1       -1 0.11108827E+00 0.14228742E+04</pdfrwt>
<totfact> 0.19737121E+01</totfact>
</mgrwt>
</event>
<event>
12    3  0.4769008E-008  0.1638744E+04  0.7818608E-02  0.8797094E-01
          2   -1    0    0  501    0  0.00000000000E+00  0.00000000000E+00  0.29560820589E+04  0.29560820589E+04  0.00000000000E+00 0. -1.
         -2   -1    0    0    0  501 -0.00000000000E+00 -0.00000000000E+00 -0.22711484959E+03  0.22711484959E+03  0.00000000000E+00 0.  1.
         23    2    1    2    0    0 -0.85130644636E+02 -0.10219695033E+03 -0.10724257524E+03  0.19225462926E+03  0.88144365764E+02 0.  0.
        254    2    1    2    0    0  0.85130644636E+02  0.10219695033E+03  0.28362097846E+04  0.29909422792E+04  0.94019058300E+03 0.  0.
         23    2    4    4    0    0  0.74838977472E+02 -0.17330061986E+03  0.88439883773E+02  0.22805401237E+03  0.92482658499E+02 0.  0.
         23    2    4    4    0    0  0.10291667164E+02  0.27549757020E+03  0.27477699008E+04  0.27628882669E+04  0.85482851456E+02 0.  0.
          1    1    3    3  502    0  0.88119022783E+01 -0.11337664922E+02 -0.45498633507E+02  0.47710773612E+02  0.00000000000E+00 0. -1.
         -1    1    3    3    0  502 -0.93942546914E+02 -0.90859285410E+02 -0.61743941733E+02  0.14454385565E+03  0.00000000000E+00 0.  1.
         13    1    5    5    0    0  0.45318059017E+02 -0.10619774815E+03  0.10132851739E+03  0.15362016996E+03  0.00000000000E+00 0.  1.
        -13    1    5    5    0    0  0.29520918455E+02 -0.67102871718E+02 -0.12888633612E+02  0.74433842408E+02  0.00000000000E+00 0. -1.
          2    1    6    6  503    0 -0.21197427912E+02  0.23989668958E+03  0.22480583220E+04  0.22609214873E+04  0.00000000000E+00 0. -1.
         -2    1    6    6    0  503  0.31489095076E+02  0.35600880612E+02  0.49971157884E+03  0.50196677961E+03  0.00000000000E+00 0.  1.
<mgrwt>
<rscale>  0 0.16387436E+04</rscale>
<asrwt>0</asrwt>
<pdfrwt beam="1">  1        2 0.45478183E+00 0.16387436E+04</pdfrwt>
<pdfrwt beam="2">  1       -2 0.34940748E-01 0.16387436E+04</pdfrwt>
<totfact> 0.13698815E+01</totfact>
</mgrwt>
</event>
<event>
12    3  0.4769008E-008  0.2243106E+04  0.7818608E-02  0.8500698E-01
         -2   -1    0    0    0  501 -0.00000000000E+00  0.00000000000E+00  0.94035933803E+03  0.94035933803E+03  0.00000000000E+00 0.  1.
          2   -1    0    0  501    0  0.00000000000E+00 -0.00000000000E+00 -0.13376598971E+04  0.13376598971E+04  0.00000000000E+00 0. -1.
         23    2    1    2    0    0 -0.33171053490E+03  0.33667867489E+03 -0.98973095209E+03  0.11006260363E+04  0.91792729574E+02 0.  0.
        254    2    1    2    0    0  0.33171053490E+03 -0.33667867489E+03  0.59243039305E+03  0.11773931988E+04  0.90105303109E+03 0.  0.
         23    2    4    4    0    0 -0.29482728620E+03 -0.19869372322E+03  0.18112816031E+03  0.40975422496E+03  0.93213679669E+02 0.  0.
         23    2    4    4    0    0  0.62653782110E+03 -0.13798495168E+03  0.41130223274E+03  0.76763897383E+03  0.92252801208E+02 0.  0.
          3    1    3    3  502    0 -0.16681683146E+03  0.23331635603E+03 -0.58288955432E+03  0.64963421230E+03  0.00000000000E+00 0. -1.
         -3    1    3    3    0  502 -0.16489370344E+03  0.10336231886E+03 -0.40684139777E+03  0.45099182402E+03  0.00000000000E+00 0.  1.
         13    1    5    5    0    0 -0.22044798243E+03 -0.10120581701E+03  0.98037948147E+02  0.26163212652E+03  0.00000000000E+00 0.  1.
        -13    1    5    5    0    0 -0.74379303775E+02 -0.97487906206E+02  0.83090212165E+02  0.14812209843E+03  0.00000000000E+00 0. -1.
          3    1    6    6  503    0  0.40570536394E+02 -0.65438335750E+01  0.57376764848E+02  0.70575373365E+02  0.00000000000E+00 0. -1.
         -3    1    6    6    0  503  0.58596728470E+03 -0.13144111810E+03  0.35392546789E+03  0.69706360046E+03  0.00000000000E+00 0.  1.
<mgrwt>
<rscale>  0 0.22431059E+04</rscale>
<asrwt>0</asrwt>
<pdfrwt beam="1">  1        2 0.20579383E+00 0.22431059E+04</pdfrwt>
<pdfrwt beam="2">  1       -2 0.14467067E+00 0.22431059E+04</pdfrwt>
<totfact> 0.47200756E+00</totfact>
</mgrwt>
</event>
<event>
12    3  0.4769008E-008  0.2179279E+04  0.7818608E-02  0.8527103E-01
         -2   -1    0    0    0  501 -0.00000000000E+00  0.00000000000E+00  0.54711459391E+03  0.54711459391E+03  0.00000000000E+00 0.  1.
          2   -1    0    0  501    0  0.00000000000E+00 -0.00000000000E+00 -0.21701378104E+04  0.21701378104E+04  0.00000000000E+00 0. -1.
         23    2    1    2    0    0 -0.56053485783E+03  0.70771419645E+03 -0.72319433811E+03  0.11603232168E+04  0.91001132163E+02 0.  0.
        254    2    1    2    0    0  0.56053485783E+03 -0.70771419645E+03 -0.89982887835E+03  0.15569291875E+04  0.89402336315E+03 0.  0.
         23    2    4    4    0    0  0.22211240118E+03  0.11898728711E+03  0.26707164784E+02  0.26665515792E+03  0.83065078957E+02 0.  0.
         23    2    4    4    0    0  0.33842245665E+03 -0.82670148355E+03 -0.92653604314E+03  0.12902740296E+04  0.91503716295E+02 0.  0.
          1    1    3    3  502    0 -0.51239691315E+03  0.67103633582E+03 -0.69501314897E+03  0.10935646473E+04  0.00000000000E+00 0. -1.
         -1    1    3    3    0  502 -0.48137944681E+02  0.36677860625E+02 -0.28181189136E+02  0.66758569482E+02  0.00000000000E+00 0.  1.
         13    1    5    5    0    0  0.57535418084E+02  0.19922443743E+02 -0.27866725028E+02  0.66961051833E+02  0.00000000000E+00 0. -1.
        -13    1    5    5    0    0  0.16457698309E+03  0.99064843366E+02  0.54573889811E+02  0.19969410608E+03  0.00000000000E+00 0.  1.
          1    1    6    6  503    0  0.12419396281E+01 -0.35468663194E+02 -0.57614616109E+02  0.67668400839E+02  0.00000000000E+00 0. -1.
         -1    1    6    6    0  503  0.33718051702E+03 -0.79123282036E+03 -0.86892142703E+03  0.12226056287E+04  0.00000000000E+00 0.  1.
<mgrwt>
<rscale>  0 0.21792788E+04</rscale>
<asrwt>0</asrwt>
<pdfrwt beam="1">  1        2 0.33386737E+00 0.21792788E+04</pdfrwt>
<pdfrwt beam="2">  1       -2 0.84171473E-01 0.21792788E+04</pdfrwt>
<totfact> 0.60542540E+00</totfact>
</mgrwt>
</event>
<event>
12    3  0.4769008E-008  0.2763754E+04  0.7818608E-02  0.8314611E-01
         -2   -1    0    0    0  501 -0.00000000000E+00  0.00000000000E+00  0.15283534084E+04  0.15283534084E+04  0.00000000000E+00 0.  1.
          2   -1    0    0  501    0  0.00000000000E+00 -0.00000000000E+00 -0.12494384734E+04  0.12494384734E+04  0.00000000000E+00 0. -1.
         23    2    1    2    0    0  0.87693468258E+03  0.65434444443E+03  0.71233916677E+03  0.13099355974E+04  0.10641001535E+03 0.  0.
        254    2    1    2    0    0 -0.87693468258E+03 -0.65434444443E+03 -0.43342423177E+03  0.14678562844E+04  0.87724820739E+03 0.  0.
         23    2    4    4    0    0 -0.28751242190E+03 -0.67434620135E+03 -0.46018395881E+03  0.87038276200E+03  0.91600679054E+02 0.  0.
         23    2    4    4    0    0 -0.58942226068E+03  0.20001756928E+02  0.26759727042E+02  0.59747352236E+03  0.91868684916E+02 0.  0.
          4    1    3    3  502    0  0.85762218096E+03  0.62469526380E+03  0.67042007722E+03  0.12550789050E+04  0.00000000000E+00 0. -1.
         -4    1    3    3    0  502  0.19312501621E+02  0.29649180627E+02  0.41919089543E+02  0.54856692380E+02  0.00000000000E+00 0.  1.
         13    1    5    5    0    0 -0.21729634585E+03 -0.55749780220E+03 -0.33742258116E+03  0.68693194688E+03  0.00000000000E+00 0. -1.
        -13    1    5    5    0    0 -0.70216076054E+02 -0.11684839916E+03 -0.12276137765E+03  0.18345081511E+03  0.00000000000E+00 0.  1.
          3    1    6    6  503    0 -0.40881202562E+03  0.30758163141E+02  0.57402828947E+02  0.41396669149E+03  0.00000000000E+00 0. -1.
         -3    1    6    6    0  503 -0.18061023506E+03 -0.10756406214E+02 -0.30643101905E+02  0.18350683087E+03  0.00000000000E+00 0.  1.
<mgrwt>
<rscale>  0 0.27637536E+04</rscale>
<asrwt>0</asrwt>
<pdfrwt beam="1">  1        2 0.19222131E+00 0.27637536E+04</pdfrwt>
<pdfrwt beam="2">  1       -2 0.23513129E+00 0.27637536E+04</pdfrwt>
<totfact> 0.12268754E+00</totfact>
</mgrwt>
</event>
<event>
12    3  0.4769008E-008  0.1170141E+04  0.7818608E-02  0.9139402E-01
         -1   -1    0    0    0  501 -0.00000000000E+00  0.00000000000E+00  0.34370304356E+03  0.34370304356E+03  0.00000000000E+00 0.  1.
          1   -1    0    0  501    0  0.00000000000E+00 -0.00000000000E+00 -0.99593888036E+03  0.99593888036E+03  0.00000000000E+00 0. -1.
         23    2    1    2    0    0  0.11599310218E+03 -0.13977878846E+03 -0.30597770060E+03  0.36776006472E+03  0.92911799484E+02 0.  0.
        254    2    1    2    0    0 -0.11599310218E+03  0.13977878846E+03 -0.34625813620E+03  0.97188185920E+03  0.88975678806E+03 0.  0.
         23    2    4    4    0    0 -0.39249713966E+03  0.23076970811E+03  0.55348771564E+02  0.46759310312E+03  0.90945922130E+02 0.  0.
         23    2    4    4    0    0  0.27650403748E+03 -0.90990919646E+02 -0.40160690777E+03  0.50428875608E+03  0.91023134119E+02 0.  0.
          4    1    3    3  502    0  0.10622515819E+03 -0.13324900037E+03 -0.31127790292E+03  0.35487041745E+03  0.00000000000E+00 0. -1.
         -4    1    3    3    0  502  0.97679439850E+01 -0.65297880911E+01  0.53002023211E+01  0.12889647274E+02  0.00000000000E+00 0.  1.
         13    1    5    5    0    0 -0.38678874938E+03  0.22706287865E+03  0.67600313432E+02  0.45357787632E+03  0.00000000000E+00 0.  1.
        -13    1    5    5    0    0 -0.57083902771E+01  0.37068294581E+01 -0.12251541868E+02  0.14015226803E+02  0.00000000000E+00 0. -1.
          1    1    6    6  503    0  0.16092472093E+03 -0.60209779451E+02 -0.30690816032E+03  0.35173086617E+03  0.00000000000E+00 0. -1.
         -1    1    6    6    0  503  0.11557931655E+03 -0.30781140195E+02 -0.94698747446E+02  0.15255788991E+03  0.00000000000E+00 0.  1.
<mgrwt>
<rscale>  0 0.11701405E+04</rscale>
<asrwt>0</asrwt>
<pdfrwt beam="1">  1        1 0.15322137E+00 0.11701405E+04</pdfrwt>
<pdfrwt beam="2">  1       -1 0.52877391E-01 0.11701405E+04</pdfrwt>
<totfact> 0.54494727E+01</totfact>
</mgrwt>
</event>
<event>
12    3  0.4769008E-008  0.2974159E+04  0.7818608E-02  0.8251149E-01
         -1   -1    0    0    0  501 -0.00000000000E+00  0.00000000000E+00  0.71042870848E+03  0.71042870848E+03  0.00000000000E+00 0.  1.
          1   -1    0    0  501    0  0.00000000000E+00 -0.00000000000E+00 -0.31127752304E+04  0.31127752304E+04  0.00000000000E+00 0. -1.
         23    2    1    2    0    0 -0.13161086718E+04 -0.29130617317E+03 -0.10413230166E+04  0.17057138987E+04  0.90027533224E+02 0.  0.
        254    2    1    2    0    0  0.13161086718E+04  0.29130617317E+03 -0.13610235054E+04  0.21174900403E+04  0.90242881488E+03 0.  0.
         23    2    4    4    0    0  0.10009827296E+04  0.41689439854E+03 -0.51978302168E+03  0.12059408366E+04  0.91386799810E+02 0.  0.
         23    2    4    4    0    0  0.31512594219E+03 -0.12558822537E+03 -0.84124048369E+03  0.91154920369E+03  0.90330712166E+02 0.  0.
          1    1    3    3  502    0 -0.44429349367E+03 -0.11158848260E+03 -0.40579525072E+03  0.61197915281E+03  0.00000000000E+00 0. -1.
         -1    1    3    3    0  502 -0.87181517812E+03 -0.17971769057E+03 -0.63552776586E+03  0.10937347459E+04  0.00000000000E+00 0.  1.
         13    1    5    5    0    0  0.77129597934E+03  0.32188990743E+03 -0.44226879538E+03  0.94557510945E+03  0.00000000000E+00 0. -1.
        -13    1    5    5    0    0  0.22968675026E+03  0.95004491108E+02 -0.77514226301E+02  0.26036572711E+03  0.00000000000E+00 0.  1.
          2    1    6    6  503    0  0.13788012052E+03 -0.97814927305E+02 -0.46353619028E+03  0.49340093974E+03  0.00000000000E+00 0. -1.
         -2    1    6    6    0  503  0.17724582167E+03 -0.27773298062E+02 -0.37770429341E+03  0.41814826395E+03  0.00000000000E+00 0.  1.
<mgrwt>
<rscale>  0 0.29741586E+04</rscale>
<asrwt>0</asrwt>
<pdfrwt beam="1">  1        1 0.47888852E+00 0.29741586E+04</pdfrwt>
<pdfrwt beam="2">  1       -1 0.10929672E+00 0.29741586E+04</pdfrwt>
<totfact> 0.32608227E-01</totfact>
</mgrwt>
</event>
<event>
12    3  0.4769008E-008  0.1150273E+04  0.7818608E-02  0.9157532E-01
          4   -1    0    0  501    0  0.00000000000E+00  0.00000000000E+00  0.24074576321E+03  0.24074576321E+03  0.00000000000E+00 0. -1.
         -4   -1    0    0    0  501 -0.00000000000E+00 -0.00000000000E+00 -0.13739886419E+04  0.13739886419E+04  0.00000000000E+00 0.  1.
         23    2    1    2    0    0 -0.95018584758E+02 -0.92134659207E+01 -0.49384234621E+03  0.51125068523E+03  0.91561896194E+02 0.  0.
        254    2    1    2    0    0  0.95018584758E+02  0.92134659207E+01 -0.63940053248E+03  0.11034837199E+04  0.89427616523E+03 0.  0.
         23    2    4    4    0    0  0.15753758544E+03 -0.35909116898E+03 -0.57644121710E+02  0.40629397471E+03  0.89372202897E+02 0.  0.
         23    2    4    4    0    0 -0.62519000681E+02  0.36830463491E+03 -0.58175641077E+03  0.69718974516E+03  0.89867067138E+02 0.  0.
          3    1    3    3  502    0  0.10906016847E+02 -0.20670422500E+02 -0.13183933032E+03  0.13389479672E+03  0.00000000000E+00 0. -1.
         -3    1    3    3    0  502 -0.10592460160E+03  0.11456956579E+02 -0.36200301589E+03  0.37735588851E+03  0.00000000000E+00 0.  1.
         13    1    5    5    0    0  0.28402618684E+02 -0.70470105641E+02 -0.48165123560E+02  0.89959011025E+02  0.00000000000E+00 0. -1.
        -13    1    5    5    0    0  0.12913496676E+03 -0.28862106334E+03 -0.94789981500E+01  0.31633496369E+03  0.00000000000E+00 0.  1.
          2    1    6    6  503    0 -0.43961646311E+02  0.30941732443E+03 -0.41605354878E+03  0.52035782155E+03  0.00000000000E+00 0. -1.
         -2    1    6    6    0  503 -0.18557354371E+02  0.58887310479E+02 -0.16570286199E+03  0.17683192361E+03  0.00000000000E+00 0.  1.
<mgrwt>
<rscale>  0 0.11502729E+04</rscale>
<asrwt>0</asrwt>
<pdfrwt beam="1">  1        4 0.37037808E-01 0.11502729E+04</pdfrwt>
<pdfrwt beam="2">  1       -4 0.21138288E+00 0.11502729E+04</pdfrwt>
<totfact> 0.15610911E+00</totfact>
</mgrwt>
</event>
<event>
12    3  0.4769008E-008  0.1439837E+04  0.7818608E-02  0.8925477E-01
          2   -1    0    0  501    0  0.00000000000E+00  0.00000000000E+00  0.56913667141E+03  0.56913667141E+03  0.00000000000E+00 0. -1.
         -2   -1    0    0    0  501 -0.00000000000E+00 -0.00000000000E+00 -0.91064754888E+03  0.91064754888E+03  0.00000000000E+00 0.  1.
         23    2    1    2    0    0  0.24366848301E+03 -0.14103869995E+03 -0.44372445470E+03  0.53280224749E+03  0.87866937651E+02 0.  0.
        254    2    1    2    0    0 -0.24366848301E+03  0.14103869995E+03  0.10221357724E+03  0.94698197280E+03  0.89836573673E+03 0.  0.
         23    2    4    4    0    0  0.11648294902E+03 -0.25020019389E+03 -0.17568229591E+03  0.33997787087E+03  0.92478479381E+02 0.  0.
         23    2    4    4    0    0 -0.36015143204E+03  0.39123889384E+03  0.27789587315E+03  0.60700410193E+03  0.91928980142E+02 0.  0.
          3    1    3    3  502    0  0.17896601635E+03 -0.57808462469E+02 -0.30899588750E+03  0.36173071730E+03  0.00000000000E+00 0.  1.
         -3    1    3    3    0  502  0.64702466661E+02 -0.83230237483E+02 -0.13472856720E+03  0.17107153020E+03  0.00000000000E+00 0. -1.
         13    1    5    5    0    0  0.72133848094E+02 -0.80399344608E+02 -0.30572625615E+02  0.11225877289E+03  0.00000000000E+00 0. -1.
        -13    1    5    5    0    0  0.44349100929E+02 -0.16980084928E+03 -0.14510967030E+03  0.22771909798E+03  0.00000000000E+00 0.  1.
          2    1    6    6  503    0 -0.19945157180E+03  0.22765532206E+03  0.20809867273E+03  0.36730495879E+03  0.00000000000E+00 0.  1.
         -2    1    6    6    0  503 -0.16069986023E+03  0.16358357178E+03  0.69797200418E+02  0.23969914314E+03  0.00000000000E+00 0. -1.
<mgrwt>
<rscale>  0 0.14398374E+04</rscale>
<asrwt>0</asrwt>
<pdfrwt beam="1">  1        2 0.87559488E-01 0.14398374E+04</pdfrwt>
<pdfrwt beam="2">  1       -2 0.14009962E+00 0.14398374E+04</pdfrwt>
<totfact> 0.18376858E+01</totfact>
</mgrwt>
</event>
<event>
12    3  0.4769008E-008  0.2049713E+04  0.7818608E-02  0.8583725E-01
         -2   -1    0    0    0  501 -0.00000000000E+00  0.00000000000E+00  0.16648683265E+04  0.16648683265E+04  0.00000000000E+00 0.  1.
          2   -1    0    0  501    0  0.00000000000E+00 -0.00000000000E+00 -0.63087898529E+03  0.63087898529E+03  0.00000000000E+00 0. -1.
         23    2    1    2    0    0 -0.56660791955E+03 -0.27917034121E+03 -0.17421374185E+03  0.66174557622E+03  0.92607590891E+02 0.  0.
        254    2    1    2    0    0  0.56660791955E+03  0.27917034121E+03  0.12082030831E+04  0.16340017356E+04  0.90068105790E+03 0.  0.
         23    2    4    4    0    0  0.53297325186E+03  0.52219492095E+03  0.56907949231E+03  0.94298907464E+03  0.92891892232E+02 0.  0.
         23    2    4    4    0    0  0.33634667684E+02 -0.24302457974E+03  0.63912359079E+03  0.69101266098E+03  0.93953691206E+02 0.  0.
          1    1    3    3  502    0 -0.48092478421E+03 -0.26445193620E+03 -0.12917930667E+03  0.56383576323E+03  0.00000000000E+00 0. -1.
         -1    1    3    3    0  502 -0.85683135335E+02 -0.14718405013E+02 -0.45034435182E+02  0.97909812987E+02  0.00000000000E+00 0.  1.
         13    1    5    5    0    0  0.45662593557E+02  0.73124073001E+02  0.94431114332E+02  0.12786492035E+03  0.00000000000E+00 0.  1.
        -13    1    5    5    0    0  0.48731065831E+03  0.44907084795E+03  0.47464837798E+03  0.81512415429E+03  0.00000000000E+00 0. -1.
          3    1    6    6  503    0  0.43992874620E+02 -0.24219652590E+03  0.56678917763E+03  0.61793567793E+03  0.00000000000E+00 0. -1.
         -3    1    6    6    0  503 -0.10358206936E+02 -0.82805384416E+00  0.72334413162E+02  0.73076983049E+02  0.00000000000E+00 0.  1.
<mgrwt>
<rscale>  0 0.20497126E+04</rscale>
<asrwt>0</asrwt>
<pdfrwt beam="1">  1        2 0.97058306E-01 0.20497126E+04</pdfrwt>
<pdfrwt beam="2">  1       -2 0.25613359E+00 0.20497126E+04</pdfrwt>
<totfact> 0.25431591E+00</totfact>
</mgrwt>
</event>
<event>
12    3  0.4769008E-008  0.2187952E+04  0.7818608E-02  0.8523459E-01
          2   -1    0    0  501    0  0.00000000000E+00  0.00000000000E+00  0.83879564259E+03  0.83879564259E+03  0.00000000000E+00 0. -1.
         -2   -1    0    0    0  501 -0.00000000000E+00 -0.00000000000E+00 -0.14267885619E+04  0.14267885619E+04  0.00000000000E+00 0.  1.
         23    2    1    2    0    0  0.87625034098E+03 -0.21535917373E+03 -0.33077218904E+03  0.96534434124E+03  0.91023196644E+02 0.  0.
        254    2    1    2    0    0 -0.87625034098E+03  0.21535917373E+03 -0.25722073032E+03  0.13002398633E+04  0.90014830123E+03 0.  0.
         23    2    4    4    0    0 -0.23611673277E+03 -0.23989686240E+03 -0.36182516260E+03  0.50256658846E+03  0.91400828565E+02 0.  0.
         23    2    4    4    0    0 -0.64013360822E+03  0.45525603614E+03  0.10460443228E+03  0.79767327484E+03  0.91167271134E+02 0.  0.
          2    1    3    3  502    0  0.20831167453E+03 -0.89176420411E+02 -0.97443258475E+02  0.24666044743E+03  0.00000000000E+00 0. -1.
         -2    1    3    3    0  502  0.66793866646E+03 -0.12618275332E+03 -0.23332893057E+03  0.71868389381E+03  0.00000000000E+00 0.  1.
         13    1    5    5    0    0 -0.24417172377E+03 -0.22716188246E+03 -0.34230558601E+03  0.47790738197E+03  0.00000000000E+00 0.  1.
        -13    1    5    5    0    0  0.80549910045E+01 -0.12734979939E+02 -0.19519576592E+02  0.24659206485E+02  0.00000000000E+00 0. -1.
          3    1    6    6  503    0 -0.35634335839E+03  0.20536766034E+03  0.77937576277E+02  0.41860569846E+03  0.00000000000E+00 0. -1.
         -3    1    6    6    0  503 -0.28379024983E+03  0.24988837579E+03  0.26666856007E+02  0.37906757638E+03  0.00000000000E+00 0.  1.
<mgrwt>
<rscale>  0 0.21879525E+04</rscale>
<asrwt>0</asrwt>
<pdfrwt beam="1">  1        2 0.12904548E+00 0.21879525E+04</pdfrwt>
<pdfrwt beam="2">  1       -2 0.21950593E+00 0.21879525E+04</pdfrwt>
<totfact> 0.29425856E+00</totfact>
</mgrwt>
</event>
<event>
12    3  0.4769008E-008  0.1364510E+04  0.7818608E-02  0.8979916E-01
          1   -1    0    0  501    0  0.00000000000E+00  0.00000000000E+00  0.30188360205E+04  0.30188360205E+04  0.00000000000E+00 0. -1.
         -1   -1    0    0    0  501 -0.00000000000E+00 -0.00000000000E+00 -0.15418925903E+03  0.15418925903E+03  0.00000000000E+00 0.  1.
         23    2    1    2    0    0  0.23431528747E+03  0.23912080544E+03  0.38739566677E+03  0.52032915685E+03  0.92653199100E+02 0.  0.
        254    2    1    2    0    0 -0.23431528747E+03 -0.23912080544E+03  0.24772510947E+04  0.26526961227E+04  0.88766058803E+03 0.  0.
         23    2    4    4    0    0 -0.48168543146E+03  0.11068630337E+03  0.14940101806E+04  0.15762380245E+04  0.90485233808E+02 0.  0.
         23    2    4    4    0    0  0.24737014399E+03 -0.34980710881E+03  0.98324091409E+03  0.10764580982E+04  0.91882209578E+02 0.  0.
          2    1    3    3  502    0  0.16391647445E+03  0.12499757802E+03  0.18169838712E+03  0.27478593303E+03  0.00000000000E+00 0.  1.
         -2    1    3    3    0  502  0.70398813012E+02  0.11412322742E+03  0.20569727965E+03  0.24554322382E+03  0.00000000000E+00 0. -1.
         13    1    5    5    0    0 -0.29056504260E+03  0.21467894539E+02  0.88723345377E+03  0.93384801546E+03  0.00000000000E+00 0.  1.
        -13    1    5    5    0    0 -0.19112038886E+03  0.89218408832E+02  0.60677672686E+03  0.64239000908E+03  0.00000000000E+00 0. -1.
          1    1    6    6  503    0  0.70779551198E+02 -0.15443472601E+03  0.46669217312E+03  0.49665019271E+03  0.00000000000E+00 0. -1.
         -1    1    6    6    0  503  0.17659059280E+03 -0.19537238280E+03  0.51654874097E+03  0.57980790545E+03  0.00000000000E+00 0.  1.
<mgrwt>
<rscale>  0 0.13645103E+04</rscale>
<asrwt>0</asrwt>
<pdfrwt beam="1">  1        1 0.46443627E+00 0.13645103E+04</pdfrwt>
<pdfrwt beam="2">  1       -1 0.23721427E-01 0.13645103E+04</pdfrwt>
<totfact> 0.87541817E+00</totfact>
</mgrwt>
</event>
<event>
12    3  0.4769008E-008  0.2212032E+04  0.7818608E-02  0.8513437E-01
          2   -1    0    0  501    0  0.00000000000E+00  0.00000000000E+00  0.18989787509E+04  0.18989787509E+04  0.00000000000E+00 0. -1.
         -2   -1    0    0    0  501 -0.00000000000E+00 -0.00000000000E+00 -0.64417338525E+03  0.64417338525E+03  0.00000000000E+00 0.  1.
         23    2    1    2    0    0 -0.65441543490E+03  0.29087018297E+03  0.12123593514E+04  0.14110732140E+04  0.91909704107E+02 0.  0.
        254    2    1    2    0    0  0.65441543490E+03 -0.29087018297E+03  0.42446014297E+02  0.11320789221E+04  0.87574882075E+03 0.  0.
         23    2    4    4    0    0  0.11747928534E+03 -0.48102333869E+02  0.40503920331E+03  0.43389159495E+03  0.89944110137E+02 0.  0.
         23    2    4    4    0    0  0.53693614957E+03 -0.24276784910E+03 -0.36259318901E+03  0.69818732719E+03  0.93568508923E+02 0.  0.
          2    1    3    3  502    0 -0.64848816187E+03  0.28253827589E+03  0.12081886461E+04  0.14000302061E+04  0.00000000000E+00 0. -1.
         -2    1    3    3    0  502 -0.59272730330E+01  0.83319070805E+01  0.41707052318E+01  0.11043007894E+02  0.00000000000E+00 0.  1.
         13    1    5    5    0    0  0.57437368907E+01  0.72110729269E+01 -0.87597888764E+00  0.92605305052E+01  0.00000000000E+00 0. -1.
        -13    1    5    5    0    0  0.11173554845E+03 -0.55313406796E+02  0.40591518220E+03  0.42463106445E+03  0.00000000000E+00 0.  1.
          1    1    6    6  503    0  0.16020500979E+02  0.79678279311E+01 -0.56930724114E+01  0.18776416246E+02  0.00000000000E+00 0. -1.
         -1    1    6    6    0  503  0.52091564859E+03 -0.25073567703E+03 -0.35690011660E+03  0.67941091094E+03  0.00000000000E+00 0.  1.
<mgrwt>
<rscale>  0 0.22120322E+04</rscale>
<asrwt>0</asrwt>
<pdfrwt beam="1">  1        2 0.29215057E+00 0.22120322E+04</pdfrwt>
<pdfrwt beam="2">  1       -2 0.99103599E-01 0.22120322E+04</pdfrwt>
<totfact> 0.58582575E+00</totfact>
</mgrwt>
</event>
<event>
12    3  0.4769008E-008  0.1501606E+04  0.7818608E-02  0.8883385E-01
          1   -1    0    0  501    0  0.00000000000E+00  0.00000000000E+00  0.20188255991E+04  0.20188255991E+04  0.00000000000E+00 0. -1.
         -1   -1    0    0    0  501 -0.00000000000E+00 -0.00000000000E+00 -0.27922446572E+03  0.27922446572E+03  0.00000000000E+00 0.  1.
         23    2    1    2    0    0  0.13745206928E+03 -0.70125072390E+02  0.12473433842E+04  0.12602023888E+04  0.91836514804E+02 0.  0.
        254    2    1    2    0    0 -0.13745206928E+03  0.70125072390E+02  0.49225774918E+03  0.10378476760E+04  0.90055511210E+03 0.  0.
         23    2    4    4    0    0  0.27757998644E+03 -0.23914796523E+03  0.12993807267E+03  0.39961028529E+03  0.92531504049E+02 0.  0.
         23    2    4    4    0    0 -0.41503205572E+03  0.30927303762E+03  0.36231967651E+03  0.63823739076E+03  0.90388051739E+02 0.  0.
          3    1    3    3  502    0  0.97739279131E+02 -0.91795305759E+02  0.96014383471E+03  0.96946146296E+03  0.00000000000E+00 0. -1.
         -3    1    3    3    0  502  0.39712790154E+02  0.21670233369E+02  0.28719954952E+03  0.29074092584E+03  0.00000000000E+00 0.  1.
         13    1    5    5    0    0  0.97918249470E+02 -0.14031819023E+03  0.40092966637E+02  0.17574021755E+03  0.00000000000E+00 0. -1.
        -13    1    5    5    0    0  0.17966173697E+03 -0.98829774993E+02  0.89845106030E+02  0.22387006775E+03  0.00000000000E+00 0.  1.
          2    1    6    6  503    0 -0.30323939700E+02  0.57336773530E+02  0.34275643716E+02  0.73361206846E+02  0.00000000000E+00 0. -1.
         -2    1    6    6    0  503 -0.38470811602E+03  0.25193626409E+03  0.32804403280E+03  0.56487618391E+03  0.00000000000E+00 0.  1.
<mgrwt>
<rscale>  0 0.15016065E+04</rscale>
<asrwt>0</asrwt>
<pdfrwt beam="1">  1        1 0.31058854E+00 0.15016065E+04</pdfrwt>
<pdfrwt beam="2">  1       -1 0.42957611E-01 0.15016065E+04</pdfrwt>
<totfact> 0.14955480E+01</totfact>
</mgrwt>
</event>
<event>
12    3  0.4769008E-008  0.2197702E+04  0.7818608E-02  0.8519385E-01
         -1   -1    0    0    0  501 -0.00000000000E+00  0.00000000000E+00  0.54930457966E+03  0.54930457966E+03  0.00000000000E+00 0.  1.
          1   -1    0    0  501    0  0.00000000000E+00 -0.00000000000E+00 -0.21981864635E+04  0.21981864635E+04  0.00000000000E+00 0. -1.
         23    2    1    2    0    0 -0.10171822126E+03  0.53272977887E+03  0.21520867454E+03  0.59158563912E+03  0.97525283840E+02 0.  0.
        254    2    1    2    0    0  0.10171822126E+03 -0.53272977887E+03 -0.18640905584E+04  0.21559054040E+04  0.93752167307E+03 0.  0.
         23    2    4    4    0    0  0.44989870552E+03 -0.54480758054E+03 -0.10867143538E+04  0.12997483739E+04  0.95778931017E+02 0.  0.
         23    2    4    4    0    0 -0.34818048426E+03  0.12077801675E+02 -0.77737620454E+03  0.85615703011E+03  0.85531128359E+02 0.  0.
          4    1    3    3  502    0 -0.93863340646E+01  0.78817886806E+01 -0.71032442900E+01  0.14166225306E+02  0.00000000000E+00 0. -1.
         -4    1    3    3    0  502 -0.92331887195E+02  0.52484799019E+03  0.22231191883E+03  0.57741941381E+03  0.00000000000E+00 0.  1.
         13    1    5    5    0    0  0.20852127530E+03 -0.21648408437E+03 -0.38693951323E+03  0.48996802747E+03  0.00000000000E+00 0. -1.
        -13    1    5    5    0    0  0.24137743021E+03 -0.32832349617E+03 -0.69977484061E+03  0.80978034646E+03  0.00000000000E+00 0.  1.
          1    1    6    6  503    0 -0.26787652867E+03 -0.20510128254E+02 -0.63475271419E+03  0.68926737058E+03  0.00000000000E+00 0. -1.
         -1    1    6    6    0  503 -0.80303955591E+02  0.32587929929E+02 -0.14262349035E+03  0.16688965953E+03  0.00000000000E+00 0.  1.
<mgrwt>
<rscale>  0 0.21977023E+04</rscale>
<asrwt>0</asrwt>
<pdfrwt beam="1">  1        1 0.33818253E+00 0.21977023E+04</pdfrwt>
<pdfrwt beam="2">  1       -1 0.84508397E-01 0.21977023E+04</pdfrwt>
<totfact> 0.27617477E+00</totfact>
</mgrwt>
</event>
<event>
12    3  0.4769008E-008  0.1435114E+04  0.7818608E-02  0.8928786E-01
         -1   -1    0    0    0  501 -0.00000000000E+00  0.00000000000E+00  0.28208003556E+03  0.28208003556E+03  0.00000000000E+00 0.  1.
          1   -1    0    0  501    0  0.00000000000E+00 -0.00000000000E+00 -0.18253252541E+04  0.18253252541E+04  0.00000000000E+00 0. -1.
         23    2    1    2    0    0  0.10069240730E+03 -0.34226102611E+03 -0.13907313731E+03  0.39358089122E+03  0.91011040719E+02 0.  0.
        254    2    1    2    0    0 -0.10069240730E+03  0.34226102611E+03 -0.14041720812E+04  0.17138243984E+04  0.91553987575E+03 0.  0.
         23    2    4    4    0    0 -0.34549768025E+03  0.42174691492E+03 -0.13160256900E+04  0.14273180323E+04  0.89855668668E+02 0.  0.
         23    2    4    4    0    0  0.24480527295E+03 -0.79485888819E+02 -0.88146391199E+02  0.28650636614E+03  0.89824736984E+02 0.  0.
          1    1    3    3  502    0  0.30495287361E+02 -0.56693415180E+02 -0.62460032820E+02  0.89695939573E+02  0.00000000000E+00 0. -1.
         -1    1    3    3    0  502  0.70197119943E+02 -0.28556761092E+03 -0.76613104489E+02  0.30388495165E+03  0.00000000000E+00 0.  1.
         13    1    5    5    0    0 -0.21705856582E+03  0.26026217384E+03 -0.92618660164E+03  0.98624157344E+03  0.00000000000E+00 0.  1.
        -13    1    5    5    0    0 -0.12843911443E+03  0.16148474108E+03 -0.38983908838E+03  0.44107645885E+03  0.00000000000E+00 0. -1.
          1    1    6    6  503    0  0.12120763783E+03 -0.41112353175E+02 -0.91023788148E+02  0.15705682749E+03  0.00000000000E+00 0. -1.
         -1    1    6    6    0  503  0.12359763512E+03 -0.38373535644E+02  0.28773969482E+01  0.12944953865E+03  0.00000000000E+00 0.  1.
<mgrwt>
<rscale>  0 0.14351137E+04</rscale>
<asrwt>0</asrwt>
<pdfrwt beam="1">  1        1 0.28081926E+00 0.14351137E+04</pdfrwt>
<pdfrwt beam="2">  1       -1 0.43396930E-01 0.14351137E+04</pdfrwt>
<totfact> 0.19958556E+01</totfact>
</mgrwt>
</event>
<event>
12    3  0.4769008E-008  0.1501588E+04  0.7818608E-02  0.8883398E-01
          1   -1    0    0  501    0  0.00000000000E+00  0.00000000000E+00  0.13549233313E+04  0.13549233313E+04  0.00000000000E+00 0. -1.
         -1   -1    0    0    0  501 -0.00000000000E+00 -0.00000000000E+00 -0.41603206904E+03  0.41603206904E+03  0.00000000000E+00 0.  1.
         23    2    1    2    0    0 -0.65858036561E+01  0.17781212093E+03 -0.21198967939E+03  0.29155444250E+03  0.91672491032E+02 0.  0.
        254    2    1    2    0    0  0.65858036561E+01 -0.17781212093E+03  0.11508809416E+04  0.14794009578E+04  0.91238135066E+03 0.  0.
         23    2    4    4    0    0  0.35347263392E+02  0.34155388385E+03  0.70111746621E+03  0.78596903714E+03  0.90956810114E+02 0.  0.
         23    2    4    4    0    0 -0.28761459736E+02 -0.51936600479E+03  0.44976347542E+03  0.69343192068E+03  0.89400091186E+02 0.  0.
          4    1    3    3  502    0  0.34013420917E+02  0.26291414564E+02 -0.39167240271E+02  0.58156891188E+02  0.00000000000E+00 0. -1.
         -4    1    3    3    0  502 -0.40599224573E+02  0.15152070637E+03 -0.17282243912E+03  0.23339755131E+03  0.00000000000E+00 0.  1.
         13    1    5    5    0    0  0.62857560886E+02  0.23082809000E+03  0.51133704125E+03  0.56453365697E+03  0.00000000000E+00 0.  1.
        -13    1    5    5    0    0 -0.27510297494E+02  0.11072579385E+03  0.18978042496E+03  0.22143538017E+03  0.00000000000E+00 0. -1.
          1    1    6    6  503    0 -0.23748551913E+02 -0.43740326733E+03  0.41770694810E+03  0.60528068405E+03  0.00000000000E+00 0. -1.
         -1    1    6    6    0  503 -0.50129078230E+01 -0.81962737452E+02  0.32056527313E+02  0.88151236627E+02  0.00000000000E+00 0.  1.
<mgrwt>
<rscale>  0 0.15015879E+04</rscale>
<asrwt>0</asrwt>
<pdfrwt beam="1">  1        1 0.20844974E+00 0.15015879E+04</pdfrwt>
<pdfrwt beam="2">  1       -1 0.64004934E-01 0.15015879E+04</pdfrwt>
<totfact> 0.19792914E+01</totfact>
</mgrwt>
</event>
<event>
12    3  0.4769008E-008  0.2008871E+04  0.7818608E-02  0.8602484E-01
          1   -1    0    0  501    0  0.00000000000E+00  0.00000000000E+00  0.15378064260E+04  0.15378064260E+04  0.00000000000E+00 0. -1.
         -1   -1    0    0    0  501 -0.00000000000E+00 -0.00000000000E+00 -0.65605851104E+03  0.65605851104E+03  0.00000000000E+00 0.  1.
         23    2    1    2    0    0 -0.42319377252E+03 -0.35637079385E+03 -0.29487078998E+03  0.63334746932E+03  0.89928428814E+02 0.  0.
        254    2    1    2    0    0  0.42319377252E+03  0.35637079385E+03  0.11766187050E+04  0.15605174677E+04  0.86295427364E+03 0.  0.
         23    2    4    4    0    0 -0.73982838814E+01  0.32084461731E+03  0.10487642636E+04  0.11007348111E+04  0.93352239453E+02 0.  0.
         23    2    4    4    0    0  0.43059205640E+03  0.35526176537E+02  0.12785444132E+03  0.45978265663E+03  0.91551651630E+02 0.  0.
          2    1    3    3  502    0 -0.35906302648E+03 -0.30849712630E+03 -0.21379775953E+03  0.51942873997E+03  0.00000000000E+00 0.  1.
         -2    1    3    3    0  502 -0.64130746036E+02 -0.47873667543E+02 -0.81073030456E+02  0.11391872936E+03  0.00000000000E+00 0. -1.
         13    1    5    5    0    0 -0.45109416291E+02  0.12131686066E+03  0.46416201193E+03  0.48187032845E+03  0.00000000000E+00 0.  1.
        -13    1    5    5    0    0  0.37711132410E+02  0.19952775665E+03  0.58460225171E+03  0.61886448265E+03  0.00000000000E+00 0. -1.
          1    1    6    6  503    0  0.13903937548E+03  0.56386505650E+01 -0.21311600210E+01  0.13916998296E+03  0.00000000000E+00 0. -1.
         -1    1    6    6    0  503  0.29155268092E+03  0.29887525972E+02  0.12998560134E+03  0.32061267367E+03  0.00000000000E+00 0.  1.
<mgrwt>
<rscale>  0 0.20088713E+04</rscale>
<asrwt>0</asrwt>
<pdfrwt beam="1">  1        1 0.23658560E+00 0.20088713E+04</pdfrwt>
<pdfrwt beam="2">  1       -1 0.10093208E+00 0.20088713E+04</pdfrwt>
<totfact> 0.53263038E+00</totfact>
</mgrwt>
</event>
<event>
12    3  0.4769008E-008  0.1793795E+04  0.7818608E-02  0.8709606E-01
          2   -1    0    0  501    0  0.00000000000E+00  0.00000000000E+00  0.45963841930E+03  0.45963841930E+03  0.00000000000E+00 0. -1.
         -2   -1    0    0    0  501 -0.00000000000E+00 -0.00000000000E+00 -0.17501256008E+04  0.17501256008E+04  0.00000000000E+00 0.  1.
         23    2    1    2    0    0  0.33195228464E+03 -0.13451792785E+03 -0.11697126674E+04  0.12267471001E+04  0.91615125424E+02 0.  0.
        254    2    1    2    0    0 -0.33195228464E+03  0.13451792785E+03 -0.12077451411E+03  0.98301691997E+03  0.90744057078E+03 0.  0.
         23    2    4    4    0    0 -0.24303205015E+03 -0.35214153628E+03 -0.18705817078E+03  0.47558628543E+03  0.90129443926E+02 0.  0.
         23    2    4    4    0    0 -0.88920234491E+02  0.48665946413E+03  0.66283656672E+02  0.50743063454E+03  0.91367847710E+02 0.  0.
          3    1    3    3  502    0  0.18196578459E+03 -0.60295260784E+02 -0.76818717134E+03  0.79174402142E+03  0.00000000000E+00 0. -1.
         -3    1    3    3    0  502  0.14998650005E+03 -0.74222667066E+02 -0.40152549603E+03  0.43500307868E+03  0.00000000000E+00 0.  1.
         13    1    5    5    0    0 -0.24072056221E+03 -0.30795340139E+03 -0.15301041804E+03  0.41975454080E+03  0.00000000000E+00 0. -1.
        -13    1    5    5    0    0 -0.23114879412E+01 -0.44188134895E+02 -0.34047752738E+02  0.55831744631E+02  0.00000000000E+00 0.  1.
          4    1    6    6  503    0 -0.45005786792E+02  0.41396347353E+03  0.38999095170E+02  0.41822506821E+03  0.00000000000E+00 0. -1.
         -4    1    6    6    0  503 -0.43914447700E+02  0.72695990606E+02  0.27284561502E+02  0.89205566325E+02  0.00000000000E+00 0.  1.
<mgrwt>
<rscale>  0 0.17937948E+04</rscale>
<asrwt>0</asrwt>
<pdfrwt beam="1">  1        2 0.70713605E-01 0.17937948E+04</pdfrwt>
<pdfrwt beam="2">  1       -2 0.26925008E+00 0.17937948E+04</pdfrwt>
<totfact> 0.31419989E+00</totfact>
</mgrwt>
</event>
<event>
12    3  0.4769008E-008  0.2351514E+04  0.7818608E-02  0.8457882E-01
         -1   -1    0    0    0  501 -0.00000000000E+00  0.00000000000E+00  0.67422410248E+03  0.67422410248E+03  0.00000000000E+00 0.  1.
          1   -1    0    0  501    0  0.00000000000E+00 -0.00000000000E+00 -0.20503641058E+04  0.20503641058E+04  0.00000000000E+00 0. -1.
         23    2    1    2    0    0  0.21685107700E+03  0.57771147702E+03 -0.14916414988E+04  0.16168213158E+04  0.91333816136E+02 0.  0.
        254    2    1    2    0    0 -0.21685107700E+03 -0.57771147702E+03  0.11550149550E+03  0.11077668925E+04  0.91270584107E+03 0.  0.
         23    2    4    4    0    0  0.28206662922E+03 -0.28114656560E+03  0.28396609655E+03  0.49658601986E+03  0.85766872736E+02 0.  0.
         23    2    4    4    0    0 -0.49891770622E+03 -0.29656491142E+03 -0.16846460105E+03  0.61118087262E+03  0.91061039861E+02 0.  0.
          4    1    3    3  502    0  0.12522070112E+03  0.27849297578E+03 -0.84401844065E+03  0.89755539645E+03  0.00000000000E+00 0.  1.
         -4    1    3    3    0  502  0.91630375880E+02  0.29921850123E+03 -0.64762305813E+03  0.71926591931E+03  0.00000000000E+00 0. -1.
         13    1    5    5    0    0  0.19622027771E+03 -0.23586716001E+03  0.24234715221E+03  0.39098319241E+03  0.00000000000E+00 0.  1.
        -13    1    5    5    0    0  0.85846351515E+02 -0.45279405589E+02  0.41618944336E+02  0.10560282746E+03  0.00000000000E+00 0. -1.
          3    1    6    6  503    0 -0.42436686061E+03 -0.27651004189E+03 -0.12169281563E+03  0.52091666995E+03  0.00000000000E+00 0. -1.
         -3    1    6    6    0  503 -0.74550845611E+02 -0.20054869528E+02 -0.46771785413E+02  0.90264202671E+02  0.00000000000E+00 0.  1.
<mgrwt>
<rscale>  0 0.23515143E+04</rscale>
<asrwt>0</asrwt>
<pdfrwt beam="1">  1        1 0.31544063E+00 0.23515143E+04</pdfrwt>
<pdfrwt beam="2">  1       -1 0.10372679E+00 0.23515143E+04</pdfrwt>
<totfact> 0.21704953E+00</totfact>
</mgrwt>
</event>
<event>
12    3  0.4769008E-008  0.1120487E+04  0.7818608E-02  0.9185450E-01
          1   -1    0    0  501    0  0.00000000000E+00  0.00000000000E+00  0.43487053776E+03  0.43487053776E+03  0.00000000000E+00 0. -1.
         -1   -1    0    0    0  501 -0.00000000000E+00 -0.00000000000E+00 -0.72176204887E+03  0.72176204887E+03  0.00000000000E+00 0.  1.
         23    2    1    2    0    0  0.93338310209E+02  0.97427816576E+01 -0.23137549506E+03  0.26642529929E+03  0.92956217867E+02 0.  0.
        254    2    1    2    0    0 -0.93338310209E+02 -0.97427816576E+01 -0.55516016050E+02  0.89020728733E+03  0.88350439978E+03 0.  0.
         23    2    4    4    0    0  0.13665493626E+03 -0.24388843098E+03  0.28460316488E+03  0.40876208276E+03  0.89058073611E+02 0.  0.
         23    2    4    4    0    0 -0.22999324647E+03  0.23414564932E+03 -0.34011918093E+03  0.48144520457E+03  0.91582472380E+02 0.  0.
          4    1    3    3  502    0  0.56239975904E+02  0.20985118200E+02 -0.42343048735E+02  0.73459130485E+02  0.00000000000E+00 0. -1.
         -4    1    3    3    0  502  0.37098334306E+02 -0.11242336543E+02 -0.18903244633E+03  0.19296616881E+03  0.00000000000E+00 0.  1.
         13    1    5    5    0    0  0.18897998910E+02 -0.10057191236E+02 -0.85539012829E+00  0.21424592193E+02  0.00000000000E+00 0.  1.
        -13    1    5    5    0    0  0.11775693735E+03 -0.23383123974E+03  0.28545855501E+03  0.38733749057E+03  0.00000000000E+00 0. -1.
          2    1    6    6  503    0 -0.19430572633E+03  0.16230876984E+03 -0.21165521641E+03  0.32999512524E+03  0.00000000000E+00 0.  1.
         -2    1    6    6    0  503 -0.35687520145E+02  0.71836879483E+02 -0.12846396452E+03  0.15145007933E+03  0.00000000000E+00 0. -1.
<mgrwt>
<rscale>  0 0.11204875E+04</rscale>
<asrwt>0</asrwt>
<pdfrwt beam="1">  1        1 0.66903160E-01 0.11204875E+04</pdfrwt>
<pdfrwt beam="2">  1       -1 0.11104031E+00 0.11204875E+04</pdfrwt>
<totfact> 0.39850804E+01</totfact>
</mgrwt>
</event>
<event>
12    3  0.4769008E-008  0.1831783E+04  0.7818608E-02  0.8689578E-01
          1   -1    0    0  501    0  0.00000000000E+00  0.00000000000E+00  0.54456655070E+03  0.54456655070E+03  0.00000000000E+00 0. -1.
         -1   -1    0    0    0  501 -0.00000000000E+00 -0.00000000000E+00 -0.15404127361E+04  0.15404127361E+04  0.00000000000E+00 0.  1.
         23    2    1    2    0    0 -0.25699986456E+03 -0.31107127200E+03  0.25516923593E+03  0.48592704419E+03  0.90551016867E+02 0.  0.
        254    2    1    2    0    0  0.25699986456E+03  0.31107127200E+03 -0.12510154214E+04  0.15990522427E+04  0.91055709517E+03 0.  0.
         23    2    4    4    0    0  0.15155000616E+03  0.61918940518E+03 -0.68769442742E+03  0.94219645815E+03  0.91910915510E+02 0.  0.
         23    2    4    4    0    0  0.10544985840E+03 -0.30811813317E+03 -0.56332099396E+03  0.65685578451E+03  0.89847219086E+02 0.  0.
          2    1    3    3  502    0 -0.13729296430E+03 -0.20687111940E+03  0.19682812704E+03  0.31683801805E+03  0.00000000000E+00 0. -1.
         -2    1    3    3    0  502 -0.11970690026E+03 -0.10420015260E+03  0.58341108892E+02  0.16908902613E+03  0.00000000000E+00 0.  1.
         13    1    5    5    0    0  0.44320355839E+02  0.31634150201E+03 -0.29484243275E+03  0.43470484238E+03  0.00000000000E+00 0. -1.
        -13    1    5    5    0    0  0.10722965033E+03  0.30284790317E+03 -0.39285199468E+03  0.50749161578E+03  0.00000000000E+00 0.  1.
          3    1    6    6  503    0  0.44657314638E+02 -0.55590188370E+02 -0.18205166586E+03  0.19551816754E+03  0.00000000000E+00 0. -1.
         -3    1    6    6    0  503  0.60792543760E+02 -0.25252794480E+03 -0.38126932810E+03  0.46133761697E+03  0.00000000000E+00 0.  1.
<mgrwt>
<rscale>  0 0.18317830E+04</rscale>
<asrwt>0</asrwt>
<pdfrwt beam="1">  1        1 0.83779469E-01 0.18317830E+04</pdfrwt>
<pdfrwt beam="2">  1       -1 0.23698657E+00 0.18317830E+04</pdfrwt>
<totfact> 0.31415009E+00</totfact>
</mgrwt>
</event>
<event>
12    3  0.4769008E-008  0.1429274E+04  0.7818608E-02  0.8932897E-01
         -2   -1    0    0    0  501 -0.00000000000E+00  0.00000000000E+00  0.11318819971E+04  0.11318819971E+04  0.00000000000E+00 0.  1.
          2   -1    0    0  501    0  0.00000000000E+00 -0.00000000000E+00 -0.45120087349E+03  0.45120087349E+03  0.00000000000E+00 0. -1.
         23    2    1    2    0    0 -0.14452377896E+03  0.27114058063E+03 -0.12210771022E+03  0.34280193637E+03  0.90545775885E+02 0.  0.
        254    2    1    2    0    0  0.14452377896E+03 -0.27114058063E+03  0.80278883379E+03  0.12402809342E+04  0.89410432664E+03 0.  0.
         23    2    4    4    0    0 -0.23360485200E+02 -0.43646349168E+03  0.54890227391E+02  0.45080539436E+03  0.95741708187E+02 0.  0.
         23    2    4    4    0    0  0.16788426416E+03  0.16532291104E+03  0.74789860640E+03  0.78947553983E+03  0.91665214071E+02 0.  0.
          3    1    3    3  502    0 -0.14998638938E+03  0.25690178783E+03 -0.13111143094E+03  0.32509176076E+03  0.00000000000E+00 0. -1.
         -3    1    3    3    0  502  0.54626104191E+01  0.14238792804E+02  0.90037207270E+01  0.17710175607E+02  0.00000000000E+00 0.  1.
         13    1    5    5    0    0  0.29331427156E+02 -0.18514816342E+03  0.49867023367E+02  0.19397653223E+03  0.00000000000E+00 0. -1.
        -13    1    5    5    0    0 -0.52691912356E+02 -0.25131532825E+03  0.50232040245E+01  0.25682886213E+03  0.00000000000E+00 0.  1.
          1    1    6    6  503    0  0.84433248818E+02  0.13759261481E+03  0.41897494161E+03  0.44899966910E+03  0.00000000000E+00 0. -1.
         -1    1    6    6    0  503  0.83451015345E+02  0.27730296230E+02  0.32892366479E+03  0.34047587073E+03  0.00000000000E+00 0.  1.
<mgrwt>
<rscale>  0 0.14292741E+04</rscale>
<asrwt>0</asrwt>
<pdfrwt beam="1">  1        2 0.69415519E-01 0.14292741E+04</pdfrwt>
<pdfrwt beam="2">  1       -2 0.17413569E+00 0.14292741E+04</pdfrwt>
<totfact> 0.13402516E+01</totfact>
</mgrwt>
</event>
<event>
12    3  0.4769008E-008  0.1929890E+04  0.7818608E-02  0.8640120E-01
         -1   -1    0    0    0  501 -0.00000000000E+00  0.00000000000E+00  0.10916477668E+04  0.10916477668E+04  0.00000000000E+00 0.  1.
          1   -1    0    0  501    0  0.00000000000E+00 -0.00000000000E+00 -0.85294798764E+03  0.85294798764E+03  0.00000000000E+00 0. -1.
         23    2    1    2    0    0  0.56314554160E+03  0.48760634686E+03 -0.41358095188E+01  0.75045309141E+03  0.90938918834E+02 0.  0.
        254    2    1    2    0    0 -0.56314554160E+03 -0.48760634686E+03  0.24283558869E+03  0.11941426630E+04  0.90117408198E+03 0.  0.
         23    2    4    4    0    0 -0.18224351230E+03 -0.56711588594E+03 -0.16556281692E+03  0.62368924863E+03  0.82122509969E+02 0.  0.
         23    2    4    4    0    0 -0.38090202930E+03  0.79509539077E+02  0.40839840561E+03  0.57045341441E+03  0.84968921254E+02 0.  0.
          3    1    3    3  502    0  0.34720415162E+03  0.33555190952E+03  0.31885239950E+02  0.48390337405E+03  0.00000000000E+00 0. -1.
         -3    1    3    3    0  502  0.21594138998E+03  0.15205443734E+03 -0.36021049469E+02  0.26654971736E+03  0.00000000000E+00 0.  1.
         13    1    5    5    0    0 -0.18805654496E+03 -0.51833660342E+03 -0.14304009293E+03  0.56964775672E+03  0.00000000000E+00 0. -1.
        -13    1    5    5    0    0  0.58130326575E+01 -0.48779282521E+02 -0.22522723991E+02  0.54041491910E+02  0.00000000000E+00 0.  1.
          3    1    6    6  503    0 -0.36895359722E+03  0.57798365412E+02  0.38084996112E+03  0.53339863220E+03  0.00000000000E+00 0. -1.
         -3    1    6    6    0  503 -0.11948432082E+02  0.21711173664E+02  0.27548444489E+02  0.37054782213E+02  0.00000000000E+00 0.  1.
<mgrwt>
<rscale>  0 0.19298899E+04</rscale>
<asrwt>0</asrwt>
<pdfrwt beam="1">  1        1 0.13122277E+00 0.19298899E+04</pdfrwt>
<pdfrwt beam="2">  1       -1 0.16794581E+00 0.19298899E+04</pdfrwt>
<totfact> 0.47352824E+00</totfact>
</mgrwt>
</event>
<event>
12    3  0.4769008E-008  0.2955923E+04  0.7818608E-02  0.8256430E-01
          1   -1    0    0  501    0  0.00000000000E+00  0.00000000000E+00  0.27767324268E+04  0.27767324268E+04  0.00000000000E+00 0. -1.
         -1   -1    0    0    0  501 -0.00000000000E+00 -0.00000000000E+00 -0.78666952622E+03  0.78666952622E+03  0.00000000000E+00 0.  1.
         23    2    1    2    0    0 -0.99914894267E+03 -0.63266947175E+03  0.16694742847E+04  0.20479492925E+04  0.91556797150E+02 0.  0.
        254    2    1    2    0    0  0.99914894267E+03  0.63266947175E+03  0.32058861584E+03  0.15154526605E+04  0.89176815121E+03 0.  0.
         23    2    4    4    0    0  0.10766006782E+04  0.43412129961E+03  0.58850898600E+02  0.11655527354E+04  0.86714633641E+02 0.  0.
         23    2    4    4    0    0 -0.77451735509E+02  0.19854817215E+03  0.26173771723E+03  0.34989992511E+03  0.92212672530E+02 0.  0.
          2    1    3    3  502    0 -0.93585220150E+03 -0.61698762869E+03  0.15791205564E+04  0.19365213163E+04  0.00000000000E+00 0. -1.
         -2    1    3    3    0  502 -0.63296741172E+02 -0.15681843061E+02  0.90353728343E+02  0.11142797616E+03  0.00000000000E+00 0.  1.
         13    1    5    5    0    0  0.36144320529E+03  0.13753261465E+03  0.59876129458E+02  0.39133305716E+03  0.00000000000E+00 0.  1.
        -13    1    5    5    0    0  0.71515747289E+03  0.29658868496E+03 -0.10252308578E+01  0.77421967824E+03  0.00000000000E+00 0. -1.
          3    1    6    6  503    0 -0.62890721849E+02  0.82078667500E+02  0.69256408686E+02  0.12445320686E+03  0.00000000000E+00 0. -1.
         -3    1    6    6    0  503 -0.14561013660E+02  0.11646950465E+03  0.19248130855E+03  0.22544671826E+03  0.00000000000E+00 0.  1.
<mgrwt>
<rscale>  0 0.29559234E+04</rscale>
<asrwt>0</asrwt>
<pdfrwt beam="1">  1        1 0.42718960E+00 0.29559234E+04</pdfrwt>
<pdfrwt beam="2">  1       -1 0.12102608E+00 0.29559234E+04</pdfrwt>
<totfact> 0.44814902E-01</totfact>
</mgrwt>
</event>
<event>
12    3  0.4769008E-008  0.2734780E+04  0.7818608E-02  0.8323808E-01
         -1   -1    0    0    0  501 -0.00000000000E+00  0.00000000000E+00  0.95212507681E+03  0.95212507681E+03  0.00000000000E+00 0.  1.
          1   -1    0    0  501    0  0.00000000000E+00 -0.00000000000E+00 -0.19637702759E+04  0.19637702759E+04  0.00000000000E+00 0. -1.
         23    2    1    2    0    0 -0.15085847223E+03 -0.98883183104E+03  0.27571860540E+03  0.10415740670E+04  0.91154368707E+02 0.  0.
        254    2    1    2    0    0  0.15085847223E+03  0.98883183104E+03 -0.12873638045E+04  0.18743212858E+04  0.92478540664E+03 0.  0.
         23    2    4    4    0    0  0.82349656383E+02  0.94233089091E+03 -0.49306740762E+03  0.10707969395E+04  0.93389738714E+02 0.  0.
         23    2    4    4    0    0  0.68508815846E+02  0.46500940137E+02 -0.79429639692E+03  0.80352434629E+03  0.88818993662E+02 0.  0.
          4    1    3    3  502    0 -0.80233347498E+01 -0.65714119906E+02 -0.44737400242E+01  0.66353099440E+02  0.00000000000E+00 0. -1.
         -4    1    3    3    0  502 -0.14283513748E+03 -0.92311771114E+03  0.28019234543E+03  0.97522096755E+03  0.00000000000E+00 0.  1.
         13    1    5    5    0    0  0.80961742177E+02  0.88458557561E+03 -0.48617116326E+03  0.10126247302E+04  0.00000000000E+00 0. -1.
        -13    1    5    5    0    0  0.13879142063E+01  0.57745315294E+02 -0.68962443594E+01  0.58172209262E+02  0.00000000000E+00 0.  1.
          3    1    6    6  503    0  0.61186528070E+02  0.50344408566E+02 -0.33839211726E+03  0.34754507005E+03  0.00000000000E+00 0. -1.
         -3    1    6    6    0  503  0.73222877761E+01 -0.38434684288E+01 -0.45590427966E+03  0.45597927624E+03  0.00000000000E+00 0.  1.
<mgrwt>
<rscale>  0 0.27347796E+04</rscale>
<asrwt>0</asrwt>
<pdfrwt beam="1">  1        1 0.30211850E+00 0.27347796E+04</pdfrwt>
<pdfrwt beam="2">  1       -1 0.14648078E+00 0.27347796E+04</pdfrwt>
<totfact> 0.10208419E+00</totfact>
</mgrwt>
</event>
<event>
12    3  0.4769008E-008  0.1760210E+04  0.7818608E-02  0.8727750E-01
          2   -1    0    0  501    0  0.00000000000E+00  0.00000000000E+00  0.22023646401E+04  0.22023646401E+04  0.00000000000E+00 0. -1.
         -2   -1    0    0    0  501 -0.00000000000E+00 -0.00000000000E+00 -0.35170596894E+03  0.35170596894E+03  0.00000000000E+00 0.  1.
         23    2    1    2    0    0  0.15309528660E+03  0.60629800590E+03  0.92866882230E+03  0.11237422332E+04  0.96619803834E+02 0.  0.
        254    2    1    2    0    0 -0.15309528660E+03 -0.60629800590E+03  0.92198984890E+03  0.14303283759E+04  0.89707220589E+03 0.  0.
         23    2    4    4    0    0 -0.31649770778E+02 -0.72460739810E+03  0.98585024644E+03  0.12272880384E+04  0.90981489122E+02 0.  0.
         23    2    4    4    0    0 -0.12144551582E+03  0.11830939220E+03 -0.63860397542E+02  0.20304033748E+03  0.91657529294E+02 0.  0.
          1    1    3    3  502    0  0.48804709350E+01  0.34645593703E+02  0.10175555468E+03  0.10760264433E+03  0.00000000000E+00 0. -1.
         -1    1    3    3    0  502  0.14821481566E+03  0.57165241219E+03  0.82691326762E+03  0.10161395889E+04  0.00000000000E+00 0.  1.
         13    1    5    5    0    0 -0.20330402112E+02 -0.12148221009E+03  0.22295107560E+03  0.25471245500E+03  0.00000000000E+00 0. -1.
        -13    1    5    5    0    0 -0.11319368666E+02 -0.60312518801E+03  0.76289917084E+03  0.97257558338E+03  0.00000000000E+00 0.  1.
          2    1    6    6  503    0 -0.60167733736E+02  0.93262055511E+02  0.10517154912E+00  0.11098638764E+03  0.00000000000E+00 0.  1.
         -2    1    6    6    0  503 -0.61277782083E+02  0.25047336689E+02 -0.63965569091E+02  0.92053949841E+02  0.00000000000E+00 0. -1.
<mgrwt>
<rscale>  0 0.17602100E+04</rscale>
<asrwt>0</asrwt>
<pdfrwt beam="1">  1        2 0.33882532E+00 0.17602100E+04</pdfrwt>
<pdfrwt beam="2">  1       -2 0.54108612E-01 0.17602100E+04</pdfrwt>
<totfact> 0.15687257E+01</totfact>
</mgrwt>
</event>
<event>
12    3  0.4769008E-008  0.1865328E+04  0.7818608E-02  0.8672310E-01
          1   -1    0    0  501    0  0.00000000000E+00  0.00000000000E+00  0.14481933615E+04  0.14481933615E+04  0.00000000000E+00 0. -1.
         -1   -1    0    0    0  501 -0.00000000000E+00 -0.00000000000E+00 -0.60065307052E+03  0.60065307052E+03  0.00000000000E+00 0.  1.
         23    2    1    2    0    0 -0.19945269087E+03 -0.94551769246E+02 -0.41442174118E+03  0.47717385082E+03  0.85018182621E+02 0.  0.
        254    2    1    2    0    0  0.19945269087E+03  0.94551769246E+02  0.12619620322E+04  0.15716725812E+04  0.91043128184E+03 0.  0.
         23    2    4    4    0    0  0.43040781710E+03  0.36404283667E+03  0.77487397727E+03  0.96280470485E+03  0.93729094131E+02 0.  0.
         23    2    4    4    0    0 -0.23095512623E+03 -0.26949106742E+03  0.48708805493E+03  0.60886787639E+03  0.86600299614E+02 0.  0.
          4    1    3    3  502    0 -0.14898001693E+03 -0.25723598957E+02 -0.26551541066E+03  0.30554080298E+03  0.00000000000E+00 0. -1.
         -4    1    3    3    0  502 -0.50472673936E+02 -0.68828170289E+02 -0.14890633053E+03  0.17163304784E+03  0.00000000000E+00 0.  1.
         13    1    5    5    0    0  0.39651188859E+03  0.31900205125E+03  0.64780343212E+03  0.82379200843E+03  0.00000000000E+00 0. -1.
        -13    1    5    5    0    0  0.33895928512E+02  0.45040785415E+02  0.12707054515E+03  0.13901269642E+03  0.00000000000E+00 0.  1.
          4    1    6    6  503    0 -0.46141909834E+02 -0.78162130751E+02  0.18690661063E+03  0.20777987300E+03  0.00000000000E+00 0. -1.
         -4    1    6    6    0  503 -0.18481321640E+03 -0.19132893667E+03  0.30018144430E+03  0.40108800339E+03  0.00000000000E+00 0.  1.
<mgrwt>
<rscale>  0 0.18653276E+04</rscale>
<asrwt>0</asrwt>
<pdfrwt beam="1">  1        1 0.22279898E+00 0.18653276E+04</pdfrwt>
<pdfrwt beam="2">  1       -1 0.92408165E-01 0.18653276E+04</pdfrwt>
<totfact> 0.75981883E+00</totfact>
</mgrwt>
</event>
<event>
12    3  0.4769008E-008  0.3413478E+04  0.7818608E-02  0.8134606E-01
          1   -1    0    0  501    0  0.00000000000E+00  0.00000000000E+00  0.17935139255E+04  0.17935139255E+04  0.00000000000E+00 0.  1.
         -1   -1    0    0    0  501 -0.00000000000E+00 -0.00000000000E+00 -0.16241624888E+04  0.16241624888E+04  0.00000000000E+00 0. -1.
         23    2    1    2    0    0  0.13710767818E+04 -0.78257974160E+03 -0.10241252025E+03  0.15845582567E+04  0.89743807228E+02 0.  0.
        254    2    1    2    0    0 -0.13710767818E+04  0.78257974160E+03  0.27176395694E+03  0.18331181576E+04  0.89116998250E+03 0.  0.
         23    2    4    4    0    0 -0.65404345893E+03  0.83477532546E+03  0.16320524342E+02  0.10644839052E+04  0.90757560654E+02 0.  0.
         23    2    4    4    0    0 -0.71703332286E+03 -0.52195583860E+02  0.25544343260E+03  0.76863425232E+03  0.93199257028E+02 0.  0.
          3    1    3    3  502    0  0.12130610634E+04 -0.65997178103E+03 -0.99186787609E+02  0.13845280475E+04  0.00000000000E+00 0. -1.
         -3    1    3    3    0  502  0.15801571836E+03 -0.12260796057E+03 -0.32257326384E+01  0.20003020921E+03  0.00000000000E+00 0.  1.
         13    1    5    5    0    0 -0.33953915321E+03  0.36056919231E+03  0.13397494962E+02  0.49545582233E+03  0.00000000000E+00 0.  1.
        -13    1    5    5    0    0 -0.31450430572E+03  0.47420613315E+03  0.29230293792E+01  0.56902808291E+03  0.00000000000E+00 0. -1.
          4    1    6    6  503    0 -0.26779678031E+03 -0.64671289262E+02  0.10108257225E+03  0.29345387647E+03  0.00000000000E+00 0.  1.
         -4    1    6    6    0  503 -0.44923654255E+03  0.12475705402E+02  0.15436086034E+03  0.47518037585E+03  0.00000000000E+00 0. -1.
<mgrwt>
<rscale>  0 0.34134780E+04</rscale>
<asrwt>0</asrwt>
<pdfrwt beam="1">  1        1 0.27592522E+00 0.34134780E+04</pdfrwt>
<pdfrwt beam="2">  1       -1 0.24987115E+00 0.34134780E+04</pdfrwt>
<totfact> 0.23626431E-01</totfact>
</mgrwt>
</event>
<event>
12    3  0.4769008E-008  0.1940322E+04  0.7818608E-02  0.8635042E-01
          2   -1    0    0  501    0  0.00000000000E+00  0.00000000000E+00  0.56132671545E+03  0.56132671545E+03  0.00000000000E+00 0. -1.
         -2   -1    0    0    0  501 -0.00000000000E+00 -0.00000000000E+00 -0.16767636485E+04  0.16767636485E+04  0.00000000000E+00 0.  1.
         23    2    1    2    0    0  0.46097876719E+03  0.44526636778E+03  0.27672968578E+02  0.64889993274E+03  0.97681970919E+02 0.  0.
        254    2    1    2    0    0 -0.46097876719E+03 -0.44526636778E+03 -0.11431099016E+04  0.15891904312E+04  0.89892292070E+03 0.  0.
         23    2    4    4    0    0  0.26053104845E+03 -0.92629753578E+02 -0.25083708974E+03  0.38528238525E+03  0.95218550387E+02 0.  0.
         23    2    4    4    0    0 -0.72150981564E+03 -0.35263661420E+03 -0.89227281186E+03  0.12039080459E+04  0.91185615938E+02 0.  0.
          1    1    3    3  502    0  0.31092297145E+03  0.28034691430E+03  0.62294942274E+02  0.42325895899E+03  0.00000000000E+00 0. -1.
         -1    1    3    3    0  502  0.15005579574E+03  0.16491945348E+03 -0.34621973696E+02  0.22564097375E+03  0.00000000000E+00 0.  1.
         13    1    5    5    0    0 -0.74764691421E+01 -0.25552611663E+01 -0.15576763160E+02  0.17466038503E+02  0.00000000000E+00 0. -1.
        -13    1    5    5    0    0  0.26800751759E+03 -0.90074492412E+02 -0.23526032659E+03  0.36781634675E+03  0.00000000000E+00 0.  1.
          1    1    6    6  503    0 -0.43126074741E+03 -0.21365535044E+03 -0.46713912953E+03  0.67071112065E+03  0.00000000000E+00 0. -1.
         -1    1    6    6    0  503 -0.29024906823E+03 -0.13898126377E+03 -0.42513368233E+03  0.53319692529E+03  0.00000000000E+00 0.  1.
<mgrwt>
<rscale>  0 0.19403219E+04</rscale>
<asrwt>0</asrwt>
<pdfrwt beam="1">  1        2 0.86357959E-01 0.19403219E+04</pdfrwt>
<pdfrwt beam="2">  1       -2 0.25796363E+00 0.19403219E+04</pdfrwt>
<totfact> 0.28801934E+00</totfact>
</mgrwt>
</event>
<event>
12    3  0.4769008E-008  0.3076821E+04  0.7818608E-02  0.8222128E-01
          2   -1    0    0  501    0  0.00000000000E+00  0.00000000000E+00  0.31282143050E+04  0.31282143050E+04  0.00000000000E+00 0. -1.
         -2   -1    0    0    0  501 -0.00000000000E+00 -0.00000000000E+00 -0.75656809763E+03  0.75656809763E+03  0.00000000000E+00 0.  1.
         23    2    1    2    0    0 -0.68411641437E+03 -0.48705738141E+01  0.26328904303E+04  0.27219580615E+04  0.94364609553E+02 0.  0.
        254    2    1    2    0    0  0.68411641437E+03  0.48705738141E+01 -0.26124422295E+03  0.11628243411E+04  0.90325683690E+03 0.  0.
         23    2    4    4    0    0  0.25382234222E+03 -0.33364974425E+03  0.16746695922E+03  0.46176947583E+03  0.97149025380E+02 0.  0.
         23    2    4    4    0    0  0.43029407216E+03  0.33852031806E+03 -0.42871118218E+03  0.70105486531E+03  0.89082277536E+02 0.  0.
          1    1    3    3  502    0 -0.51608580334E+03 -0.43888578653E+02  0.19493236046E+04  0.20169613976E+04  0.00000000000E+00 0. -1.
         -1    1    3    3    0  502 -0.16803061103E+03  0.39018004839E+02  0.68356682564E+03  0.70499666386E+03  0.00000000000E+00 0.  1.
         13    1    5    5    0    0  0.23508531889E+03 -0.33728160516E+03  0.16225439079E+03  0.44198470072E+03  0.00000000000E+00 0. -1.
        -13    1    5    5    0    0  0.18737023320E+02  0.36318609097E+01  0.52125684344E+01  0.19784775113E+02  0.00000000000E+00 0.  1.
          2    1    6    6  503    0  0.36447216791E+03  0.32314423897E+03 -0.37563277584E+03  0.61511148798E+03  0.00000000000E+00 0. -1.
         -2    1    6    6    0  503  0.65821904250E+02  0.15376079096E+02 -0.53078406333E+02  0.85943377326E+02  0.00000000000E+00 0.  1.
<mgrwt>
<rscale>  0 0.30768212E+04</rscale>
<asrwt>0</asrwt>
<pdfrwt beam="1">  1        2 0.48126373E+00 0.30768212E+04</pdfrwt>
<pdfrwt beam="2">  1       -2 0.11639509E+00 0.30768212E+04</pdfrwt>
<totfact> 0.70240592E-01</totfact>
</mgrwt>
</event>
<event>
12    3  0.4769008E-008  0.3653367E+04  0.7818608E-02  0.8078376E-01
         -2   -1    0    0    0  501 -0.00000000000E+00  0.00000000000E+00  0.12704864978E+04  0.12704864978E+04  0.00000000000E+00 0.  1.
          2   -1    0    0  501    0  0.00000000000E+00 -0.00000000000E+00 -0.26263734179E+04  0.26263734179E+04  0.00000000000E+00 0. -1.
         23    2    1    2    0    0 -0.60187449136E+02  0.25810124451E+03  0.11700383181E+04  0.12031192336E+04  0.90925480722E+02 0.  0.
        254    2    1    2    0    0  0.60187449136E+02 -0.25810124451E+03 -0.25259252382E+04  0.26937406821E+04  0.89760891924E+03 0.  0.
         23    2    4    4    0    0  0.23022749268E+03 -0.31690847637E+03 -0.24426182035E+04  0.24754855171E+04  0.90604505958E+02 0.  0.
         23    2    4    4    0    0 -0.17004004355E+03  0.58807231861E+02 -0.83307034658E+02  0.21825516495E+03  0.91232385011E+02 0.  0.
          4    1    3    3  502    0 -0.55098627673E+02  0.60068292128E+02  0.37728036084E+03  0.38598514112E+03  0.00000000000E+00 0. -1.
         -4    1    3    3    0  502 -0.50888214634E+01  0.19803295238E+03  0.79275795727E+03  0.81713409251E+03  0.00000000000E+00 0.  1.
         13    1    5    5    0    0  0.20205934206E+03 -0.25326360699E+03 -0.21733987363E+04  0.21974149584E+04  0.00000000000E+00 0.  1.
        -13    1    5    5    0    0  0.28168150617E+02 -0.63644869379E+02 -0.26921946719E+03  0.27807055871E+03  0.00000000000E+00 0. -1.
          2    1    6    6  503    0 -0.73348992875E+02 -0.18757478841E+02 -0.46911076441E+02  0.89064958660E+02  0.00000000000E+00 0. -1.
         -2    1    6    6    0  503 -0.96691050670E+02  0.77564710703E+02 -0.36395958217E+02  0.12919020629E+03  0.00000000000E+00 0.  1.
<mgrwt>
<rscale>  0 0.36533666E+04</rscale>
<asrwt>0</asrwt>
<pdfrwt beam="1">  1        2 0.40405745E+00 0.36533666E+04</pdfrwt>
<pdfrwt beam="2">  1       -2 0.19545946E+00 0.36533666E+04</pdfrwt>
<totfact> 0.33951872E-01</totfact>
</mgrwt>
</event>
<event>
12    3  0.4769008E-008  0.1087142E+04  0.7818608E-02  0.9217816E-01
          2   -1    0    0  501    0  0.00000000000E+00  0.00000000000E+00  0.13793973116E+04  0.13793973116E+04  0.00000000000E+00 0. -1.
         -2   -1    0    0    0  501 -0.00000000000E+00 -0.00000000000E+00 -0.21420176667E+03  0.21420176667E+03  0.00000000000E+00 0.  1.
         23    2    1    2    0    0 -0.69222977389E+02 -0.52275688981E+02  0.32915345517E+03  0.35402354825E+03  0.97293922771E+02 0.  0.
        254    2    1    2    0    0  0.69222977389E+02  0.52275688981E+02  0.83604208972E+03  0.12395755300E+04  0.91107439349E+03 0.  0.
         23    2    4    4    0    0 -0.10877970548E+03 -0.20884279620E+03 -0.80174644369E+02  0.26601034595E+03  0.94261300138E+02 0.  0.
         23    2    4    4    0    0  0.17800268287E+03  0.26111848518E+03  0.91621673408E+03  0.97356518402E+03  0.92240150255E+02 0.  0.
          1    1    3    3  502    0 -0.23380592230E+02 -0.75435331975E+02  0.19706503280E+03  0.21230112707E+03  0.00000000000E+00 0. -1.
         -1    1    3    3    0  502 -0.45842385159E+02  0.23159642994E+02  0.13208842237E+03  0.14172242117E+03  0.00000000000E+00 0.  1.
         13    1    5    5    0    0 -0.87379170739E+02 -0.20797411710E+03 -0.53574189696E+02  0.23185889386E+03  0.00000000000E+00 0.  1.
        -13    1    5    5    0    0 -0.21400534740E+02 -0.86867909733E+00 -0.26600454673E+02  0.34151452083E+02  0.00000000000E+00 0. -1.
          1    1    6    6  503    0  0.10712140247E+02 -0.56466818064E+01  0.17485139276E+02  0.21268875372E+02  0.00000000000E+00 0. -1.
         -1    1    6    6    0  503  0.16729054262E+03  0.26676516699E+03  0.89873159481E+03  0.95229630865E+03  0.00000000000E+00 0.  1.
<mgrwt>
<rscale>  0 0.10871418E+04</rscale>
<asrwt>0</asrwt>
<pdfrwt beam="1">  1        2 0.21221497E+00 0.10871418E+04</pdfrwt>
<pdfrwt beam="2">  1       -2 0.32954119E-01 0.10871418E+04</pdfrwt>
<totfact> 0.12683510E+02</totfact>
</mgrwt>
</event>
<event>
12    3  0.4769008E-008  0.2272215E+04  0.7818608E-02  0.8488958E-01
          2   -1    0    0  501    0  0.00000000000E+00  0.00000000000E+00  0.16331817812E+04  0.16331817812E+04  0.00000000000E+00 0. -1.
         -2   -1    0    0    0  501 -0.00000000000E+00 -0.00000000000E+00 -0.79032255977E+03  0.79032255977E+03  0.00000000000E+00 0.  1.
         23    2    1    2    0    0  0.51367746043E+03 -0.44494437837E+03  0.10732026337E+04  0.12735195522E+04  0.90819180531E+02 0.  0.
        254    2    1    2    0    0 -0.51367746043E+03  0.44494437837E+03 -0.23034341231E+03  0.11499847888E+04  0.89864725760E+03 0.  0.
         23    2    4    4    0    0 -0.63780483279E+03 -0.10720252278E+02 -0.16919729678E+03  0.66596390555E+03  0.89276367111E+02 0.  0.
         23    2    4    4    0    0  0.12412737236E+03  0.45566463065E+03 -0.61146115528E+02  0.48402088321E+03  0.86599698298E+02 0.  0.
          4    1    3    3  502    0  0.51583778117E+03 -0.44493401796E+03  0.10734370464E+04  0.12713465261E+04  0.00000000000E+00 0. -1.
         -4    1    3    3    0  502 -0.21603207413E+01 -0.10360414486E-01 -0.23441268445E+00  0.21730260813E+01  0.00000000000E+00 0.  1.
         13    1    5    5    0    0 -0.20538913214E+03  0.35968371991E+02 -0.69087930539E+02  0.21966238078E+03  0.00000000000E+00 0. -1.
        -13    1    5    5    0    0 -0.43241570065E+03 -0.46688624269E+02 -0.10010936625E+03  0.44630152477E+03  0.00000000000E+00 0.  1.
          3    1    6    6  503    0  0.47260834510E+02  0.64164275366E+02  0.38623531208E+01  0.79784450136E+02  0.00000000000E+00 0. -1.
         -3    1    6    6    0  503  0.76866537846E+02  0.39150035529E+03 -0.65008468649E+02  0.40423643308E+03  0.00000000000E+00 0.  1.
<mgrwt>
<rscale>  0 0.22722151E+04</rscale>
<asrwt>0</asrwt>
<pdfrwt beam="1">  1        2 0.25125873E+00 0.22722151E+04</pdfrwt>
<pdfrwt beam="2">  1       -2 0.12158809E+00 0.22722151E+04</pdfrwt>
<totfact> 0.49902775E+00</totfact>
</mgrwt>
</event>
<event>
12    3  0.4769008E-008  0.1988529E+04  0.7818608E-02  0.8612003E-01
         -1   -1    0    0    0  501 -0.00000000000E+00  0.00000000000E+00  0.95592699401E+03  0.95592699401E+03  0.00000000000E+00 0.  1.
          1   -1    0    0  501    0  0.00000000000E+00 -0.00000000000E+00 -0.10341396015E+04  0.10341396015E+04  0.00000000000E+00 0. -1.
         23    2    1    2    0    0  0.52926593603E+03 -0.52904809616E+03  0.19665670820E+03  0.77890738936E+03  0.89490453329E+02 0.  0.
        254    2    1    2    0    0 -0.52926593603E+03  0.52904809616E+03 -0.27486931565E+03  0.12111592061E+04  0.91177802274E+03 0.  0.
         23    2    4    4    0    0  0.73652513362E+02 -0.71493033307E+02  0.19200251205E+03  0.23609893907E+03  0.91333443273E+02 0.  0.
         23    2    4    4    0    0 -0.60291844939E+03  0.60054112947E+03 -0.46687182770E+03  0.97506026704E+03  0.92805797568E+02 0.  0.
          2    1    3    3  502    0  0.29730524213E+03 -0.28714810504E+03  0.15386422192E+03  0.44104267369E+03  0.00000000000E+00 0. -1.
         -2    1    3    3    0  502  0.23196069389E+03 -0.24189999112E+03  0.42792486274E+02  0.33786471567E+03  0.00000000000E+00 0.  1.
         13    1    5    5    0    0 -0.18173947164E+01 -0.29157681399E+01  0.95948391823E+02  0.96009887620E+02  0.00000000000E+00 0.  1.
        -13    1    5    5    0    0  0.75469908079E+02 -0.68577265167E+02  0.96054120224E+02  0.14008905145E+03  0.00000000000E+00 0. -1.
          4    1    6    6  503    0 -0.51319431696E+03  0.53362068960E+03 -0.37314946614E+03  0.82907175287E+03  0.00000000000E+00 0. -1.
         -4    1    6    6    0  503 -0.89724132427E+02  0.66920439868E+02 -0.93722361563E+02  0.14598851417E+03  0.00000000000E+00 0.  1.
<mgrwt>
<rscale>  0 0.19885291E+04</rscale>
<asrwt>0</asrwt>
<pdfrwt beam="1">  1        1 0.15909840E+00 0.19885291E+04</pdfrwt>
<pdfrwt beam="2">  1       -1 0.14706569E+00 0.19885291E+04</pdfrwt>
<totfact> 0.48633816E+00</totfact>
</mgrwt>
</event>
<event>
12    3  0.4769008E-008  0.3679489E+04  0.7818608E-02  0.8072523E-01
          1   -1    0    0  501    0  0.00000000000E+00  0.00000000000E+00  0.24277241083E+04  0.24277241083E+04  0.00000000000E+00 0. -1.
         -1   -1    0    0    0  501 -0.00000000000E+00 -0.00000000000E+00 -0.13941699591E+04  0.13941699591E+04  0.00000000000E+00 0.  1.
         23    2    1    2    0    0 -0.13738865558E+04  0.83151670912E+03 -0.18374787089E+03  0.16190155830E+04  0.91999306270E+02 0.  0.
        254    2    1    2    0    0  0.13738865558E+04 -0.83151670912E+03  0.12173020201E+04  0.22028784844E+04  0.88986802562E+03 0.  0.
         23    2    4    4    0    0  0.45811893141E+02  0.53887952419E+02  0.38219200807E+03  0.39905883443E+03  0.90413391360E+02 0.  0.
         23    2    4    4    0    0  0.13280746627E+04 -0.88540466154E+03  0.83511001204E+03  0.18038196499E+04  0.92913255521E+02 0.  0.
          1    1    3    3  502    0 -0.12362354689E+04  0.77439330125E+03 -0.15212810843E+03  0.14666649518E+04  0.00000000000E+00 0.  1.
         -1    1    3    3    0  502 -0.13765108692E+03  0.57123407865E+02 -0.31619762459E+02  0.15235063122E+03  0.00000000000E+00 0. -1.
         13    1    5    5    0    0  0.69715742890E+02  0.20261114364E+02  0.21840452360E+03  0.23015502057E+03  0.00000000000E+00 0.  1.
        -13    1    5    5    0    0 -0.23903849749E+02  0.33626838055E+02  0.16378748447E+03  0.16890381387E+03  0.00000000000E+00 0. -1.
          4    1    6    6  503    0  0.59312319413E+03 -0.36429666664E+03  0.40709883176E+03  0.80637252158E+03  0.00000000000E+00 0. -1.
         -4    1    6    6    0  503  0.73495146852E+03 -0.52110799490E+03  0.42801118028E+03  0.99744712836E+03  0.00000000000E+00 0.  1.
<mgrwt>
<rscale>  0 0.36794891E+04</rscale>
<asrwt>0</asrwt>
<pdfrwt beam="1">  1        1 0.37349602E+00 0.36794891E+04</pdfrwt>
<pdfrwt beam="2">  1       -1 0.21448769E+00 0.36794891E+04</pdfrwt>
<totfact> 0.14644753E-01</totfact>
</mgrwt>
</event>
<event>
12    3  0.4769008E-008  0.1542935E+04  0.7818608E-02  0.8856393E-01
          2   -1    0    0  501    0  0.00000000000E+00  0.00000000000E+00  0.46626372887E+03  0.46626372887E+03  0.00000000000E+00 0. -1.
         -2   -1    0    0    0  501 -0.00000000000E+00 -0.00000000000E+00 -0.12764494978E+04  0.12764494978E+04  0.00000000000E+00 0.  1.
         23    2    1    2    0    0 -0.24590976143E+03  0.31103412904E+03  0.77896168082E+02  0.41425056805E+03  0.91224338502E+02 0.  0.
        254    2    1    2    0    0  0.24590976143E+03 -0.31103412904E+03 -0.88808193703E+03  0.13284626586E+04  0.90493627858E+03 0.  0.
         23    2    4    4    0    0  0.78955084306E+02 -0.69714738848E+02 -0.99375762980E+03  0.10035579990E+04  0.92088981042E+02 0.  0.
         23    2    4    4    0    0  0.16695467712E+03 -0.24131939020E+03  0.10567569277E+03  0.32490465962E+03  0.91031717033E+02 0.  0.
          4    1    3    3  502    0 -0.14186010281E+03  0.18013201797E+03  0.90633372756E+02  0.24654865833E+03  0.00000000000E+00 0. -1.
         -4    1    3    3    0  502 -0.10404965861E+03  0.13090211107E+03 -0.12737204674E+02  0.16770190972E+03  0.00000000000E+00 0.  1.
         13    1    5    5    0    0 -0.12176438145E+02 -0.11492227371E+02 -0.37839503082E+03  0.37876527861E+03  0.00000000000E+00 0. -1.
        -13    1    5    5    0    0  0.91131522450E+02 -0.58222511477E+02 -0.61536259899E+03  0.62479272040E+03  0.00000000000E+00 0.  1.
          3    1    6    6  503    0  0.82357648867E+02 -0.14694624315E+03  0.10435833770E+03  0.19815812714E+03  0.00000000000E+00 0.  1.
         -3    1    6    6    0  503  0.84597028253E+02 -0.94373147047E+02  0.13173550664E+01  0.12674653249E+03  0.00000000000E+00 0. -1.
<mgrwt>
<rscale>  0 0.15429350E+04</rscale>
<asrwt>0</asrwt>
<pdfrwt beam="1">  1        2 0.71732884E-01 0.15429350E+04</pdfrwt>
<pdfrwt beam="2">  1       -2 0.19637684E+00 0.15429350E+04</pdfrwt>
<totfact> 0.90271680E+00</totfact>
</mgrwt>
</event>
<event>
12    3  0.4769008E-008  0.1343021E+04  0.7818608E-02  0.8996128E-01
          1   -1    0    0  501    0  0.00000000000E+00  0.00000000000E+00  0.19466534601E+04  0.19466534601E+04  0.00000000000E+00 0. -1.
         -1   -1    0    0    0  501 -0.00000000000E+00 -0.00000000000E+00 -0.23164197920E+03  0.23164197920E+03  0.00000000000E+00 0.  1.
         23    2    1    2    0    0  0.83692702769E+02  0.27421415578E+02  0.10807463436E+04  0.10882036110E+04  0.91749863425E+02 0.  0.
        254    2    1    2    0    0 -0.83692702769E+02 -0.27421415578E+02  0.63426513730E+03  0.10900918282E+04  0.88218565337E+03 0.  0.
         23    2    4    4    0    0 -0.42008883808E+03  0.32499818267E+02  0.87809603567E+02  0.43930770627E+03  0.88033313237E+02 0.  0.
         23    2    4    4    0    0  0.33639613531E+03 -0.59921233846E+02  0.54645553373E+03  0.65078412194E+03  0.90296228653E+02 0.  0.
          1    1    3    3  502    0  0.90901339013E+02  0.26687324334E+02  0.10744077578E+04  0.10785765141E+04  0.00000000000E+00 0. -1.
         -1    1    3    3    0  502 -0.72086362432E+01  0.73409124487E+00  0.63385857669E+01  0.96270969647E+01  0.00000000000E+00 0.  1.
         13    1    5    5    0    0 -0.14097854704E+03  0.32213362970E+02  0.67125910768E+02  0.15943192709E+03  0.00000000000E+00 0. -1.
        -13    1    5    5    0    0 -0.27911029105E+03  0.28645529729E+00  0.20683692798E+02  0.27987577918E+03  0.00000000000E+00 0.  1.
          4    1    6    6  503    0  0.29950687934E+03 -0.46251873500E+02  0.41706510805E+03  0.51554525594E+03  0.00000000000E+00 0. -1.
         -4    1    6    6    0  503  0.36889255974E+02 -0.13669360346E+02  0.12939042569E+03  0.13523886600E+03  0.00000000000E+00 0.  1.
<mgrwt>
<rscale>  0 0.13430215E+04</rscale>
<asrwt>0</asrwt>
<pdfrwt beam="1">  1        1 0.29948514E+00 0.13430215E+04</pdfrwt>
<pdfrwt beam="2">  1       -1 0.35637229E-01 0.13430215E+04</pdfrwt>
<totfact> 0.23851674E+01</totfact>
</mgrwt>
</event>
<event>
12    3  0.4769008E-008  0.1360974E+04  0.7818608E-02  0.8982562E-01
         -2   -1    0    0    0  501 -0.00000000000E+00  0.00000000000E+00  0.48488828486E+03  0.48488828486E+03  0.00000000000E+00 0.  1.
          2   -1    0    0  501    0  0.00000000000E+00 -0.00000000000E+00 -0.95498788389E+03  0.95498788389E+03  0.00000000000E+00 0. -1.
         23    2    1    2    0    0 -0.40862358551E+02  0.39680834713E+01 -0.52452573819E+03  0.53305447269E+03  0.85640777674E+02 0.  0.
        254    2    1    2    0    0  0.40862358551E+02 -0.39680834713E+01  0.54426139151E+02  0.90682169606E+03  0.90425544277E+03 0.  0.
         23    2    4    4    0    0  0.38022071453E+03 -0.21782949216E+03 -0.11551056644E+03  0.46219499676E+03  0.90906791077E+02 0.  0.
         23    2    4    4    0    0 -0.33935835597E+03  0.21386140869E+03  0.16993670559E+03  0.44462669930E+03  0.88958540483E+02 0.  0.
          4    1    3    3  502    0 -0.27472056687E+02  0.18061359418E+02 -0.50290723940E+03  0.50398077150E+03  0.00000000000E+00 0. -1.
         -4    1    3    3    0  502 -0.13390301864E+02 -0.14093275947E+02 -0.21618498787E+02  0.29073701187E+02  0.00000000000E+00 0.  1.
         13    1    5    5    0    0  0.75791354861E+02 -0.87547282282E+02 -0.19548667659E+02  0.11743511619E+03  0.00000000000E+00 0. -1.
        -13    1    5    5    0    0  0.30442935967E+03 -0.13028220988E+03 -0.95961898781E+02  0.34475988057E+03  0.00000000000E+00 0.  1.
          3    1    6    6  503    0 -0.45778310661E+00 -0.47432947469E+01 -0.32042344932E+01  0.57424323345E+01  0.00000000000E+00 0. -1.
         -3    1    6    6    0  503 -0.33890057287E+03  0.21860470343E+03  0.17314094008E+03  0.43888426696E+03  0.00000000000E+00 0.  1.
<mgrwt>
<rscale>  0 0.13609738E+04</rscale>
<asrwt>0</asrwt>
<pdfrwt beam="1">  1        2 0.14692121E+00 0.13609738E+04</pdfrwt>
<pdfrwt beam="2">  1       -2 0.74598198E-01 0.13609738E+04</pdfrwt>
<totfact> 0.42510585E+01</totfact>
</mgrwt>
</event>
<event>
12    3  0.4769008E-008  0.3937812E+04  0.7818608E-02  0.8017211E-01
         -2   -1    0    0    0  501 -0.00000000000E+00  0.00000000000E+00  0.17865942266E+04  0.17865942266E+04  0.00000000000E+00 0.  1.
          2   -1    0    0  501    0  0.00000000000E+00 -0.00000000000E+00 -0.21698218632E+04  0.21698218632E+04  0.00000000000E+00 0. -1.
         23    2    1    2    0    0  0.14887815995E+04 -0.88811112066E+03 -0.87231098463E+03  0.19429514138E+04  0.94454903003E+02 0.  0.
        254    2    1    2    0    0 -0.14887815995E+04  0.88811112066E+03  0.48908334803E+03  0.20134646760E+04  0.89979190183E+03 0.  0.
         23    2    4    4    0    0 -0.14197351397E+04  0.97684064822E+03  0.26267932294E+03  0.17456798095E+04  0.92369106549E+02 0.  0.
         23    2    4    4    0    0 -0.69046459887E+02 -0.88729527569E+02  0.22640402509E+03  0.26778486653E+03  0.88371994895E+02 0.  0.
          3    1    3    3  502    0  0.70363598346E+03 -0.40183058269E+03 -0.45759468348E+03  0.93057203309E+03  0.00000000000E+00 0. -1.
         -3    1    3    3    0  502  0.78514561608E+03 -0.48628053797E+03 -0.41471630115E+03  0.10123793807E+04  0.00000000000E+00 0.  1.
         13    1    5    5    0    0 -0.83379528017E+03  0.62685845130E+03  0.16990442440E+03  0.10568981032E+04  0.00000000000E+00 0. -1.
        -13    1    5    5    0    0 -0.58593985949E+03  0.34998219692E+03  0.92774898537E+02  0.68878170627E+03  0.00000000000E+00 0.  1.
          2    1    6    6  503    0 -0.65965233790E+02 -0.10534129426E+03  0.21118666986E+03  0.24504695442E+03  0.00000000000E+00 0. -1.
         -2    1    6    6    0  503 -0.30812260972E+01  0.16611766693E+02  0.15217355234E+02  0.22737912113E+02  0.00000000000E+00 0.  1.
<mgrwt>
<rscale>  0 0.39378122E+04</rscale>
<asrwt>0</asrwt>
<pdfrwt beam="1">  1        2 0.33381875E+00 0.39378122E+04</pdfrwt>
<pdfrwt beam="2">  1       -2 0.27486065E+00 0.39378122E+04</pdfrwt>
<totfact> 0.19272119E-01</totfact>
</mgrwt>
</event>
<event>
12    3  0.4769008E-008  0.2032647E+04  0.7818608E-02  0.8591507E-01
         -1   -1    0    0    0  501 -0.00000000000E+00  0.00000000000E+00  0.10832579950E+04  0.10832579950E+04  0.00000000000E+00 0.  1.
          1   -1    0    0  501    0  0.00000000000E+00 -0.00000000000E+00 -0.95352511998E+03  0.95352511998E+03  0.00000000000E+00 0. -1.
         23    2    1    2    0    0 -0.34552696090E+03 -0.67787658035E+03  0.35315146936E+03  0.84382325836E+03  0.91739806791E+02 0.  0.
        254    2    1    2    0    0  0.34552696090E+03  0.67787658035E+03 -0.22341859429E+03  0.11929598567E+04  0.89125294526E+03 0.  0.
         23    2    4    4    0    0  0.40856326435E+03  0.83112813270E+03 -0.44739712291E+02  0.93150423587E+03  0.89445992962E+02 0.  0.
         23    2    4    4    0    0 -0.63036303450E+02 -0.15325155234E+03 -0.17867888200E+03  0.26145562079E+03  0.94727424336E+02 0.  0.
          1    1    3    3  502    0 -0.31118413532E+02 -0.10172954639E+03  0.79042795366E+02  0.13253308933E+03  0.00000000000E+00 0. -1.
         -1    1    3    3    0  502 -0.31440854736E+03 -0.57614703396E+03  0.27410867399E+03  0.71129016903E+03  0.00000000000E+00 0.  1.
         13    1    5    5    0    0  0.24573994829E+02  0.18689631440E+02  0.60374751965E+01  0.31458459148E+02  0.00000000000E+00 0.  1.
        -13    1    5    5    0    0  0.38398926952E+03  0.81243850126E+03 -0.50777187487E+02  0.90004577672E+03  0.00000000000E+00 0. -1.
          1    1    6    6  503    0 -0.71051461592E-01 -0.11516455609E+03 -0.89614840032E+02  0.14592360872E+03  0.00000000000E+00 0. -1.
         -1    1    6    6    0  503 -0.62965251989E+02 -0.38086996256E+02 -0.89064041965E+02  0.11553201207E+03  0.00000000000E+00 0.  1.
<mgrwt>
<rscale>  0 0.20326472E+04</rscale>
<asrwt>0</asrwt>
<pdfrwt beam="1">  1        1 0.14669617E+00 0.20326472E+04</pdfrwt>
<pdfrwt beam="2">  1       -1 0.16665508E+00 0.20326472E+04</pdfrwt>
<totfact> 0.39681273E+00</totfact>
</mgrwt>
</event>
<event>
12    3  0.4769008E-008  0.1842220E+04  0.7818608E-02  0.8684164E-01
         -3   -1    0    0    0  501 -0.00000000000E+00  0.00000000000E+00  0.19006918781E+04  0.19006918781E+04  0.00000000000E+00 0.  1.
          3   -1    0    0  501    0  0.00000000000E+00 -0.00000000000E+00 -0.44638664837E+03  0.44638664837E+03  0.00000000000E+00 0. -1.
         23    2    1    2    0    0 -0.34000803716E+03  0.28594328138E+03  0.12644370024E+04  0.13436152687E+04  0.95561664831E+02 0.  0.
        254    2    1    2    0    0  0.34000803716E+03 -0.28594328138E+03  0.18986822736E+03  0.10034632578E+04  0.87949959661E+03 0.  0.
         23    2    4    4    0    0  0.59088850007E+03 -0.35984606971E+03  0.68666888091E+02  0.70122767495E+03  0.91469651759E+02 0.  0.
         23    2    4    4    0    0 -0.25088046291E+03  0.73902788332E+02  0.12120133927E+03  0.30223558282E+03  0.90851274581E+02 0.  0.
          4    1    3    3  502    0 -0.19535661686E+03  0.11708735634E+03  0.73212068529E+03  0.76672964896E+03  0.00000000000E+00 0. -1.
         -4    1    3    3    0  502 -0.14465142030E+03  0.16885592504E+03  0.53231631706E+03  0.57688561971E+03  0.00000000000E+00 0.  1.
         13    1    5    5    0    0 -0.14604873170E+01  0.28060547592E+00 -0.39341141372E+01  0.42058312711E+01  0.00000000000E+00 0. -1.
        -13    1    5    5    0    0  0.59234898738E+03 -0.36012667519E+03  0.72601002229E+02  0.69702184368E+03  0.00000000000E+00 0.  1.
          1    1    6    6  503    0 -0.56223812103E+02 -0.20518393632E+02  0.35098016948E+02  0.69382939678E+02  0.00000000000E+00 0. -1.
         -1    1    6    6    0  503 -0.19465665081E+03  0.94421181964E+02  0.86103322317E+02  0.23285264315E+03  0.00000000000E+00 0.  1.
<mgrwt>
<rscale>  0 0.18422198E+04</rscale>
<asrwt>0</asrwt>
<pdfrwt beam="1">  1        3 0.68674870E-01 0.18422198E+04</pdfrwt>
<pdfrwt beam="2">  1       -3 0.29241413E+00 0.18422198E+04</pdfrwt>
<totfact> 0.21018445E-01</totfact>
</mgrwt>
</event>
<event>
12    3  0.4769008E-008  0.1699963E+04  0.7818608E-02  0.8761386E-01
          1   -1    0    0  501    0  0.00000000000E+00  0.00000000000E+00  0.83588970515E+03  0.83588970515E+03  0.00000000000E+00 0. -1.
         -1   -1    0    0    0  501 -0.00000000000E+00 -0.00000000000E+00 -0.86431054958E+03  0.86431054958E+03  0.00000000000E+00 0.  1.
         23    2    1    2    0    0  0.44961046422E+03  0.13777787562E+03 -0.39567485587E+03  0.62115231695E+03  0.90218051041E+02 0.  0.
        254    2    1    2    0    0 -0.44961046422E+03 -0.13777787562E+03  0.36725401144E+03  0.10790479378E+04  0.89907543096E+03 0.  0.
         23    2    4    4    0    0  0.81147689714E+02 -0.23500372588E+03 -0.16865551258E+03  0.31296439513E+03  0.87694537875E+02 0.  0.
         23    2    4    4    0    0 -0.53075815394E+03  0.97225850258E+02  0.53590952402E+03  0.76608354265E+03  0.92346588731E+02 0.  0.
          1    1    3    3  502    0  0.10847677393E+03  0.37129205724E+02 -0.15035315234E+03  0.18908161946E+03  0.00000000000E+00 0. -1.
         -1    1    3    3    0  502  0.34113369029E+03  0.10064866990E+03 -0.24532170354E+03  0.43207069749E+03  0.00000000000E+00 0.  1.
         13    1    5    5    0    0  0.91478386615E+02 -0.17593778856E+03 -0.10092386681E+03  0.22250399447E+03  0.00000000000E+00 0. -1.
        -13    1    5    5    0    0 -0.10330696901E+02 -0.59065937316E+02 -0.67731645771E+02  0.90460400664E+02  0.00000000000E+00 0.  1.
          4    1    6    6  503    0 -0.15872966507E+03 -0.68039363855E+01  0.18872255949E+03  0.24669334118E+03  0.00000000000E+00 0.  1.
         -4    1    6    6    0  503 -0.37202848887E+03  0.10402978664E+03  0.34718696454E+03  0.51939020147E+03  0.00000000000E+00 0. -1.
<mgrwt>
<rscale>  0 0.16999627E+04</rscale>
<asrwt>0</asrwt>
<pdfrwt beam="1">  1        1 0.12859842E+00 0.16999627E+04</pdfrwt>
<pdfrwt beam="2">  1       -1 0.13297085E+00 0.16999627E+04</pdfrwt>
<totfact> 0.93831365E+00</totfact>
</mgrwt>
</event>
<event>
12    3  0.4769008E-008  0.1143142E+04  0.7818608E-02  0.9164134E-01
         -2   -1    0    0    0  501 -0.00000000000E+00  0.00000000000E+00  0.60327013025E+03  0.60327013025E+03  0.00000000000E+00 0.  1.
          2   -1    0    0  501    0  0.00000000000E+00 -0.00000000000E+00 -0.54153725198E+03  0.54153725198E+03  0.00000000000E+00 0. -1.
         23    2    1    2    0    0 -0.11169517531E+02  0.19000760276E+03 -0.14134814956E+02  0.21030794425E+03  0.88328880853E+02 0.  0.
        254    2    1    2    0    0  0.11169517531E+02 -0.19000760276E+03  0.75867693217E+02  0.93449943798E+03  0.91175964238E+03 0.  0.
         23    2    4    4    0    0 -0.42869990581E+03 -0.20076516333E+03  0.55828839969E+02  0.48535385876E+03  0.91439864337E+02 0.  0.
         23    2    4    4    0    0  0.43986942334E+03  0.10757560572E+02  0.20038853248E+02  0.44914557922E+03  0.87916784472E+02 0.  0.
          1    1    3    3  502    0 -0.15951117235E+02  0.17418815060E+03 -0.40170187512E+02  0.17947031486E+03  0.00000000000E+00 0. -1.
         -1    1    3    3    0  502  0.47815997040E+01  0.15819452157E+02  0.26035372556E+02  0.30837629390E+02  0.00000000000E+00 0.  1.
         13    1    5    5    0    0 -0.30534452191E+03 -0.99423116594E+02  0.20054760244E+02  0.32174901178E+03  0.00000000000E+00 0.  1.
        -13    1    5    5    0    0 -0.12335538390E+03 -0.10134204674E+03  0.35774079726E+02  0.16360484698E+03  0.00000000000E+00 0. -1.
          4    1    6    6  503    0  0.83038039423E+02  0.31243384607E+02  0.23231318719E+02  0.91712372351E+02  0.00000000000E+00 0. -1.
         -4    1    6    6    0  503  0.35683138392E+03 -0.20485824035E+02 -0.31924654710E+01  0.35743320687E+03  0.00000000000E+00 0.  1.
<mgrwt>
<rscale>  0 0.11431417E+04</rscale>
<asrwt>0</asrwt>
<pdfrwt beam="1">  1        2 0.83313424E-01 0.11431417E+04</pdfrwt>
<pdfrwt beam="2">  1       -2 0.92810789E-01 0.11431417E+04</pdfrwt>
<totfact> 0.54667553E+01</totfact>
</mgrwt>
</event>
<event>
12    3  0.4769008E-008  0.3023776E+04  0.7818608E-02  0.8236974E-01
         -2   -1    0    0    0  501 -0.00000000000E+00  0.00000000000E+00  0.92802393419E+03  0.92802393419E+03  0.00000000000E+00 0. -1.
          2   -1    0    0  501    0  0.00000000000E+00 -0.00000000000E+00 -0.24630890905E+04  0.24630890905E+04  0.00000000000E+00 0.  1.
         23    2    1    2    0    0  0.56844388478E+03  0.10084954830E+04 -0.15418033278E+04  0.19302430029E+04  0.92135547620E+02 0.  0.
        254    2    1    2    0    0 -0.56844388478E+03 -0.10084954830E+04  0.67381714858E+01  0.14608700218E+04  0.89101303487E+03 0.  0.
         23    2    4    4    0    0 -0.58526311143E+03 -0.16875803857E+03  0.17635926416E+02  0.61597857532E+03  0.90035516170E+02 0.  0.
         23    2    4    4    0    0  0.16819226656E+02 -0.83973744445E+03 -0.10897754931E+02  0.84489144650E+03  0.90999633580E+02 0.  0.
          3    1    3    3  502    0  0.19411864574E+03  0.35457144873E+03 -0.61233649116E+03  0.73372947282E+03  0.00000000000E+00 0. -1.
         -3    1    3    3    0  502  0.37432523903E+03  0.65392403428E+03 -0.92946683665E+03  0.11965135301E+04  0.00000000000E+00 0.  1.
         13    1    5    5    0    0 -0.28126654673E+03 -0.34495592231E+02  0.10962910583E+02  0.28358596862E+03  0.00000000000E+00 0. -1.
        -13    1    5    5    0    0 -0.30399656470E+03 -0.13426244634E+03  0.66730158336E+01  0.33239260670E+03  0.00000000000E+00 0.  1.
          3    1    6    6  503    0  0.13734852136E+01 -0.81368817959E+03 -0.17577974335E+02  0.81387918345E+03  0.00000000000E+00 0. -1.
         -3    1    6    6    0  503  0.15445741442E+02 -0.26049264858E+02  0.66802194045E+01  0.31012263052E+02  0.00000000000E+00 0.  1.
<mgrwt>
<rscale>  0 0.30237762E+04</rscale>
<asrwt>0</asrwt>
<pdfrwt beam="1">  1        2 0.37893677E+00 0.30237762E+04</pdfrwt>
<pdfrwt beam="2">  1       -2 0.14277292E+00 0.30237762E+04</pdfrwt>
<totfact> 0.10658815E+00</totfact>
</mgrwt>
</event>
<event>
12    3  0.4769008E-008  0.2453454E+04  0.7818608E-02  0.8419758E-01
         -2   -1    0    0    0  501 -0.00000000000E+00  0.00000000000E+00  0.52749675090E+03  0.52749675090E+03  0.00000000000E+00 0. -1.
          2   -1    0    0  501    0  0.00000000000E+00 -0.00000000000E+00 -0.28528311501E+04  0.28528311501E+04  0.00000000000E+00 0.  1.
         23    2    1    2    0    0  0.61027154173E+03 -0.60303396930E+03 -0.15326360744E+03  0.87631016160E+03  0.91369815478E+02 0.  0.
        254    2    1    2    0    0 -0.61027154173E+03  0.60303396930E+03 -0.21720707917E+04  0.25040177394E+04  0.90340023909E+03 0.  0.
         23    2    4    4    0    0  0.12893004478E+03 -0.12472444179E+03 -0.42710883528E+03  0.47192008322E+03  0.90041462358E+02 0.  0.
         23    2    4    4    0    0 -0.73920158651E+03  0.72775841110E+03 -0.17449619565E+04  0.20320976562E+04  0.92072603166E+02 0.  0.
          3    1    3    3  502    0  0.17256368715E+03 -0.13044370646E+03 -0.10765655656E+02  0.21658644007E+03  0.00000000000E+00 0. -1.
         -3    1    3    3    0  502  0.43770785458E+03 -0.47259026284E+03 -0.14249795179E+03  0.65972372154E+03  0.00000000000E+00 0.  1.
         13    1    5    5    0    0  0.89716313922E+02 -0.78076346621E+02 -0.16861173332E+03  0.20633673812E+03  0.00000000000E+00 0. -1.
        -13    1    5    5    0    0  0.39213730853E+02 -0.46648095172E+02 -0.25849710196E+03  0.26558334510E+03  0.00000000000E+00 0.  1.
          2    1    6    6  503    0 -0.20275132810E+03  0.20079735719E+03 -0.56337311064E+03  0.63151954957E+03  0.00000000000E+00 0.  1.
         -2    1    6    6    0  503 -0.53645025841E+03  0.52696105390E+03 -0.11815888458E+04  0.14005781066E+04  0.00000000000E+00 0. -1.
<mgrwt>
<rscale>  0 0.24534540E+04</rscale>
<asrwt>0</asrwt>
<pdfrwt beam="1">  1        2 0.43889710E+00 0.24534540E+04</pdfrwt>
<pdfrwt beam="2">  1       -2 0.81153346E-01 0.24534540E+04</pdfrwt>
<totfact> 0.25734925E+00</totfact>
</mgrwt>
</event>
<event>
12    3  0.4769008E-008  0.2553159E+04  0.7818608E-02  0.8384289E-01
         -2   -1    0    0    0  501 -0.00000000000E+00  0.00000000000E+00  0.81081053268E+03  0.81081053268E+03  0.00000000000E+00 0.  1.
          2   -1    0    0  501    0  0.00000000000E+00 -0.00000000000E+00 -0.20099080662E+04  0.20099080662E+04  0.00000000000E+00 0. -1.
         23    2    1    2    0    0 -0.15596596638E+03 -0.75772668952E+03 -0.14131288181E+04  0.16136238861E+04  0.91508854648E+02 0.  0.
        254    2    1    2    0    0  0.15596596638E+03  0.75772668952E+03  0.21403128461E+03  0.12070947128E+04  0.90155040686E+03 0.  0.
         23    2    4    4    0    0 -0.95719643371E+02  0.79754494511E+03 -0.74207439420E+02  0.81153873245E+03  0.88589957637E+02 0.  0.
         23    2    4    4    0    0  0.25168560976E+03 -0.39818255589E+02  0.28823872403E+03  0.39555598032E+03  0.91933845234E+02 0.  0.
          3    1    3    3  502    0 -0.12905487918E+03 -0.72518136329E+03 -0.13279033053E+04  0.15185092557E+04  0.00000000000E+00 0. -1.
         -3    1    3    3    0  502 -0.26911087200E+02 -0.32545326235E+02 -0.85225512814E+02  0.95114630360E+02  0.00000000000E+00 0.  1.
         13    1    5    5    0    0 -0.10885618581E+03  0.65358137126E+03 -0.45426887307E+02  0.66413995524E+03  0.00000000000E+00 0.  1.
        -13    1    5    5    0    0  0.13136542443E+02  0.14396357385E+03 -0.28780552113E+02  0.14739877721E+03  0.00000000000E+00 0. -1.
          1    1    6    6  503    0  0.14131073732E+03 -0.39099682016E+02  0.10044444097E+03  0.17772618079E+03  0.00000000000E+00 0. -1.
         -1    1    6    6    0  503  0.11037487244E+03 -0.71857357329E+00  0.18779428307E+03  0.21782979954E+03  0.00000000000E+00 0.  1.
<mgrwt>
<rscale>  0 0.25531585E+04</rscale>
<asrwt>0</asrwt>
<pdfrwt beam="1">  1        2 0.30921662E+00 0.25531585E+04</pdfrwt>
<pdfrwt beam="2">  1       -2 0.12474008E+00 0.25531585E+04</pdfrwt>
<totfact> 0.28235253E+00</totfact>
</mgrwt>
</event>
<event>
12    3  0.4769008E-008  0.1520956E+04  0.7818608E-02  0.8870636E-01
         -2   -1    0    0    0  501 -0.00000000000E+00  0.00000000000E+00  0.77560694050E+03  0.77560694050E+03  0.00000000000E+00 0. -1.
          2   -1    0    0  501    0  0.00000000000E+00 -0.00000000000E+00 -0.74564405874E+03  0.74564405874E+03  0.00000000000E+00 0.  1.
         23    2    1    2    0    0  0.15432491648E+03 -0.44359479114E+03 -0.14190110247E+03  0.49949396239E+03  0.93625728377E+02 0.  0.
        254    2    1    2    0    0 -0.15432491648E+03  0.44359479114E+03  0.17186398423E+03  0.10217570368E+04  0.89098692173E+03 0.  0.
         23    2    4    4    0    0 -0.50141687720E+03  0.23723725415E+03  0.22392384203E+03  0.60520968887E+03  0.91850318323E+02 0.  0.
         23    2    4    4    0    0  0.34709196072E+03  0.20635753698E+03 -0.52059857799E+02  0.41654734797E+03  0.88006829534E+02 0.  0.
          3    1    3    3  502    0  0.10242342651E+03 -0.23964902764E+03 -0.33480528419E+02  0.26276065255E+03  0.00000000000E+00 0. -1.
         -3    1    3    3    0  502  0.51901489966E+02 -0.20394576350E+03 -0.10842057405E+03  0.23673330984E+03  0.00000000000E+00 0.  1.
         13    1    5    5    0    0 -0.46634702061E+03  0.23760496654E+03  0.19113190040E+03  0.55719571705E+03  0.00000000000E+00 0.  1.
        -13    1    5    5    0    0 -0.35069856591E+02 -0.36771238603E+00  0.32791941630E+02  0.48013971816E+02  0.00000000000E+00 0. -1.
          2    1    6    6  503    0  0.31953946048E+03  0.19371834500E+03 -0.71613961519E+02  0.38047447152E+03  0.00000000000E+00 0.  1.
         -2    1    6    6    0  503  0.27552500236E+02  0.12639191980E+02  0.19554103720E+02  0.36072876451E+02  0.00000000000E+00 0. -1.
<mgrwt>
<rscale>  0 0.15209559E+04</rscale>
<asrwt>0</asrwt>
<pdfrwt beam="1">  1        2 0.11471447E+00 0.15209559E+04</pdfrwt>
<pdfrwt beam="2">  1       -2 0.11932414E+00 0.15209559E+04</pdfrwt>
<totfact> 0.19627026E+01</totfact>
</mgrwt>
</event>
<event>
12    3  0.4769008E-008  0.1728822E+04  0.7818608E-02  0.8745095E-01
         -3   -1    0    0    0  501 -0.00000000000E+00  0.00000000000E+00  0.98568358913E+03  0.98568358913E+03  0.00000000000E+00 0.  1.
          3   -1    0    0  501    0  0.00000000000E+00 -0.00000000000E+00 -0.75805927901E+03  0.75805927901E+03  0.00000000000E+00 0. -1.
         23    2    1    2    0    0  0.42295906347E+03  0.35359018225E+03  0.40919125547E+03  0.69282893037E+03  0.93027183359E+02 0.  0.
        254    2    1    2    0    0 -0.42295906347E+03 -0.35359018225E+03 -0.18156694536E+03  0.10509139378E+04  0.87608970010E+03 0.  0.
         23    2    4    4    0    0 -0.39586484382E+03 -0.30050885373E+03  0.27934977437E+03  0.57746715229E+03  0.91746769871E+02 0.  0.
         23    2    4    4    0    0 -0.27094219642E+02 -0.53081328520E+02 -0.46091671973E+03  0.47344678549E+03  0.90310087987E+02 0.  0.
          4    1    3    3  502    0  0.39988913815E+02  0.35801946690E+02  0.94225186789E+01  0.54494738031E+02  0.00000000000E+00 0. -1.
         -4    1    3    3    0  502  0.38297014965E+03  0.31778823556E+03  0.39976873680E+03  0.63833419233E+03  0.00000000000E+00 0.  1.
         13    1    5    5    0    0 -0.17154889477E+03 -0.13718661501E+03  0.17564126291E+03  0.28124552240E+03  0.00000000000E+00 0.  1.
        -13    1    5    5    0    0 -0.22431594906E+03 -0.16332223872E+03  0.10370851146E+03  0.29622162988E+03  0.00000000000E+00 0. -1.
          4    1    6    6  503    0  0.45599201335E+01 -0.36557600568E+02 -0.40769683512E+03  0.40935798562E+03  0.00000000000E+00 0. -1.
         -4    1    6    6    0  503 -0.31654139775E+02 -0.16523727952E+02 -0.53219884613E+02  0.64088799869E+02  0.00000000000E+00 0.  1.
<mgrwt>
<rscale>  0 0.17288222E+04</rscale>
<asrwt>0</asrwt>
<pdfrwt beam="1">  1        3 0.11662450E+00 0.17288222E+04</pdfrwt>
<pdfrwt beam="2">  1       -3 0.15164363E+00 0.17288222E+04</pdfrwt>
<totfact> 0.47279910E-01</totfact>
</mgrwt>
</event>
<event>
12    3  0.4769008E-008  0.1886879E+04  0.7818608E-02  0.8661415E-01
         -1   -1    0    0    0  501 -0.00000000000E+00  0.00000000000E+00  0.25854468055E+03  0.25854468055E+03  0.00000000000E+00 0.  1.
          1   -1    0    0  501    0  0.00000000000E+00 -0.00000000000E+00 -0.34426463419E+04  0.34426463419E+04  0.00000000000E+00 0. -1.
         23    2    1    2    0    0 -0.15553632273E+03 -0.63255681232E+03 -0.65742019359E+03  0.93007390031E+03  0.92284779902E+02 0.  0.
        254    2    1    2    0    0  0.15553632273E+03  0.63255681232E+03 -0.25266814678E+04  0.27711171221E+04  0.93308691802E+03 0.  0.
         23    2    4    4    0    0  0.51993988375E+03  0.46579043450E+03 -0.13115624699E+04  0.14884582481E+04  0.89518893375E+02 0.  0.
         23    2    4    4    0    0 -0.36440356102E+03  0.16676637782E+03 -0.12151189978E+04  0.12826588740E+04  0.89992378358E+02 0.  0.
          4    1    3    3  502    0 -0.10398319414E+03 -0.27974051156E+03 -0.25636400137E+03  0.39343329761E+03  0.00000000000E+00 0. -1.
         -4    1    3    3    0  502 -0.51553128592E+02 -0.35281630076E+03 -0.40105619221E+03  0.53664060270E+03  0.00000000000E+00 0.  1.
         13    1    5    5    0    0  0.12926529933E+02  0.38253177098E+02 -0.83710484643E+02  0.92940012768E+02  0.00000000000E+00 0. -1.
        -13    1    5    5    0    0  0.50701335382E+03  0.42753725740E+03 -0.12278519853E+04  0.13955182353E+04  0.00000000000E+00 0.  1.
          3    1    6    6  503    0 -0.11766167529E+03  0.29577636256E+02 -0.26435666600E+03  0.29086689955E+03  0.00000000000E+00 0. -1.
         -3    1    6    6    0  503 -0.24674188572E+03  0.13718874156E+03 -0.95076233185E+03  0.99179197448E+03  0.00000000000E+00 0.  1.
<mgrwt>
<rscale>  0 0.18868788E+04</rscale>
<asrwt>0</asrwt>
<pdfrwt beam="1">  1        1 0.52963792E+00 0.18868788E+04</pdfrwt>
<pdfrwt beam="2">  1       -1 0.39776103E-01 0.18868788E+04</pdfrwt>
<totfact> 0.16059627E+00</totfact>
</mgrwt>
</event>
<event>
12    3  0.4769008E-008  0.1534499E+04  0.7818608E-02  0.8861830E-01
         -2   -1    0    0    0  501 -0.00000000000E+00  0.00000000000E+00  0.23551643517E+03  0.23551643517E+03  0.00000000000E+00 0.  1.
          2   -1    0    0  501    0  0.00000000000E+00 -0.00000000000E+00 -0.24994944915E+04  0.24994944915E+04  0.00000000000E+00 0. -1.
         23    2    1    2    0    0  0.35120697775E+03 -0.25949380764E+03 -0.11296115715E+04  0.12145465860E+04  0.91748186828E+02 0.  0.
        254    2    1    2    0    0 -0.35120697775E+03  0.25949380764E+03 -0.11343664849E+04  0.15204643407E+04  0.91342274539E+03 0.  0.
         23    2    4    4    0    0  0.24635987443E+03  0.27283595596E+03 -0.61918101478E+03  0.72596752836E+03  0.92255496177E+02 0.  0.
         23    2    4    4    0    0 -0.59756685218E+03 -0.13342148323E+02 -0.51518547012E+03  0.79449681232E+03  0.92438955100E+02 0.  0.
          3    1    3    3  502    0  0.29209055396E+03 -0.21596981080E+03 -0.10187921425E+04  0.10816178995E+04  0.00000000000E+00 0. -1.
         -3    1    3    3    0  502  0.59116423793E+02 -0.43523996835E+02 -0.11081942894E+03  0.13292868650E+03  0.00000000000E+00 0.  1.
         13    1    5    5    0    0  0.20002487663E+02  0.57884754534E+01 -0.94091042729E+01  0.22850321749E+02  0.00000000000E+00 0. -1.
        -13    1    5    5    0    0  0.22635738676E+03  0.26704748051E+03 -0.60977191051E+03  0.70311720661E+03  0.00000000000E+00 0.  1.
          2    1    6    6  503    0 -0.21611689136E+03  0.26445050217E+02 -0.22886645651E+03  0.31588875625E+03  0.00000000000E+00 0. -1.
         -2    1    6    6    0  503 -0.38144996082E+03 -0.39787198540E+02 -0.28631901360E+03  0.47860805606E+03  0.00000000000E+00 0.  1.
<mgrwt>
<rscale>  0 0.15344993E+04</rscale>
<asrwt>0</asrwt>
<pdfrwt beam="1">  1        2 0.38453763E+00 0.15344993E+04</pdfrwt>
<pdfrwt beam="2">  1       -2 0.36233296E-01 0.15344993E+04</pdfrwt>
<totfact> 0.24123025E+01</totfact>
</mgrwt>
</event>
<event>
12    3  0.4769008E-008  0.1476985E+04  0.7818608E-02  0.8899904E-01
          1   -1    0    0  501    0  0.00000000000E+00  0.00000000000E+00  0.91851107886E+03  0.91851107886E+03  0.00000000000E+00 0.  1.
         -1   -1    0    0    0  501 -0.00000000000E+00 -0.00000000000E+00 -0.59375543707E+03  0.59375543707E+03  0.00000000000E+00 0. -1.
         23    2    1    2    0    0  0.19096811478E+03 -0.37564123956E+02 -0.32324937301E+03  0.38756993213E+03  0.88546094580E+02 0.  0.
        254    2    1    2    0    0 -0.19096811478E+03  0.37564123956E+02  0.64800501481E+03  0.11246965838E+04  0.89841639685E+03 0.  0.
         23    2    4    4    0    0  0.15028535509E+03 -0.10060478127E+03 -0.14240714041E+03  0.24713612219E+03  0.89941421399E+02 0.  0.
         23    2    4    4    0    0 -0.34125346987E+03  0.13816890522E+03  0.79041215521E+03  0.87756046162E+03  0.99077805880E+02 0.  0.
          2    1    3    3  502    0  0.16111101245E+03 -0.61753135801E+02 -0.28623314194E+03  0.33421493033E+03  0.00000000000E+00 0. -1.
         -2    1    3    3    0  502  0.29857102328E+02  0.24189011845E+02 -0.37016231075E+02  0.53355001794E+02  0.00000000000E+00 0.  1.
         13    1    5    5    0    0  0.78727337871E+02 -0.10351730013E+03 -0.98332680088E+02  0.16304337192E+03  0.00000000000E+00 0. -1.
        -13    1    5    5    0    0  0.71558017219E+02  0.29125188679E+01 -0.44074460317E+02  0.84092750263E+02  0.00000000000E+00 0.  1.
          2    1    6    6  503    0 -0.25172951379E+03  0.14467649722E+03  0.57341621657E+03  0.64273259944E+03  0.00000000000E+00 0. -1.
         -2    1    6    6    0  503 -0.89523956080E+02 -0.65075920017E+01  0.21699593864E+03  0.23482786218E+03  0.00000000000E+00 0.  1.
<mgrwt>
<rscale>  0 0.14769847E+04</rscale>
<asrwt>0</asrwt>
<pdfrwt beam="1">  1        1 0.14130940E+00 0.14769847E+04</pdfrwt>
<pdfrwt beam="2">  1       -1 0.91346991E-01 0.14769847E+04</pdfrwt>
<totfact> 0.19912935E+01</totfact>
</mgrwt>
</event>
<event>
12    3  0.4769008E-008  0.1959973E+04  0.7818608E-02  0.8625567E-01
          1   -1    0    0  501    0  0.00000000000E+00  0.00000000000E+00  0.10000873971E+04  0.10000873971E+04  0.00000000000E+00 0. -1.
         -1   -1    0    0    0  501 -0.00000000000E+00 -0.00000000000E+00 -0.96028958017E+03  0.96028958017E+03  0.00000000000E+00 0.  1.
         23    2    1    2    0    0  0.23144883953E+03  0.44449303262E+03  0.58809429926E+03  0.77795427062E+03  0.90638407866E+02 0.  0.
        254    2    1    2    0    0 -0.23144883953E+03 -0.44449303262E+03 -0.54829648237E+03  0.11824227066E+04  0.91997380569E+03 0.  0.
         23    2    4    4    0    0 -0.25528332632E+03 -0.26148614918E+03  0.18589024893E+03  0.41975047742E+03  0.89948294802E+02 0.  0.
         23    2    4    4    0    0  0.23834486789E+02 -0.18300688344E+03 -0.73418673130E+03  0.76267222919E+03  0.92623812301E+02 0.  0.
          1    1    3    3  502    0  0.15882539063E+03  0.31122268658E+03  0.46999723985E+03  0.58564705311E+03  0.00000000000E+00 0. -1.
         -1    1    3    3    0  502  0.72623448900E+02  0.13327034604E+03  0.11809705941E+03  0.19230721750E+03  0.00000000000E+00 0.  1.
         13    1    5    5    0    0 -0.11526195246E+03 -0.15367045851E+03  0.54926394652E+02  0.19979198265E+03  0.00000000000E+00 0.  1.
        -13    1    5    5    0    0 -0.14002137386E+03 -0.10781569067E+03  0.13096385428E+03  0.21995849477E+03  0.00000000000E+00 0. -1.
          2    1    6    6  503    0  0.18589603308E+02 -0.17373463271E+03 -0.73094309182E+03  0.75153649242E+03  0.00000000000E+00 0.  1.
         -2    1    6    6    0  503  0.52448834818E+01 -0.92722507289E+01 -0.32436394822E+01  0.11135736770E+02  0.00000000000E+00 0. -1.
<mgrwt>
<rscale>  0 0.19599730E+04</rscale>
<asrwt>0</asrwt>
<pdfrwt beam="1">  1        1 0.15385960E+00 0.19599730E+04</pdfrwt>
<pdfrwt beam="2">  1       -1 0.14773686E+00 0.19599730E+04</pdfrwt>
<totfact> 0.51189406E+00</totfact>
</mgrwt>
</event>
<event>
12    3  0.4769008E-008  0.1462107E+04  0.7818608E-02  0.8910050E-01
         -2   -1    0    0    0  501 -0.00000000000E+00  0.00000000000E+00  0.55187864254E+03  0.55187864254E+03  0.00000000000E+00 0.  1.
          2   -1    0    0  501    0  0.00000000000E+00 -0.00000000000E+00 -0.96839974380E+03  0.96839974380E+03  0.00000000000E+00 0. -1.
         23    2    1    2    0    0 -0.15434034857E+03 -0.12317540643E+01 -0.49284567724E+03  0.52465307957E+03  0.92420408535E+02 0.  0.
        254    2    1    2    0    0  0.15434034857E+03  0.12317540643E+01  0.76324575975E+02  0.99562530677E+03  0.98062319479E+03 0.  0.
         23    2    4    4    0    0  0.20553916161E+03  0.43217206165E+03 -0.13305035772E+03  0.50518060255E+03  0.92119518423E+02 0.  0.
         23    2    4    4    0    0 -0.51198813040E+02 -0.43094030759E+03  0.20937493369E+03  0.49044470422E+03  0.91472825890E+02 0.  0.
          4    1    3    3  502    0 -0.74784818300E+02 -0.26908453240E+02 -0.35204985030E+03  0.36090986548E+03  0.00000000000E+00 0. -1.
         -4    1    3    3    0  502 -0.79555530271E+02  0.25676699176E+02 -0.14079582694E+03  0.16374321409E+03  0.00000000000E+00 0.  1.
         13    1    5    5    0    0  0.10522525120E+03  0.31910748498E+03 -0.85301340753E+02  0.34666736102E+03  0.00000000000E+00 0.  1.
        -13    1    5    5    0    0  0.10031391041E+03  0.11306457667E+03 -0.47749016967E+02  0.15851324153E+03  0.00000000000E+00 0. -1.
          3    1    6    6  503    0  0.23096002269E+01 -0.41674495530E+02  0.53199686360E+02  0.67618817349E+02  0.00000000000E+00 0. -1.
         -3    1    6    6    0  503 -0.53508413266E+02 -0.38926581206E+03  0.15617524733E+03  0.42282588687E+03  0.00000000000E+00 0.  1.
<mgrwt>
<rscale>  0 0.14621069E+04</rscale>
<asrwt>0</asrwt>
<pdfrwt beam="1">  1        2 0.14898457E+00 0.14621069E+04</pdfrwt>
<pdfrwt beam="2">  1       -2 0.84904408E-01 0.14621069E+04</pdfrwt>
<totfact> 0.30914440E+01</totfact>
</mgrwt>
</event>
<event>
12    3  0.4769008E-008  0.2238834E+04  0.7818608E-02  0.8502436E-01
         -2   -1    0    0    0  501 -0.00000000000E+00  0.00000000000E+00  0.68502930640E+03  0.68502930640E+03  0.00000000000E+00 0.  1.
          2   -1    0    0  501    0  0.00000000000E+00 -0.00000000000E+00 -0.18292573949E+04  0.18292573949E+04  0.00000000000E+00 0. -1.
         23    2    1    2    0    0  0.20968958916E+03  0.56072693933E+03  0.32548993183E+03  0.68740827412E+03  0.90564978449E+02 0.  0.
        254    2    1    2    0    0 -0.20968958916E+03 -0.56072693933E+03 -0.14697180203E+04  0.18268784272E+04  0.90500237795E+03 0.  0.
         23    2    4    4    0    0  0.16512555132E+03 -0.41642730091E+03 -0.21281590116E+03  0.50413799020E+03  0.90478509791E+02 0.  0.
         23    2    4    4    0    0 -0.37481514048E+03 -0.14429963841E+03 -0.12569021192E+04  0.13227404369E+04  0.92360983306E+02 0.  0.
          3    1    3    3  502    0  0.14575449337E+01 -0.27983970385E+01 -0.14148096765E+01  0.34579111671E+01  0.00000000000E+00 0. -1.
         -3    1    3    3    0  502  0.20823204423E+03  0.56352533636E+03  0.32690474150E+03  0.68395036295E+03  0.00000000000E+00 0.  1.
         13    1    5    5    0    0  0.13477777231E+03 -0.38486505072E+03 -0.16667894122E+03  0.44053152512E+03  0.00000000000E+00 0. -1.
        -13    1    5    5    0    0  0.30347779016E+02 -0.31562250189E+02 -0.46136959937E+02  0.63606465084E+02  0.00000000000E+00 0.  1.
          2    1    6    6  503    0 -0.15531556012E+03 -0.47627083962E+02 -0.65418603694E+03  0.67405536365E+03  0.00000000000E+00 0. -1.
         -2    1    6    6    0  503 -0.21949958036E+03 -0.96672554451E+02 -0.60271608221E+03  0.64868507330E+03  0.00000000000E+00 0.  1.
<mgrwt>
<rscale>  0 0.22388345E+04</rscale>
<asrwt>0</asrwt>
<pdfrwt beam="1">  1        2 0.28142422E+00 0.22388345E+04</pdfrwt>
<pdfrwt beam="2">  1       -2 0.10538912E+00 0.22388345E+04</pdfrwt>
<totfact> 0.55179146E+00</totfact>
</mgrwt>
</event>
<event>
12    3  0.4769008E-008  0.2156925E+04  0.7818608E-02  0.8536574E-01
         -2   -1    0    0    0  501 -0.00000000000E+00  0.00000000000E+00  0.11925332930E+04  0.11925332930E+04  0.00000000000E+00 0. -1.
          2   -1    0    0  501    0  0.00000000000E+00 -0.00000000000E+00 -0.97530305042E+03  0.97530305042E+03  0.00000000000E+00 0.  1.
         23    2    1    2    0    0 -0.58859721107E+03 -0.46469130757E+03  0.56687426367E+03  0.94447535796E+03  0.91118509536E+02 0.  0.
        254    2    1    2    0    0  0.58859721107E+03  0.46469130757E+03 -0.34964402105E+03  0.12233609855E+04  0.90109737053E+03 0.  0.
         23    2    4    4    0    0  0.26180830483E+03 -0.23677494978E+03  0.10227449743E+02  0.36510409662E+03  0.92684601299E+02 0.  0.
         23    2    4    4    0    0  0.32678890623E+03  0.70146625735E+03 -0.35987147080E+03  0.85825688888E+03  0.90837835660E+02 0.  0.
          4    1    3    3  502    0 -0.16164283666E+03 -0.13865540009E+03  0.11234297204E+03  0.24077929725E+03  0.00000000000E+00 0. -1.
         -4    1    3    3    0  502 -0.42695437440E+03 -0.32603590749E+03  0.45453129163E+03  0.70369606072E+03  0.00000000000E+00 0.  1.
         13    1    5    5    0    0  0.18386578415E+03 -0.21610325994E+03 -0.63409367059E+00  0.28373869600E+03  0.00000000000E+00 0. -1.
        -13    1    5    5    0    0  0.77942520688E+02 -0.20671689840E+02  0.10861543413E+02  0.81365400615E+02  0.00000000000E+00 0.  1.
          1    1    6    6  503    0  0.30369720673E+03  0.61066091960E+03 -0.28871513942E+03  0.74060460695E+03  0.00000000000E+00 0. -1.
         -1    1    6    6    0  503  0.23091699497E+02  0.90805337743E+02 -0.71156331372E+02  0.11765228193E+03  0.00000000000E+00 0.  1.
<mgrwt>
<rscale>  0 0.21569250E+04</rscale>
<asrwt>0</asrwt>
<pdfrwt beam="1">  1        2 0.15004662E+00 0.21569250E+04</pdfrwt>
<pdfrwt beam="2">  1       -2 0.18346666E+00 0.21569250E+04</pdfrwt>
<totfact> 0.41133753E+00</totfact>
</mgrwt>
</event>
<event>
12    3  0.4769008E-008  0.2378503E+04  0.7818608E-02  0.8447596E-01
         -1   -1    0    0    0  501 -0.00000000000E+00  0.00000000000E+00  0.80791549804E+03  0.80791549804E+03  0.00000000000E+00 0. -1.
          1   -1    0    0  501    0  0.00000000000E+00 -0.00000000000E+00 -0.17505777297E+04  0.17505777297E+04  0.00000000000E+00 0.  1.
         23    2    1    2    0    0 -0.26350075290E+03 -0.86260748927E+03  0.10217891690E+03  0.91255131456E+03  0.93728561903E+02 0.  0.
        254    2    1    2    0    0  0.26350075290E+03  0.86260748927E+03 -0.10448411486E+04  0.16459419132E+04  0.89660884927E+03 0.  0.
         23    2    4    4    0    0  0.35812957731E+03  0.78632568744E+03 -0.11657849047E+04  0.14537199364E+04  0.87648893659E+02 0.  0.
         23    2    4    4    0    0 -0.94628824403E+02  0.76281801826E+02  0.12094375613E+03  0.19222197681E+03  0.86881347388E+02 0.  0.
          1    1    3    3  502    0 -0.19360961241E+03 -0.68116063651E+03  0.11616737389E+03  0.71760668441E+03  0.00000000000E+00 0. -1.
         -1    1    3    3    0  502 -0.69891140492E+02 -0.18144685275E+03 -0.13988456988E+02  0.19494463015E+03  0.00000000000E+00 0.  1.
         13    1    5    5    0    0  0.35769778349E+03  0.78639306272E+03 -0.11672547935E+04  0.14521864572E+04  0.00000000000E+00 0. -1.
        -13    1    5    5    0    0  0.43179381644E+00 -0.67375281556E-01  0.14698888247E+01  0.15334792094E+01  0.00000000000E+00 0.  1.
          3    1    6    6  503    0 -0.77931400851E+02  0.68924465657E+02  0.13410124493E+03  0.16972633589E+03  0.00000000000E+00 0. -1.
         -3    1    6    6    0  503 -0.16697423552E+02  0.73573361687E+01 -0.13157488797E+02  0.22495640916E+02  0.00000000000E+00 0.  1.
<mgrwt>
<rscale>  0 0.23785028E+04</rscale>
<asrwt>0</asrwt>
<pdfrwt beam="1">  1        1 0.26931965E+00 0.23785028E+04</pdfrwt>
<pdfrwt beam="2">  1       -1 0.12429469E+00 0.23785028E+04</pdfrwt>
<totfact> 0.22429426E+00</totfact>
</mgrwt>
</event>
<event>
12    3  0.4769008E-008  0.1982013E+04  0.7818608E-02  0.8615077E-01
         -1   -1    0    0    0  501 -0.00000000000E+00  0.00000000000E+00  0.67310164779E+03  0.67310164779E+03  0.00000000000E+00 0.  1.
          1   -1    0    0  501    0  0.00000000000E+00 -0.00000000000E+00 -0.14590570704E+04  0.14590570704E+04  0.00000000000E+00 0. -1.
         23    2    1    2    0    0  0.23385953508E+03  0.13580628475E+03 -0.11017720537E+04  0.11380783856E+04  0.90482728448E+02 0.  0.
        254    2    1    2    0    0 -0.23385953508E+03 -0.13580628475E+03  0.31581663110E+03  0.99408033266E+03  0.90295178951E+03 0.  0.
         23    2    4    4    0    0  0.73501081113E+02  0.29178559331E+03  0.33745808721E+03  0.45915140913E+03  0.80005090438E+02 0.  0.
         23    2    4    4    0    0 -0.30736061620E+03 -0.42759187806E+03 -0.21641456108E+02  0.53492892353E+03  0.91516326605E+02 0.  0.
          2    1    3    3  502    0  0.20424820047E+03  0.10709784826E+03 -0.77125019645E+03  0.80499325589E+03  0.00000000000E+00 0. -1.
         -2    1    3    3    0  502  0.29611334614E+02  0.28708436488E+02 -0.33052185729E+03  0.33308512967E+03  0.00000000000E+00 0.  1.
         13    1    5    5    0    0  0.40574522435E+02  0.44524461078E+02  0.47873598908E+02  0.76945441564E+02  0.00000000000E+00 0.  1.
        -13    1    5    5    0    0  0.32926558678E+02  0.24726113223E+03  0.28958448830E+03  0.38220596757E+03  0.00000000000E+00 0. -1.
          3    1    6    6  503    0 -0.93331408674E+02 -0.19984063019E+03 -0.27977684350E+02  0.22232809121E+03  0.00000000000E+00 0. -1.
         -3    1    6    6    0  503 -0.21402920752E+03 -0.22775124787E+03  0.63362282427E+01  0.31260083232E+03  0.00000000000E+00 0.  1.
<mgrwt>
<rscale>  0 0.19820128E+04</rscale>
<asrwt>0</asrwt>
<pdfrwt beam="1">  1        1 0.22447032E+00 0.19820128E+04</pdfrwt>
<pdfrwt beam="2">  1       -1 0.10355410E+00 0.19820128E+04</pdfrwt>
<totfact> 0.57062089E+00</totfact>
</mgrwt>
</event>
<event>
12    3  0.4769008E-008  0.1429879E+04  0.7818608E-02  0.8932470E-01
          1   -1    0    0  501    0  0.00000000000E+00  0.00000000000E+00  0.60993792720E+03  0.60993792720E+03  0.00000000000E+00 0. -1.
         -1   -1    0    0    0  501 -0.00000000000E+00 -0.00000000000E+00 -0.83801683551E+03  0.83801683551E+03  0.00000000000E+00 0.  1.
         23    2    1    2    0    0 -0.87135691000E+02 -0.35923634119E+03  0.65147431500E+02  0.38628277511E+03  0.91251394730E+02 0.  0.
        254    2    1    2    0    0  0.87135691000E+02  0.35923634119E+03 -0.29322633980E+03  0.10616719876E+04  0.95106379671E+03 0.  0.
         23    2    4    4    0    0  0.46561320960E+03  0.37691395123E+03 -0.62506959612E+02  0.60889246673E+03  0.89348354479E+02 0.  0.
         23    2    4    4    0    0 -0.37847751860E+03 -0.17677610036E+02 -0.23071938019E+03  0.45277952087E+03  0.90664944384E+02 0.  0.
          2    1    3    3  502    0 -0.80801209845E+02 -0.33852391888E+03  0.35888010454E+02  0.34987887684E+03  0.00000000000E+00 0. -1.
         -2    1    3    3    0  502 -0.63344811555E+01 -0.20712422314E+02  0.29259421046E+02  0.36403898274E+02  0.00000000000E+00 0.  1.
         13    1    5    5    0    0  0.11242495546E+02  0.33067850364E+02 -0.11647513947E+02  0.36817672590E+02  0.00000000000E+00 0.  1.
        -13    1    5    5    0    0  0.45437071406E+03  0.34384610086E+03 -0.50859445665E+02  0.57207479414E+03  0.00000000000E+00 0. -1.
          1    1    6    6  503    0 -0.28532094979E+03 -0.35967955596E+02 -0.20869171063E+03  0.35532234423E+03  0.00000000000E+00 0. -1.
         -1    1    6    6    0  503 -0.93156568811E+02  0.18290345560E+02 -0.22027669558E+02  0.97457176645E+02  0.00000000000E+00 0.  1.
<mgrwt>
<rscale>  0 0.14298787E+04</rscale>
<asrwt>0</asrwt>
<pdfrwt beam="1">  1        1 0.93836605E-01 0.14298787E+04</pdfrwt>
<pdfrwt beam="2">  1       -1 0.12892567E+00 0.14298787E+04</pdfrwt>
<totfact> 0.16851975E+01</totfact>
</mgrwt>
</event>
<event>
12    3  0.4769008E-008  0.5154333E+04  0.7818608E-02  0.7805131E-01
          2   -1    0    0  501    0  0.00000000000E+00  0.00000000000E+00  0.35932051232E+04  0.35932051232E+04  0.00000000000E+00 0.  1.
         -2   -1    0    0    0  501 -0.00000000000E+00 -0.00000000000E+00 -0.18484297240E+04  0.18484297240E+04  0.00000000000E+00 0. -1.
         23    2    1    2    0    0 -0.86965209468E+03 -0.16640003976E+04 -0.89235844580E+03  0.20808012982E+04  0.90765401447E+02 0.  0.
        254    2    1    2    0    0  0.86965209468E+03  0.16640003976E+04  0.26371338449E+04  0.33608335490E+04  0.90306984167E+03 0.  0.
         23    2    4    4    0    0  0.15222030718E+03  0.12169212416E+04  0.14593354295E+04  0.19082785536E+04  0.88310881926E+02 0.  0.
         23    2    4    4    0    0  0.71743178749E+03  0.44707915594E+03  0.11777984154E+04  0.14525549954E+04  0.90104195197E+02 0.  0.
          3    1    3    3  502    0 -0.81826943996E+03 -0.15120204409E+04 -0.81094735907E+03  0.19008961858E+04  0.00000000000E+00 0. -1.
         -3    1    3    3    0  502 -0.51382654714E+02 -0.15197995666E+03 -0.81411086727E+02  0.17990511242E+03  0.00000000000E+00 0.  1.
         13    1    5    5    0    0  0.27304141842E+02  0.33322565919E+03  0.34229551158E+03  0.47848832102E+03  0.00000000000E+00 0. -1.
        -13    1    5    5    0    0  0.12491616534E+03  0.88369558242E+03  0.11170399180E+04  0.14297902325E+04  0.00000000000E+00 0.  1.
          1    1    6    6  503    0  0.38587797716E+03  0.28798536357E+03  0.70032562873E+03  0.84987844374E+03  0.00000000000E+00 0. -1.
         -1    1    6    6    0  503  0.33155381033E+03  0.15909379237E+03  0.47747278666E+03  0.60267655165E+03  0.00000000000E+00 0.  1.
<mgrwt>
<rscale>  0 0.51543330E+04</rscale>
<asrwt>0</asrwt>
<pdfrwt beam="1">  1        2 0.55280079E+00 0.51543330E+04</pdfrwt>
<pdfrwt beam="2">  1       -2 0.28437380E+00 0.51543330E+04</pdfrwt>
<totfact> 0.19837747E-02</totfact>
</mgrwt>
</event>
<event>
12    3  0.4769008E-008  0.2180213E+04  0.7818608E-02  0.8526709E-01
          2   -1    0    0  501    0  0.00000000000E+00  0.00000000000E+00  0.10217367978E+04  0.10217367978E+04  0.00000000000E+00 0.  1.
         -2   -1    0    0    0  501 -0.00000000000E+00 -0.00000000000E+00 -0.11630515275E+04  0.11630515275E+04  0.00000000000E+00 0. -1.
         23    2    1    2    0    0 -0.49430640993E+03  0.16466528921E+03 -0.80131575496E+03  0.96017847458E+03  0.91554789763E+02 0.  0.
        254    2    1    2    0    0  0.49430640993E+03 -0.16466528921E+03  0.66000102529E+03  0.12246098508E+04  0.89028896928E+03 0.  0.
         23    2    4    4    0    0  0.58022818896E+03 -0.31391295932E+03  0.15425878353E+03  0.68276369194E+03  0.84642716447E+02 0.  0.
         23    2    4    4    0    0 -0.85921779026E+02  0.14924767011E+03  0.50574224176E+03  0.54184615882E+03  0.90358317730E+02 0.  0.
          2    1    3    3  502    0 -0.22865598805E+03  0.70166462420E+02 -0.45090948810E+03  0.51041773067E+03  0.00000000000E+00 0. -1.
         -2    1    3    3    0  502 -0.26565042188E+03  0.94498826788E+02 -0.35040626686E+03  0.44976074391E+03  0.00000000000E+00 0.  1.
         13    1    5    5    0    0  0.55665122445E+03 -0.27823357382E+03  0.14592457186E+03  0.63919362321E+03  0.00000000000E+00 0.  1.
        -13    1    5    5    0    0  0.23576964507E+02 -0.35679385496E+02  0.83342116717E+01  0.43570068727E+02  0.00000000000E+00 0. -1.
          3    1    6    6  503    0  0.16412747972E+02  0.34199988707E+02  0.13920688221E+03  0.14428296358E+03  0.00000000000E+00 0. -1.
         -3    1    6    6    0  503 -0.10233452700E+03  0.11504768140E+03  0.36653535954E+03  0.39756319524E+03  0.00000000000E+00 0.  1.
<mgrwt>
<rscale>  0 0.21802133E+04</rscale>
<asrwt>0</asrwt>
<pdfrwt beam="1">  1        2 0.15719028E+00 0.21802133E+04</pdfrwt>
<pdfrwt beam="2">  1       -2 0.17893100E+00 0.21802133E+04</pdfrwt>
<totfact> 0.41185272E+00</totfact>
</mgrwt>
</event>
<event>
12    3  0.4769008E-008  0.1444069E+04  0.7818608E-02  0.8922523E-01
          1   -1    0    0  501    0  0.00000000000E+00  0.00000000000E+00  0.44116248064E+03  0.44116248064E+03  0.00000000000E+00 0. -1.
         -1   -1    0    0    0  501 -0.00000000000E+00 -0.00000000000E+00 -0.11817277239E+04  0.11817277239E+04  0.00000000000E+00 0.  1.
         23    2    1    2    0    0 -0.35601269358E+02  0.18149422225E+03  0.21211431632E+03  0.29628363453E+03  0.92649370302E+02 0.  0.
        254    2    1    2    0    0  0.35601269358E+02 -0.18149422225E+03 -0.95267955961E+03  0.13266065700E+04  0.90447722208E+03 0.  0.
         23    2    4    4    0    0  0.81438492604E+02 -0.36396444380E+03 -0.36051796492E+02  0.38528469615E+03  0.89678428987E+02 0.  0.
         23    2    4    4    0    0 -0.45837223246E+02  0.18247022155E+03 -0.91662776312E+03  0.94132187388E+03  0.10239131478E+03 0.  0.
          3    1    3    3  502    0  0.28857648148E+02  0.85740484890E+02  0.79122952311E+02  0.12018584022E+03  0.00000000000E+00 0. -1.
         -3    1    3    3    0  502 -0.64458917506E+02  0.95753737357E+02  0.13299136401E+03  0.17609779432E+03  0.00000000000E+00 0.  1.
         13    1    5    5    0    0  0.79617345867E+01 -0.23423832340E+03 -0.26942386754E+02  0.23591709046E+03  0.00000000000E+00 0. -1.
        -13    1    5    5    0    0  0.73476758017E+02 -0.12972612040E+03 -0.91094097383E+01  0.14936760569E+03  0.00000000000E+00 0.  1.
          1    1    6    6  503    0  0.14201340434E+02  0.59140318251E+02 -0.47512442867E+03  0.47900154283E+03  0.00000000000E+00 0. -1.
         -1    1    6    6    0  503 -0.60038563680E+02  0.12332990330E+03 -0.44150333445E+03  0.46232033105E+03  0.00000000000E+00 0.  1.
<mgrwt>
<rscale>  0 0.14440692E+04</rscale>
<asrwt>0</asrwt>
<pdfrwt beam="1">  1        1 0.67871152E-01 0.14440692E+04</pdfrwt>
<pdfrwt beam="2">  1       -1 0.18180426E+00 0.14440692E+04</pdfrwt>
<totfact> 0.10322649E+01</totfact>
</mgrwt>
</event>
<event>
12    3  0.4769008E-008  0.2067542E+04  0.7818608E-02  0.8575678E-01
         -2   -1    0    0    0  501 -0.00000000000E+00  0.00000000000E+00  0.32838155184E+03  0.32838155184E+03  0.00000000000E+00 0.  1.
          2   -1    0    0  501    0  0.00000000000E+00 -0.00000000000E+00 -0.32543937279E+04  0.32543937279E+04  0.00000000000E+00 0. -1.
         23    2    1    2    0    0  0.81957062574E+03  0.12821348305E+03 -0.13841678046E+04  0.16164795600E+04  0.94609453724E+02 0.  0.
        254    2    1    2    0    0 -0.81957062574E+03 -0.12821348305E+03 -0.15418443715E+04  0.19662957198E+04  0.89493021177E+03 0.  0.
         23    2    4    4    0    0 -0.21799733906E+03  0.33660464641E+03 -0.31221362845E+03  0.51773855110E+03  0.98743757683E+02 0.  0.
         23    2    4    4    0    0 -0.60157328668E+03 -0.46481812945E+03 -0.12296307431E+04  0.14485571687E+04  0.91541214844E+02 0.  0.
          1    1    3    3  502    0  0.61798595858E+03  0.12417508219E+03 -0.98791450721E+03  0.11718793323E+04  0.00000000000E+00 0. -1.
         -1    1    3    3    0  502  0.20158466717E+03  0.40384008593E+01 -0.39625329739E+03  0.44460022763E+03  0.00000000000E+00 0.  1.
         13    1    5    5    0    0 -0.18368888690E+03  0.32042462311E+03 -0.25398039090E+03  0.44824054394E+03  0.00000000000E+00 0. -1.
        -13    1    5    5    0    0 -0.34308452157E+02  0.16180023292E+02 -0.58233237550E+02  0.69498007156E+02  0.00000000000E+00 0.  1.
          3    1    6    6  503    0 -0.34899357317E+03 -0.26776969544E+03 -0.62462455572E+03  0.76397183163E+03  0.00000000000E+00 0. -1.
         -3    1    6    6    0  503 -0.25257971351E+03 -0.19704843401E+03 -0.60500618734E+03  0.68458533707E+03  0.00000000000E+00 0.  1.
<mgrwt>
<rscale>  0 0.20675424E+04</rscale>
<asrwt>0</asrwt>
<pdfrwt beam="1">  1        2 0.50067596E+00 0.20675424E+04</pdfrwt>
<pdfrwt beam="2">  1       -2 0.50520238E-01 0.20675424E+04</pdfrwt>
<totfact> 0.41020527E+00</totfact>
</mgrwt>
</event>
<event>
12    3  0.4769008E-008  0.1529782E+04  0.7818608E-02  0.8864886E-01
          1   -1    0    0  501    0  0.00000000000E+00  0.00000000000E+00  0.13181444880E+04  0.13181444880E+04  0.00000000000E+00 0. -1.
         -1   -1    0    0    0  501 -0.00000000000E+00 -0.00000000000E+00 -0.44384995092E+03  0.44384995092E+03  0.00000000000E+00 0.  1.
         23    2    1    2    0    0 -0.27466509637E+02 -0.38773130286E+03  0.64810667285E+03  0.76135932617E+03  0.92389348905E+02 0.  0.
        254    2    1    2    0    0  0.27466509637E+02  0.38773130286E+03  0.22618786423E+03  0.10006351127E+04  0.89387902233E+03 0.  0.
         23    2    4    4    0    0 -0.24970797484E+03  0.69856734363E+02 -0.24053572086E+03  0.36525415658E+03  0.91209264090E+02 0.  0.
         23    2    4    4    0    0  0.27717448447E+03  0.31787456849E+03  0.46672358508E+03  0.63538095616E+03  0.89488091051E+02 0.  0.
          3    1    3    3  502    0 -0.44073607376E+02 -0.32588960284E+03  0.58703754315E+03  0.67287412878E+03  0.00000000000E+00 0. -1.
         -3    1    3    3    0  502  0.16607097739E+02 -0.61841700017E+02  0.61069129699E+02  0.88485197397E+02  0.00000000000E+00 0.  1.
         13    1    5    5    0    0 -0.65661750309E+02  0.29418071507E+02 -0.12497037809E+03  0.14420292572E+03  0.00000000000E+00 0.  1.
        -13    1    5    5    0    0 -0.18404622453E+03  0.40438662856E+02 -0.11556534277E+03  0.22105123086E+03  0.00000000000E+00 0. -1.
          1    1    6    6  503    0  0.55488004790E+02  0.30174505378E+02  0.38909001532E+02  0.74184431323E+02  0.00000000000E+00 0. -1.
         -1    1    6    6    0  503  0.22168647968E+03  0.28770006312E+03  0.42781458355E+03  0.56119652484E+03  0.00000000000E+00 0.  1.
<mgrwt>
<rscale>  0 0.15297822E+04</rscale>
<asrwt>0</asrwt>
<pdfrwt beam="1">  1        1 0.20279146E+00 0.15297822E+04</pdfrwt>
<pdfrwt beam="2">  1       -1 0.68284608E-01 0.15297822E+04</pdfrwt>
<totfact> 0.18393102E+01</totfact>
</mgrwt>
</event>
<event>
12    3  0.4769008E-008  0.1470164E+04  0.7818608E-02  0.8904539E-01
         -1   -1    0    0    0  501 -0.00000000000E+00  0.00000000000E+00  0.64393293326E+03  0.64393293326E+03  0.00000000000E+00 0.  1.
          1   -1    0    0  501    0  0.00000000000E+00 -0.00000000000E+00 -0.83913365724E+03  0.83913365724E+03  0.00000000000E+00 0. -1.
         23    2    1    2    0    0 -0.14152976688E+03  0.29051996486E+02  0.37021783141E+03  0.40842974054E+03  0.94228004602E+02 0.  0.
        254    2    1    2    0    0  0.14152976688E+03 -0.29051996486E+02 -0.56541855540E+03  0.10746368500E+04  0.90236994802E+03 0.  0.
         23    2    4    4    0    0  0.11770848822E+03 -0.44900093289E+03 -0.20649342712E+03  0.51415474716E+03  0.79110319480E+02 0.  0.
         23    2    4    4    0    0  0.23821278658E+02  0.41994893640E+03 -0.35892512828E+03  0.56048210280E+03  0.91588085144E+02 0.  0.
          4    1    3    3  502    0 -0.57602509948E+02  0.36317155520E+02  0.26518179181E+03  0.27378525827E+03  0.00000000000E+00 0.  1.
         -4    1    3    3    0  502 -0.83927256930E+02 -0.72651590342E+01  0.10503603960E+03  0.13464448228E+03  0.00000000000E+00 0. -1.
         13    1    5    5    0    0 -0.11004060201E+02 -0.25560553330E+02 -0.17820583731E+02  0.33045490343E+02  0.00000000000E+00 0.  1.
        -13    1    5    5    0    0  0.12871254842E+03 -0.42344037956E+03 -0.18867284338E+03  0.48110925682E+03  0.00000000000E+00 0. -1.
          1    1    6    6  503    0  0.34999963201E+02  0.34638067731E+03 -0.33278296377E+03  0.48161091351E+03  0.00000000000E+00 0. -1.
         -1    1    6    6    0  503 -0.11178684543E+02  0.73568259093E+02 -0.26142164515E+02  0.78871189287E+02  0.00000000000E+00 0.  1.
<mgrwt>
<rscale>  0 0.14701643E+04</rscale>
<asrwt>0</asrwt>
<pdfrwt beam="1">  1        1 0.12909748E+00 0.14701643E+04</pdfrwt>
<pdfrwt beam="2">  1       -1 0.99066606E-01 0.14701643E+04</pdfrwt>
<totfact> 0.19323625E+01</totfact>
</mgrwt>
</event>
<event>
12    3  0.4769008E-008  0.1767304E+04  0.7818608E-02  0.8723883E-01
         -1   -1    0    0    0  501 -0.00000000000E+00  0.00000000000E+00  0.27624468631E+03  0.27624468631E+03  0.00000000000E+00 0.  1.
          1   -1    0    0  501    0  0.00000000000E+00 -0.00000000000E+00 -0.28266271219E+04  0.28266271219E+04  0.00000000000E+00 0. -1.
         23    2    1    2    0    0 -0.41407791881E+03  0.16511335806E+03 -0.12264776732E+03  0.47110372331E+03  0.90406301951E+02 0.  0.
        254    2    1    2    0    0  0.41407791881E+03 -0.16511335806E+03 -0.24277346683E+04  0.26317680849E+04  0.91300859213E+03 0.  0.
         23    2    4    4    0    0  0.52577993005E+03 -0.43450499981E+02 -0.64184629359E+03  0.83593040821E+03  0.92089641028E+02 0.  0.
         23    2    4    4    0    0 -0.11170201123E+03 -0.12166285808E+03 -0.17858883747E+04  0.17958376767E+04  0.91413805528E+02 0.  0.
          1    1    3    3  502    0 -0.53545631450E+02 -0.33045251501E+01  0.32143262928E+01  0.53743710584E+02  0.00000000000E+00 0. -1.
         -1    1    3    3    0  502 -0.36053228736E+03  0.16841788321E+03 -0.12586209361E+03  0.41736001273E+03  0.00000000000E+00 0.  1.
         13    1    5    5    0    0  0.20685242677E+03 -0.58804266332E+02 -0.23112056410E+03  0.31569381265E+03  0.00000000000E+00 0.  1.
        -13    1    5    5    0    0  0.31892750328E+03  0.15353766350E+02 -0.41072572949E+03  0.52023659556E+03  0.00000000000E+00 0. -1.
          3    1    6    6  503    0 -0.93412912140E+02 -0.11163684477E+03 -0.17311708146E+04  0.17372798124E+04  0.00000000000E+00 0. -1.
         -3    1    6    6    0  503 -0.18289099095E+02 -0.10026013315E+02 -0.54717560137E+02  0.58557864340E+02  0.00000000000E+00 0.  1.
<mgrwt>
<rscale>  0 0.17673038E+04</rscale>
<asrwt>0</asrwt>
<pdfrwt beam="1">  1        1 0.43486573E+00 0.17673038E+04</pdfrwt>
<pdfrwt beam="2">  1       -1 0.42499181E-01 0.17673038E+04</pdfrwt>
<totfact> 0.41219027E+00</totfact>
</mgrwt>
</event>
<event>
12    3  0.4769008E-008  0.1882857E+04  0.7818608E-02  0.8663437E-01
          1   -1    0    0  501    0  0.00000000000E+00  0.00000000000E+00  0.12337448643E+04  0.12337448643E+04  0.00000000000E+00 0. -1.
         -1   -1    0    0    0  501 -0.00000000000E+00 -0.00000000000E+00 -0.71837218621E+03  0.71837218621E+03  0.00000000000E+00 0.  1.
         23    2    1    2    0    0  0.54483555549E+03 -0.25188696230E+03 -0.21579927409E+03  0.64451916169E+03  0.92427262144E+02 0.  0.
        254    2    1    2    0    0 -0.54483555549E+03  0.25188696230E+03  0.73117195222E+03  0.13075978889E+04  0.90272198983E+03 0.  0.
         23    2    4    4    0    0  0.93656009646E+02 -0.32744472808E+02 -0.13514420761E+03  0.19147059679E+03  0.92484506491E+02 0.  0.
         23    2    4    4    0    0 -0.63849156513E+03  0.28463143511E+03  0.86631615983E+03  0.11161272921E+04  0.80931518560E+02 0.  0.
          3    1    3    3  502    0  0.19257588469E+03 -0.59451269411E+02 -0.36171110342E+02  0.20476394708E+03  0.00000000000E+00 0. -1.
         -3    1    3    3    0  502  0.35225967080E+03 -0.19243569289E+03 -0.17962816375E+03  0.43975521461E+03  0.00000000000E+00 0.  1.
         13    1    5    5    0    0  0.91901656544E+02 -0.47204327206E+02 -0.14180799348E+03  0.17545275717E+03  0.00000000000E+00 0.  1.
        -13    1    5    5    0    0  0.17543531011E+01  0.14459854397E+02  0.66637858687E+01  0.16017839620E+02  0.00000000000E+00 0. -1.
          1    1    6    6  503    0 -0.13074373634E+02 -0.49569379578E+01  0.24019169654E+02  0.27792642744E+02  0.00000000000E+00 0. -1.
         -1    1    6    6    0  503 -0.62541719150E+03  0.28958837307E+03  0.84229699018E+03  0.10883346493E+04  0.00000000000E+00 0.  1.
<mgrwt>
<rscale>  0 0.18828574E+04</rscale>
<asrwt>0</asrwt>
<pdfrwt beam="1">  1        1 0.18980690E+00 0.18828574E+04</pdfrwt>
<pdfrwt beam="2">  1       -1 0.11051880E+00 0.18828574E+04</pdfrwt>
<totfact> 0.71408227E+00</totfact>
</mgrwt>
</event>
<event>
12    3  0.4769008E-008  0.1918923E+04  0.7818608E-02  0.8645494E-01
          2   -1    0    0  501    0  0.00000000000E+00  0.00000000000E+00  0.14396022535E+04  0.14396022535E+04  0.00000000000E+00 0. -1.
         -2   -1    0    0    0  501 -0.00000000000E+00 -0.00000000000E+00 -0.63945857526E+03  0.63945857526E+03  0.00000000000E+00 0.  1.
         23    2    1    2    0    0 -0.27919672298E+03  0.40510643015E+03 -0.29256512924E+03  0.58001916666E+03  0.93626112685E+02 0.  0.
        254    2    1    2    0    0  0.27919672298E+03 -0.40510643015E+03  0.10927088074E+04  0.14990416621E+04  0.90058388665E+03 0.  0.
         23    2    4    4    0    0  0.32630980176E+02 -0.65434027362E+03  0.64577627556E+03  0.92438759110E+03  0.90771393924E+02 0.  0.
         23    2    4    4    0    0  0.24656574281E+03  0.24923384347E+03  0.44693253188E+03  0.57465407097E+03  0.86985280209E+02 0.  0.
          2    1    3    3  502    0 -0.21612073404E+02  0.89622077931E+02 -0.71051290791E+02  0.11639366174E+03  0.00000000000E+00 0. -1.
         -2    1    3    3    0  502 -0.25758464958E+03  0.31548435222E+03 -0.22151383845E+03  0.46362550492E+03  0.00000000000E+00 0.  1.
         13    1    5    5    0    0  0.24827332144E+02 -0.53288202338E+02  0.40816521228E+02  0.71568270448E+02  0.00000000000E+00 0.  1.
        -13    1    5    5    0    0  0.78036480320E+01 -0.60105207128E+03  0.60495975433E+03  0.85281932065E+03  0.00000000000E+00 0. -1.
          3    1    6    6  503    0  0.10247147871E+03  0.48030672785E+02  0.15548082446E+03  0.19230610040E+03  0.00000000000E+00 0.  1.
         -3    1    6    6    0  503  0.14409426410E+03  0.20120317069E+03  0.29145170742E+03  0.38234797057E+03  0.00000000000E+00 0. -1.
<mgrwt>
<rscale>  0 0.19189226E+04</rscale>
<asrwt>0</asrwt>
<pdfrwt beam="1">  1        2 0.22147727E+00 0.19189226E+04</pdfrwt>
<pdfrwt beam="2">  1       -2 0.98378243E-01 0.19189226E+04</pdfrwt>
<totfact> 0.11029728E+01</totfact>
</mgrwt>
</event>
<event>
12    3  0.4769008E-008  0.1624413E+04  0.7818608E-02  0.8805689E-01
         -1   -1    0    0    0  501 -0.00000000000E+00  0.00000000000E+00  0.35646015182E+03  0.35646015182E+03  0.00000000000E+00 0. -1.
          1   -1    0    0  501    0  0.00000000000E+00 -0.00000000000E+00 -0.18506392223E+04  0.18506392223E+04  0.00000000000E+00 0.  1.
         23    2    1    2    0    0  0.10461467094E+03 -0.13963708105E+03 -0.12108715304E+04  0.12270764862E+04  0.95205545815E+02 0.  0.
        254    2    1    2    0    0 -0.10461467094E+03  0.13963708105E+03 -0.28330754008E+03  0.98002288796E+03  0.92181286326E+03 0.  0.
         23    2    4    4    0    0 -0.36202385935E+03  0.27601868849E+03  0.11647619049E+03  0.47671591215E+03  0.80273076497E+02 0.  0.
         23    2    4    4    0    0  0.25740918840E+03 -0.13638160744E+03 -0.39978373057E+03  0.50330697581E+03  0.92905584080E+02 0.  0.
          2    1    3    3  502    0  0.55350394662E+02 -0.21021273432E+02 -0.21671277624E+03  0.22465526371E+03  0.00000000000E+00 0. -1.
         -2    1    3    3    0  502  0.49264276281E+02 -0.11861580761E+03 -0.99415875416E+03  0.10024212224E+04  0.00000000000E+00 0.  1.
         13    1    5    5    0    0 -0.81729994527E+02  0.56510776855E+02 -0.77046228297E+01  0.99662536186E+02  0.00000000000E+00 0. -1.
        -13    1    5    5    0    0 -0.28029386482E+03  0.21950791163E+03  0.12418081332E+03  0.37705337596E+03  0.00000000000E+00 0.  1.
          1    1    6    6  503    0  0.56032194605E+02 -0.59185857779E+02 -0.16788668351E+03  0.18662398317E+03  0.00000000000E+00 0. -1.
         -1    1    6    6    0  503  0.20137699380E+03 -0.77195749663E+02 -0.23189704706E+03  0.31668299265E+03  0.00000000000E+00 0.  1.
<mgrwt>
<rscale>  0 0.16244127E+04</rscale>
<asrwt>0</asrwt>
<pdfrwt beam="1">  1        1 0.28471372E+00 0.16244127E+04</pdfrwt>
<pdfrwt beam="2">  1       -1 0.54840025E-01 0.16244127E+04</pdfrwt>
<totfact> 0.12111743E+01</totfact>
</mgrwt>
</event>
<event>
12    3  0.4769008E-008  0.1614252E+04  0.7818608E-02  0.8811840E-01
          1   -1    0    0  501    0  0.00000000000E+00  0.00000000000E+00  0.28145868918E+04  0.28145868918E+04  0.00000000000E+00 0. -1.
         -1   -1    0    0    0  501 -0.00000000000E+00 -0.00000000000E+00 -0.23145590329E+03  0.23145590329E+03  0.00000000000E+00 0.  1.
         23    2    1    2    0    0 -0.23876901019E+03  0.51348225832E+03  0.10924487388E+04  0.12335193557E+04  0.86319661601E+02 0.  0.
        254    2    1    2    0    0  0.23876901019E+03 -0.51348225832E+03  0.14906822497E+04  0.18125234394E+04  0.86164550665E+03 0.  0.
         23    2    4    4    0    0 -0.21265606617E+03 -0.11403484549E+02  0.78940620729E+02  0.24449929921E+03  0.90529794967E+02 0.  0.
         23    2    4    4    0    0  0.45142507635E+03 -0.50207877377E+03  0.14117416290E+04  0.15680241402E+04  0.99083715920E+02 0.  0.
          1    1    3    3  502    0  0.25646159814E+01  0.50482981320E+02  0.10477726193E+03  0.11633307043E+03  0.00000000000E+00 0. -1.
         -1    1    3    3    0  502 -0.24133362617E+03  0.46299927700E+03  0.98767147691E+03  0.11171862852E+04  0.00000000000E+00 0.  1.
         13    1    5    5    0    0 -0.10981387161E+03 -0.51104124531E+02  0.43685640170E+02  0.12876006019E+03  0.00000000000E+00 0. -1.
        -13    1    5    5    0    0 -0.10284219455E+03  0.39700639981E+02  0.35254980558E+02  0.11573923902E+03  0.00000000000E+00 0.  1.
          2    1    6    6  503    0  0.76775437675E+02 -0.43908724413E+02  0.14508617794E+03  0.16991893049E+03  0.00000000000E+00 0. -1.
         -2    1    6    6    0  503  0.37464963868E+03 -0.45817004936E+03  0.12666554510E+04  0.13981052097E+04  0.00000000000E+00 0.  1.
<mgrwt>
<rscale>  0 0.16142525E+04</rscale>
<asrwt>0</asrwt>
<pdfrwt beam="1">  1        1 0.43301335E+00 0.16142525E+04</pdfrwt>
<pdfrwt beam="2">  1       -1 0.35608602E-01 0.16142525E+04</pdfrwt>
<totfact> 0.58876143E+00</totfact>
</mgrwt>
</event>
<event>
12    3  0.4769008E-008  0.1416528E+04  0.7818608E-02  0.8941941E-01
          1   -1    0    0  501    0  0.00000000000E+00  0.00000000000E+00  0.10058800251E+04  0.10058800251E+04  0.00000000000E+00 0. -1.
         -1   -1    0    0    0  501 -0.00000000000E+00 -0.00000000000E+00 -0.49870548845E+03  0.49870548845E+03  0.00000000000E+00 0.  1.
         23    2    1    2    0    0 -0.40962000489E+03  0.53699536336E+02  0.24516962994E+03  0.48971428264E+03  0.95077560822E+02 0.  0.
        254    2    1    2    0    0  0.40962000489E+03 -0.53699536336E+02  0.26200490667E+03  0.10148712309E+04  0.88918212731E+03 0.  0.
         23    2    4    4    0    0  0.10708494680E+03  0.97496417130E+02  0.54117612974E+03  0.56707324662E+03  0.87907487998E+02 0.  0.
         23    2    4    4    0    0  0.30253505809E+03 -0.15119595347E+03 -0.27917122307E+03  0.44779798425E+03  0.90547143504E+02 0.  0.
          4    1    3    3  502    0 -0.38223266566E+03  0.30196762728E+02  0.20177772692E+03  0.43327578545E+03  0.00000000000E+00 0.  1.
         -4    1    3    3    0  502 -0.27387339224E+02  0.23502773608E+02  0.43391903024E+02  0.56438497190E+02  0.00000000000E+00 0. -1.
         13    1    5    5    0    0  0.10023837212E+03  0.75149096859E+02  0.30477076087E+03  0.32951530266E+03  0.00000000000E+00 0.  1.
        -13    1    5    5    0    0  0.68465746755E+01  0.22347320271E+02  0.23640536887E+03  0.23755794396E+03  0.00000000000E+00 0. -1.
          1    1    6    6  503    0  0.18906649065E+03 -0.46690834655E+02 -0.13793099000E+03  0.23864435868E+03  0.00000000000E+00 0. -1.
         -1    1    6    6    0  503  0.11346856744E+03 -0.10450511881E+03 -0.14124023306E+03  0.20915362557E+03  0.00000000000E+00 0.  1.
<mgrwt>
<rscale>  0 0.14165280E+04</rscale>
<asrwt>0</asrwt>
<pdfrwt beam="1">  1        1 0.15475077E+00 0.14165280E+04</pdfrwt>
<pdfrwt beam="2">  1       -1 0.76723922E-01 0.14165280E+04</pdfrwt>
<totfact> 0.24856302E+01</totfact>
</mgrwt>
</event>
<event>
12    3  0.4769008E-008  0.3731911E+04  0.7818608E-02  0.8060926E-01
         -3   -1    0    0    0  501 -0.00000000000E+00  0.00000000000E+00  0.23856235182E+04  0.23856235182E+04  0.00000000000E+00 0.  1.
          3   -1    0    0  501    0  0.00000000000E+00 -0.00000000000E+00 -0.14594886221E+04  0.14594886221E+04  0.00000000000E+00 0. -1.
         23    2    1    2    0    0  0.81827093795E+03 -0.13262469145E+04 -0.30055924394E+03  0.15897474182E+04  0.91993415897E+02 0.  0.
        254    2    1    2    0    0 -0.81827093795E+03  0.13262469145E+04  0.12266941401E+04  0.22553647220E+04  0.10739615031E+04 0.  0.
         23    2    4    4    0    0 -0.63613604757E+03  0.27256913426E+03  0.10968702759E+03  0.70647401640E+03  0.90062688528E+02 0.  0.
         23    2    4    4    0    0 -0.18213489038E+03  0.10536777802E+04  0.11170071125E+04  0.15488907056E+04  0.89149009652E+02 0.  0.
          2    1    3    3  502    0  0.32631187332E+03 -0.60436412616E+03 -0.15540941059E+03  0.70419281490E+03  0.00000000000E+00 0.  1.
         -2    1    3    3    0  502  0.49195906462E+03 -0.72188278832E+03 -0.14514983336E+03  0.88555460332E+03  0.00000000000E+00 0. -1.
         13    1    5    5    0    0 -0.18095800935E+03  0.34681215071E+02  0.24790305137E+02  0.18591166466E+03  0.00000000000E+00 0.  1.
        -13    1    5    5    0    0 -0.45517803822E+03  0.23788791919E+03  0.84896722456E+02  0.52056235175E+03  0.00000000000E+00 0. -1.
          3    1    6    6  503    0 -0.16608978920E+03  0.84383751004E+03  0.93813756957E+03  0.12726938598E+04  0.00000000000E+00 0. -1.
         -3    1    6    6    0  503 -0.16045101180E+02  0.20984027017E+03  0.17886954290E+03  0.27619684581E+03  0.00000000000E+00 0.  1.
<mgrwt>
<rscale>  0 0.37319112E+04</rscale>
<asrwt>0</asrwt>
<pdfrwt beam="1">  1        3 0.22453671E+00 0.37319112E+04</pdfrwt>
<pdfrwt beam="2">  1       -3 0.36701900E+00 0.37319112E+04</pdfrwt>
<totfact> 0.34865667E-03</totfact>
</mgrwt>
</event>
<event>
12    3  0.4769008E-008  0.1593756E+04  0.7818608E-02  0.8824393E-01
         -1   -1    0    0    0  501 -0.00000000000E+00  0.00000000000E+00  0.38460316752E+03  0.38460316752E+03  0.00000000000E+00 0.  1.
          1   -1    0    0  501    0  0.00000000000E+00 -0.00000000000E+00 -0.16510900808E+04  0.16510900808E+04  0.00000000000E+00 0. -1.
         23    2    1    2    0    0  0.67778898436E+02 -0.45232165240E+03 -0.79819655441E+03  0.92464911116E+03  0.93109521511E+02 0.  0.
        254    2    1    2    0    0 -0.67778898436E+02  0.45232165240E+03 -0.46829035886E+03  0.11110441372E+04  0.89773846871E+03 0.  0.
         23    2    4    4    0    0  0.31687188934E+03  0.51077911339E+03 -0.28328473478E+03  0.67066493361E+03  0.90764063892E+02 0.  0.
         23    2    4    4    0    0 -0.38465078777E+03 -0.58457460990E+02 -0.18500562409E+03  0.44037920354E+03  0.91286684074E+02 0.  0.
          3    1    3    3  502    0  0.82434973822E+02 -0.38446003746E+03 -0.62930002458E+03  0.74204013790E+03  0.00000000000E+00 0. -1.
         -3    1    3    3    0  502 -0.14656075386E+02 -0.67861614933E+02 -0.16889652983E+03  0.18260897326E+03  0.00000000000E+00 0.  1.
         13    1    5    5    0    0  0.10444599289E+03  0.10570934874E+03 -0.47079966224E+02  0.15588442854E+03  0.00000000000E+00 0.  1.
        -13    1    5    5    0    0  0.21242589644E+03  0.40506976465E+03 -0.23620476855E+03  0.51478050507E+03  0.00000000000E+00 0. -1.
          1    1    6    6  503    0 -0.29550708231E+03 -0.66631069392E+02 -0.10585746913E+03  0.32088929380E+03  0.00000000000E+00 0. -1.
         -1    1    6    6    0  503 -0.89143705465E+02  0.81736084017E+01 -0.79148154953E+02  0.11948990975E+03  0.00000000000E+00 0.  1.
<mgrwt>
<rscale>  0 0.15937559E+04</rscale>
<asrwt>0</asrwt>
<pdfrwt beam="1">  1        1 0.25401386E+00 0.15937559E+04</pdfrwt>
<pdfrwt beam="2">  1       -1 0.59169719E-01 0.15937559E+04</pdfrwt>
<totfact> 0.14307583E+01</totfact>
</mgrwt>
</event>
<event>
12    3  0.4769008E-008  0.2094192E+04  0.7818608E-02  0.8563806E-01
          1   -1    0    0  501    0  0.00000000000E+00  0.00000000000E+00  0.70766734213E+03  0.70766734213E+03  0.00000000000E+00 0. -1.
         -1   -1    0    0    0  501 -0.00000000000E+00 -0.00000000000E+00 -0.15493293635E+04  0.15493293635E+04  0.00000000000E+00 0.  1.
         23    2    1    2    0    0  0.62132512348E+03 -0.48856271794E+03  0.10156392654E+02  0.79577615194E+03  0.91750167528E+02 0.  0.
        254    2    1    2    0    0 -0.62132512348E+03  0.48856271794E+03 -0.85181841400E+03  0.14612205537E+04  0.88590770265E+03 0.  0.
         23    2    4    4    0    0 -0.32884383231E+03 -0.14651282990E+03 -0.61409407716E+03  0.71735579966E+03  0.88789257918E+02 0.  0.
         23    2    4    4    0    0 -0.29248129117E+03  0.63507554785E+03 -0.23772433684E+03  0.74386475402E+03  0.89194477304E+02 0.  0.
          3    1    3    3  502    0  0.40174309157E+03 -0.29016307445E+03  0.45875542887E+02  0.49769135701E+03  0.00000000000E+00 0. -1.
         -3    1    3    3    0  502  0.21958203191E+03 -0.19839964349E+03 -0.35719150233E+02  0.29808479493E+03  0.00000000000E+00 0.  1.
         13    1    5    5    0    0 -0.14498635188E+03 -0.67913954143E+02 -0.18981499976E+03  0.24832052177E+03  0.00000000000E+00 0. -1.
        -13    1    5    5    0    0 -0.18385748043E+03 -0.78598875761E+02 -0.42427907741E+03  0.46903527789E+03  0.00000000000E+00 0.  1.
          4    1    6    6  503    0 -0.24325049768E+03  0.54322654890E+03 -0.23411832453E+03  0.63959149301E+03  0.00000000000E+00 0. -1.
         -4    1    6    6    0  503 -0.49230793494E+02  0.91848998947E+02 -0.36060123065E+01  0.10427326100E+03  0.00000000000E+00 0.  1.
<mgrwt>
<rscale>  0 0.20941918E+04</rscale>
<asrwt>0</asrwt>
<pdfrwt beam="1">  1        1 0.10887190E+00 0.20941918E+04</pdfrwt>
<pdfrwt beam="2">  1       -1 0.23835836E+00 0.20941918E+04</pdfrwt>
<totfact> 0.20490440E+00</totfact>
</mgrwt>
</event>
<event>
12    3  0.4769008E-008  0.1585056E+04  0.7818608E-02  0.8829782E-01
          1   -1    0    0  501    0  0.00000000000E+00  0.00000000000E+00  0.73285526896E+03  0.73285526896E+03  0.00000000000E+00 0. -1.
         -1   -1    0    0    0  501 -0.00000000000E+00 -0.00000000000E+00 -0.85705950912E+03  0.85705950912E+03  0.00000000000E+00 0.  1.
         23    2    1    2    0    0  0.23302934175E+03  0.47022208021E+03 -0.26180669895E+02  0.53334812076E+03  0.91451143290E+02 0.  0.
        254    2    1    2    0    0 -0.23302934175E+03 -0.47022208021E+03 -0.98023570268E+02  0.10565666573E+04  0.91176367671E+03 0.  0.
         23    2    4    4    0    0 -0.35472002018E+03  0.16265401092E+03 -0.27581254994E+01  0.39868689312E+03  0.81615020094E+02 0.  0.
         23    2    4    4    0    0  0.12169067843E+03 -0.63287609114E+03 -0.95265444769E+02  0.65787976419E+03  0.91594274988E+02 0.  0.
          2    1    3    3  502    0  0.17378598633E+03  0.32018844939E+03  0.22072912548E+02  0.36497866463E+03  0.00000000000E+00 0. -1.
         -2    1    3    3    0  502  0.59243355414E+02  0.15003363083E+03 -0.48253582443E+02  0.16836945613E+03  0.00000000000E+00 0.  1.
         13    1    5    5    0    0 -0.31755429822E+03  0.13009998985E+03  0.21102742978E+02  0.34381981537E+03  0.00000000000E+00 0.  1.
        -13    1    5    5    0    0 -0.37165721957E+02  0.32554021076E+02 -0.23860868477E+02  0.54867077754E+02  0.00000000000E+00 0. -1.
          1    1    6    6  503    0  0.25710970201E+02 -0.32773472786E+02 -0.17549875611E+02  0.45201246013E+02  0.00000000000E+00 0. -1.
         -1    1    6    6    0  503  0.95979708230E+02 -0.60010261835E+03 -0.77715569158E+02  0.61267851818E+03  0.00000000000E+00 0.  1.
<mgrwt>
<rscale>  0 0.15850559E+04</rscale>
<asrwt>0</asrwt>
<pdfrwt beam="1">  1        1 0.11274696E+00 0.15850559E+04</pdfrwt>
<pdfrwt beam="2">  1       -1 0.13185531E+00 0.15850559E+04</pdfrwt>
<totfact> 0.11936327E+01</totfact>
</mgrwt>
</event>
<event>
12    3  0.4769008E-008  0.1802849E+04  0.7818608E-02  0.8704786E-01
          1   -1    0    0  501    0  0.00000000000E+00  0.00000000000E+00  0.36929203787E+04  0.36929203787E+04  0.00000000000E+00 0. -1.
         -1   -1    0    0    0  501 -0.00000000000E+00 -0.00000000000E+00 -0.22003347609E+03  0.22003347609E+03  0.00000000000E+00 0.  1.
         23    2    1    2    0    0  0.29538501882E+03 -0.38294305296E+03  0.23345972377E+04  0.23859099028E+04  0.91236565239E+02 0.  0.
        254    2    1    2    0    0 -0.29538501882E+03  0.38294305296E+03  0.11382896649E+04  0.15270439520E+04  0.89569089474E+03 0.  0.
         23    2    4    4    0    0 -0.20400837441E+03  0.42317709422E+03  0.11115634912E+03  0.49145607950E+03  0.92060166311E+02 0.  0.
         23    2    4    4    0    0 -0.91376644404E+02 -0.40234041265E+02  0.10271333158E+04  0.10355878725E+04  0.86434507102E+02 0.  0.
          3    1    3    3  502    0  0.23564100306E+03 -0.26192664915E+03  0.18280157574E+04  0.18616589003E+04  0.00000000000E+00 0. -1.
         -3    1    3    3    0  502  0.59744015760E+02 -0.12101640381E+03  0.50658148031E+03  0.52425100248E+03  0.00000000000E+00 0.  1.
         13    1    5    5    0    0 -0.20192064268E+03  0.33976899500E+03  0.94358695997E+02  0.40634773214E+03  0.00000000000E+00 0.  1.
        -13    1    5    5    0    0 -0.20877317280E+01  0.83408099217E+02  0.16797653119E+02  0.85108347352E+02  0.00000000000E+00 0. -1.
          3    1    6    6  503    0 -0.23740425762E+02 -0.13775136848E+02  0.62956468581E+02  0.68679539506E+02  0.00000000000E+00 0. -1.
         -3    1    6    6    0  503 -0.67636218642E+02 -0.26458904417E+02  0.96417684722E+03  0.96690833299E+03  0.00000000000E+00 0.  1.
<mgrwt>
<rscale>  0 0.18028490E+04</rscale>
<asrwt>0</asrwt>
<pdfrwt beam="1">  1        1 0.56814155E+00 0.18028490E+04</pdfrwt>
<pdfrwt beam="2">  1       -1 0.33851307E-01 0.18028490E+04</pdfrwt>
<totfact> 0.13701123E+00</totfact>
</mgrwt>
</event>
<event>
12    3  0.4769008E-008  0.1754487E+04  0.7818608E-02  0.8730884E-01
          1   -1    0    0  501    0  0.00000000000E+00  0.00000000000E+00  0.20133123577E+04  0.20133123577E+04  0.00000000000E+00 0. -1.
         -1   -1    0    0    0  501 -0.00000000000E+00 -0.00000000000E+00 -0.38223404141E+03  0.38223404141E+03  0.00000000000E+00 0.  1.
         23    2    1    2    0    0 -0.53451557386E+01 -0.44459117654E+03 -0.30428433737E+02  0.45444700583E+03  0.88917414392E+02 0.  0.
        254    2    1    2    0    0  0.53451557386E+01  0.44459117654E+03  0.16615067500E+04  0.19410993933E+04  0.89976235154E+03 0.  0.
         23    2    4    4    0    0  0.23290916603E+03  0.62566461124E+03  0.13287033852E+04  0.14898000071E+04  0.91370070441E+02 0.  0.
         23    2    4    4    0    0 -0.22756401029E+03 -0.18107343470E+03  0.33280336479E+03  0.45129938620E+03  0.91324086832E+02 0.  0.
          1    1    3    3  502    0  0.19400319664E+01 -0.65140512378E+02  0.27121690198E+02  0.70587790418E+02  0.00000000000E+00 0. -1.
         -1    1    3    3    0  502 -0.72851877049E+01 -0.37945066416E+03 -0.57550123934E+02  0.38385921541E+03  0.00000000000E+00 0.  1.
         13    1    5    5    0    0  0.17367754413E+03  0.44496736904E+03  0.85546422738E+03  0.97978512602E+03  0.00000000000E+00 0.  1.
        -13    1    5    5    0    0  0.59231621899E+02  0.18069724220E+03  0.47323915783E+03  0.51001488103E+03  0.00000000000E+00 0. -1.
          4    1    6    6  503    0 -0.69874439079E+02 -0.10724142565E+02  0.56997320003E+02  0.90808253798E+02  0.00000000000E+00 0. -1.
         -4    1    6    6    0  503 -0.15768957121E+03 -0.17034929213E+03  0.27580604478E+03  0.36049113240E+03  0.00000000000E+00 0.  1.
<mgrwt>
<rscale>  0 0.17544874E+04</rscale>
<asrwt>0</asrwt>
<pdfrwt beam="1">  1        1 0.30974036E+00 0.17544874E+04</pdfrwt>
<pdfrwt beam="2">  1       -1 0.58805238E-01 0.17544874E+04</pdfrwt>
<totfact> 0.81045083E+00</totfact>
</mgrwt>
</event>
<event>
12    3  0.4769008E-008  0.1805065E+04  0.7818608E-02  0.8703610E-01
          2   -1    0    0  501    0  0.00000000000E+00  0.00000000000E+00  0.14493487942E+04  0.14493487942E+04  0.00000000000E+00 0.  1.
         -2   -1    0    0    0  501 -0.00000000000E+00 -0.00000000000E+00 -0.56202146121E+03  0.56202146121E+03  0.00000000000E+00 0. -1.
         23    2    1    2    0    0  0.63150202123E+03 -0.27185064565E+02  0.59608790463E+03  0.87358883657E+03  0.91119892325E+02 0.  0.
        254    2    1    2    0    0 -0.63150202123E+03  0.27185064565E+02  0.29123942837E+03  0.11377814189E+04  0.90010683917E+03 0.  0.
         23    2    4    4    0    0  0.45316895486E+02  0.28924748470E+03  0.26653035547E+03  0.40587049149E+03  0.89301159284E+02 0.  0.
         23    2    4    4    0    0 -0.67681891671E+03 -0.26206242014E+03  0.24709072898E+02  0.73191092737E+03  0.91227787743E+02 0.  0.
          3    1    3    3  502    0  0.11834113510E+03 -0.29700104492E+02  0.15227891437E+03  0.19512967028E+03  0.00000000000E+00 0. -1.
         -3    1    3    3    0  502  0.51316088612E+03  0.25150399267E+01  0.44380899026E+03  0.67845916628E+03  0.00000000000E+00 0.  1.
         13    1    5    5    0    0  0.18828975014E+02  0.45442064264E+02  0.85503465583E+01  0.49926144763E+02  0.00000000000E+00 0. -1.
        -13    1    5    5    0    0  0.26487920473E+02  0.24380542044E+03  0.25798000892E+03  0.35594434673E+03  0.00000000000E+00 0.  1.
          4    1    6    6  503    0 -0.23572928410E+03 -0.79673643158E+02  0.50505124962E+02  0.25390343134E+03  0.00000000000E+00 0. -1.
         -4    1    6    6    0  503 -0.44108963261E+03 -0.18238877698E+03 -0.25796052064E+02  0.47800749603E+03  0.00000000000E+00 0.  1.
<mgrwt>
<rscale>  0 0.18050652E+04</rscale>
<asrwt>0</asrwt>
<pdfrwt beam="1">  1        2 0.22297674E+00 0.18050652E+04</pdfrwt>
<pdfrwt beam="2">  1       -2 0.86464841E-01 0.18050652E+04</pdfrwt>
<totfact> 0.14830904E+01</totfact>
</mgrwt>
</event>
<event>
12    3  0.4769008E-008  0.1416040E+04  0.7818608E-02  0.8942289E-01
          2   -1    0    0  501    0  0.00000000000E+00  0.00000000000E+00  0.13797903655E+04  0.13797903655E+04  0.00000000000E+00 0. -1.
         -2   -1    0    0    0  501 -0.00000000000E+00 -0.00000000000E+00 -0.36331042730E+03  0.36331042730E+03  0.00000000000E+00 0.  1.
         23    2    1    2    0    0 -0.42204756318E+02 -0.39627158891E+02  0.79709043458E+03  0.80440139541E+03  0.91416031752E+02 0.  0.
        254    2    1    2    0    0  0.42204756318E+02  0.39627158891E+02  0.21938950362E+03  0.93869939738E+03  0.91086401354E+03 0.  0.
         23    2    4    4    0    0 -0.32812436293E+03 -0.25868306258E+03  0.87554027538E+02  0.43653461389E+03  0.91182437866E+02 0.  0.
         23    2    4    4    0    0  0.37032911925E+03  0.29831022147E+03  0.13183547608E+03  0.50216478349E+03  0.93038874853E+02 0.  0.
          2    1    3    3  502    0 -0.33547491844E+02  0.24996250955E+02  0.37098466290E+03  0.37333613123E+03  0.00000000000E+00 0. -1.
         -2    1    3    3    0  502 -0.86572644732E+01 -0.64623409846E+02  0.42610577168E+03  0.43106526418E+03  0.00000000000E+00 0.  1.
         13    1    5    5    0    0 -0.20517868121E+03 -0.21490660896E+03  0.63318640295E+02  0.30379662935E+03  0.00000000000E+00 0.  1.
        -13    1    5    5    0    0 -0.12294568172E+03 -0.43776453620E+02  0.24235387242E+02  0.13273798454E+03  0.00000000000E+00 0. -1.
          3    1    6    6  503    0  0.14303916102E+03  0.84360400280E+02  0.84908264611E+02  0.18651083647E+03  0.00000000000E+00 0. -1.
         -3    1    6    6    0  503  0.22728995822E+03  0.21394982119E+03  0.46927211473E+02  0.31565394702E+03  0.00000000000E+00 0.  1.
<mgrwt>
<rscale>  0 0.14160399E+04</rscale>
<asrwt>0</asrwt>
<pdfrwt beam="1">  1        2 0.21227544E+00 0.14160399E+04</pdfrwt>
<pdfrwt beam="2">  1       -2 0.55893912E-01 0.14160399E+04</pdfrwt>
<totfact> 0.43429995E+01</totfact>
</mgrwt>
</event>
<event>
12    3  0.4769008E-008  0.2072982E+04  0.7818608E-02  0.8573239E-01
         -2   -1    0    0    0  501 -0.00000000000E+00  0.00000000000E+00  0.10277152797E+04  0.10277152797E+04  0.00000000000E+00 0.  1.
          2   -1    0    0  501    0  0.00000000000E+00 -0.00000000000E+00 -0.10453415125E+04  0.10453415125E+04  0.00000000000E+00 0. -1.
         23    2    1    2    0    0  0.67729223940E+03  0.25437648326E+03 -0.44134252342E+03  0.85236226917E+03  0.91137490340E+02 0.  0.
        254    2    1    2    0    0 -0.67729223940E+03 -0.25437648326E+03  0.42371629062E+03  0.12206945230E+04  0.88720203490E+03 0.  0.
         23    2    4    4    0    0  0.62282043243E+01  0.11975123834E+03  0.40942338876E+03  0.43660680184E+03  0.92837699973E+02 0.  0.
         23    2    4    4    0    0 -0.68352044372E+03 -0.37412772159E+03  0.14292901858E+02  0.78408772115E+03  0.86125015869E+02 0.  0.
          2    1    3    3  502    0  0.39807371860E+03  0.19698383478E+03 -0.26985091372E+03  0.51969686572E+03  0.00000000000E+00 0. -1.
         -2    1    3    3    0  502  0.27921852080E+03  0.57392648480E+02 -0.17149160970E+03  0.33266540345E+03  0.00000000000E+00 0.  1.
         13    1    5    5    0    0  0.34851330496E+01  0.13220482708E+03  0.39830970943E+03  0.41969141888E+03  0.00000000000E+00 0.  1.
        -13    1    5    5    0    0  0.27430712747E+01 -0.12453588739E+02  0.11113679338E+02  0.16915382968E+02  0.00000000000E+00 0. -1.
          4    1    6    6  503    0 -0.58553413138E+03 -0.33531420666E+03  0.38866793695E+02  0.67586719394E+03  0.00000000000E+00 0.  1.
         -4    1    6    6    0  503 -0.97986312345E+02 -0.38813514940E+02 -0.24573891837E+02  0.10822052721E+03  0.00000000000E+00 0. -1.
<mgrwt>
<rscale>  0 0.20729819E+04</rscale>
<asrwt>0</asrwt>
<pdfrwt beam="1">  1        2 0.16082177E+00 0.20729819E+04</pdfrwt>
<pdfrwt beam="2">  1       -2 0.15811004E+00 0.20729819E+04</pdfrwt>
<totfact> 0.56623201E+00</totfact>
</mgrwt>
</event>
<event>
12    3  0.4769008E-008  0.3325144E+04  0.7818608E-02  0.8156527E-01
          1   -1    0    0  501    0  0.00000000000E+00  0.00000000000E+00  0.17540253796E+04  0.17540253796E+04  0.00000000000E+00 0. -1.
         -1   -1    0    0    0  501 -0.00000000000E+00 -0.00000000000E+00 -0.15758866416E+04  0.15758866416E+04  0.00000000000E+00 0.  1.
         23    2    1    2    0    0  0.80581509448E+03  0.12649823097E+04 -0.27193179356E+03  0.15270758580E+04  0.92171389984E+02 0.  0.
        254    2    1    2    0    0 -0.80581509448E+03 -0.12649823097E+04  0.45007053155E+03  0.18028361633E+04  0.89338487667E+03 0.  0.
         23    2    4    4    0    0 -0.72092464889E+03 -0.11505242050E+04  0.41502591660E+02  0.13613509374E+04  0.90086701293E+02 0.  0.
         23    2    4    4    0    0 -0.84890445591E+02 -0.11445810469E+03  0.40856793989E+03  0.44148522594E+03  0.87603639958E+02 0.  0.
          4    1    3    3  502    0  0.41405920405E+02  0.10083505133E+03 -0.55393099096E+01  0.10914596546E+03  0.00000000000E+00 0. -1.
         -4    1    3    3    0  502  0.76440917408E+03  0.11641472584E+04 -0.26639248365E+03  0.14179298925E+04  0.00000000000E+00 0.  1.
         13    1    5    5    0    0 -0.50661824971E+02 -0.11042778070E+03 -0.16638511723E+02  0.12262852577E+03  0.00000000000E+00 0.  1.
        -13    1    5    5    0    0 -0.67026282392E+03 -0.10400964243E+04  0.58141103383E+02  0.12387224116E+04  0.00000000000E+00 0. -1.
          4    1    6    6  503    0 -0.80129273943E+02 -0.12082909499E+03  0.40856992109E+03  0.43353171874E+03  0.00000000000E+00 0. -1.
         -4    1    6    6    0  503 -0.47611716481E+01  0.63709902965E+01 -0.19811957348E-02  0.79535071978E+01  0.00000000000E+00 0.  1.
<mgrwt>
<rscale>  0 0.33251437E+04</rscale>
<asrwt>0</asrwt>
<pdfrwt beam="1">  1        1 0.26985006E+00 0.33251437E+04</pdfrwt>
<pdfrwt beam="2">  1       -1 0.24244410E+00 0.33251437E+04</pdfrwt>
<totfact> 0.28321971E-01</totfact>
</mgrwt>
</event>
<event>
12    3  0.4769008E-008  0.1400892E+04  0.7818608E-02  0.8953173E-01
         -1   -1    0    0    0  501 -0.00000000000E+00  0.00000000000E+00  0.77252294617E+03  0.77252294617E+03  0.00000000000E+00 0.  1.
          1   -1    0    0  501    0  0.00000000000E+00 -0.00000000000E+00 -0.63509384449E+03  0.63509384449E+03  0.00000000000E+00 0. -1.
         23    2    1    2    0    0  0.11911668380E+03 -0.36979398130E+03 -0.66779537467E+02  0.40534685698E+03  0.94393828577E+02 0.  0.
        254    2    1    2    0    0 -0.11911668380E+03  0.36979398130E+03  0.20420863915E+03  0.10022699337E+04  0.90105908723E+03 0.  0.
         23    2    4    4    0    0 -0.31453473914E+03  0.21422070762E+03 -0.25830407473E+03  0.46855696666E+03  0.89454023300E+02 0.  0.
         23    2    4    4    0    0  0.19541805534E+03  0.15557327368E+03  0.46251271388E+03  0.53371296702E+03  0.92413531623E+02 0.  0.
          3    1    3    3  502    0  0.12146271864E+03 -0.33133779015E+03 -0.84598907821E+02  0.36289791733E+03  0.00000000000E+00 0. -1.
         -3    1    3    3    0  502 -0.23460348383E+01 -0.38456191150E+02  0.17819370354E+02  0.42448939645E+02  0.00000000000E+00 0.  1.
         13    1    5    5    0    0 -0.13346884509E+03  0.14423653878E+03 -0.13900860624E+03  0.24071041593E+03  0.00000000000E+00 0. -1.
        -13    1    5    5    0    0 -0.18106589405E+03  0.69984168839E+02 -0.11929546848E+03  0.22784655073E+03  0.00000000000E+00 0.  1.
          2    1    6    6  503    0  0.17943029577E+03  0.94112701031E+02  0.36097929822E+03  0.41395468989E+03  0.00000000000E+00 0. -1.
         -2    1    6    6    0  503  0.15987759573E+02  0.61460572648E+02  0.10153341566E+03  0.11975827713E+03  0.00000000000E+00 0.  1.
<mgrwt>
<rscale>  0 0.14008920E+04</rscale>
<asrwt>0</asrwt>
<pdfrwt beam="1">  1        1 0.97706745E-01 0.14008920E+04</pdfrwt>
<pdfrwt beam="2">  1       -1 0.11884968E+00 0.14008920E+04</pdfrwt>
<totfact> 0.19486595E+01</totfact>
</mgrwt>
</event>
<event>
12    3  0.4769008E-008  0.1318660E+04  0.7818608E-02  0.9014897E-01
          2   -1    0    0  501    0  0.00000000000E+00  0.00000000000E+00  0.14220345993E+04  0.14220345993E+04  0.00000000000E+00 0. -1.
         -2   -1    0    0    0  501 -0.00000000000E+00 -0.00000000000E+00 -0.30570002504E+03  0.30570002504E+03  0.00000000000E+00 0.  1.
         23    2    1    2    0    0  0.25614771640E+03  0.22817083339E+03  0.28575445675E+03  0.45566116359E+03  0.91092835181E+02 0.  0.
        254    2    1    2    0    0 -0.25614771640E+03 -0.22817083339E+03  0.83058011749E+03  0.12720734607E+04  0.90035214005E+03 0.  0.
         23    2    4    4    0    0  0.32935446451E+03 -0.76232112158E+02  0.26252825298E+03  0.43739069959E+03  0.90021343310E+02 0.  0.
         23    2    4    4    0    0 -0.58550218091E+03 -0.15193872123E+03  0.56805186451E+03  0.83468276114E+03  0.90078921568E+02 0.  0.
          1    1    3    3  502    0  0.17195634017E+03  0.14357291372E+03  0.23874212091E+03  0.32738351329E+03  0.00000000000E+00 0. -1.
         -1    1    3    3    0  502  0.84191376227E+02  0.84597919677E+02  0.47012335845E+02  0.12827765030E+03  0.00000000000E+00 0.  1.
         13    1    5    5    0    0  0.13549259396E+03 -0.77229542869E+02  0.11939753590E+03  0.19641389179E+03  0.00000000000E+00 0.  1.
        -13    1    5    5    0    0  0.19386187055E+03  0.99743071054E+00  0.14313071708E+03  0.24097680779E+03  0.00000000000E+00 0. -1.
          2    1    6    6  503    0 -0.38244715122E+03 -0.13516757247E+03  0.34415190510E+03  0.53195547737E+03  0.00000000000E+00 0. -1.
         -2    1    6    6    0  503 -0.20305502970E+03 -0.16771148764E+02  0.22389995941E+03  0.30272728377E+03  0.00000000000E+00 0.  1.
<mgrwt>
<rscale>  0 0.13186599E+04</rscale>
<asrwt>0</asrwt>
<pdfrwt beam="1">  1        2 0.21877455E+00 0.13186599E+04</pdfrwt>
<pdfrwt beam="2">  1       -2 0.47030774E-01 0.13186599E+04</pdfrwt>
<totfact> 0.58948466E+01</totfact>
</mgrwt>
</event>
<event>
12    3  0.4769008E-008  0.2254312E+04  0.7818608E-02  0.8496156E-01
         -1   -1    0    0    0  501 -0.00000000000E+00  0.00000000000E+00  0.20474732266E+04  0.20474732266E+04  0.00000000000E+00 0.  1.
          1   -1    0    0  501    0  0.00000000000E+00 -0.00000000000E+00 -0.62051121672E+03  0.62051121672E+03  0.00000000000E+00 0. -1.
         23    2    1    2    0    0 -0.29494481373E+03 -0.62518892176E+03  0.13416929083E+04  0.15119953397E+04  0.90202084401E+02 0.  0.
        254    2    1    2    0    0  0.29494481373E+03  0.62518892176E+03  0.85269101647E+02  0.11559891037E+04  0.92259761386E+03 0.  0.
         23    2    4    4    0    0  0.59920824435E+03  0.26631720104E+03  0.13004376016E+03  0.67462754564E+03  0.90750063990E+02 0.  0.
         23    2    4    4    0    0 -0.30426343063E+03  0.35887172072E+03 -0.44774658508E+02  0.48136155804E+03  0.91318302480E+02 0.  0.
          2    1    3    3  502    0 -0.97592733182E+02 -0.19211945518E+03  0.33259102407E+03  0.39629662618E+03  0.00000000000E+00 0. -1.
         -2    1    3    3    0  502 -0.19735208055E+03 -0.43306946658E+03  0.10091018842E+04  0.11156987135E+04  0.00000000000E+00 0.  1.
         13    1    5    5    0    0  0.30886238209E+03  0.17980930790E+03  0.93903494326E+02  0.36952026267E+03  0.00000000000E+00 0. -1.
        -13    1    5    5    0    0  0.29034586227E+03  0.86507893147E+02  0.36140265830E+02  0.30510728298E+03  0.00000000000E+00 0.  1.
          4    1    6    6  503    0 -0.21343814679E+03  0.19966417328E+03 -0.56552029004E+02  0.29769070624E+03  0.00000000000E+00 0. -1.
         -4    1    6    6    0  503 -0.90825283832E+02  0.15920754744E+03  0.11777370495E+02  0.18367085180E+03  0.00000000000E+00 0.  1.
<mgrwt>
<rscale>  0 0.22543115E+04</rscale>
<asrwt>0</asrwt>
<pdfrwt beam="1">  1        1 0.95463265E-01 0.22543115E+04</pdfrwt>
<pdfrwt beam="2">  1       -1 0.31499588E+00 0.22543115E+04</pdfrwt>
<totfact> 0.78120910E-01</totfact>
</mgrwt>
</event>
<event>
12    3  0.4769008E-008  0.1213174E+04  0.7818608E-02  0.9101403E-01
         -2   -1    0    0    0  501 -0.00000000000E+00  0.00000000000E+00  0.34229078106E+03  0.34229078106E+03  0.00000000000E+00 0.  1.
          2   -1    0    0  501    0  0.00000000000E+00 -0.00000000000E+00 -0.10749575245E+04  0.10749575245E+04  0.00000000000E+00 0. -1.
         23    2    1    2    0    0 -0.24160864885E+03 -0.78354167465E+02 -0.11951051110E+03  0.29496226858E+03  0.90586217831E+02 0.  0.
        254    2    1    2    0    0  0.24160864885E+03  0.78354167465E+02 -0.61315623235E+03  0.11222860370E+04  0.90501451303E+03 0.  0.
         23    2    4    4    0    0 -0.20608324855E+03 -0.14350832807E+03 -0.54741098342E+03  0.60928344222E+03  0.92209449791E+02 0.  0.
         23    2    4    4    0    0  0.44769189741E+03  0.22186249553E+03 -0.65745248928E+02  0.51300259477E+03  0.95907364440E+02 0.  0.
          2    1    3    3  502    0 -0.48045208620E+02  0.19123551198E+02 -0.12217830111E+02  0.53134994630E+02  0.00000000000E+00 0.  1.
         -2    1    3    3    0  502 -0.19356344023E+03 -0.97477718662E+02 -0.10729268099E+03  0.24182727395E+03  0.00000000000E+00 0. -1.
         13    1    5    5    0    0 -0.59098281167E+01  0.36561852156E+01  0.11858920975E+01  0.70498296977E+01  0.00000000000E+00 0. -1.
        -13    1    5    5    0    0 -0.20017342044E+03 -0.14716451328E+03 -0.54859687552E+03  0.60223361252E+03  0.00000000000E+00 0.  1.
          2    1    6    6  503    0  0.26546479271E+03  0.15654312402E+03 -0.81511893874E+02  0.31878126465E+03  0.00000000000E+00 0.  1.
         -2    1    6    6    0  503  0.18222710470E+03  0.65319371509E+02  0.15766644946E+02  0.19422133012E+03  0.00000000000E+00 0. -1.
<mgrwt>
<rscale>  0 0.12131744E+04</rscale>
<asrwt>0</asrwt>
<pdfrwt beam="1">  1        2 0.16537808E+00 0.12131744E+04</pdfrwt>
<pdfrwt beam="2">  1       -2 0.52660121E-01 0.12131744E+04</pdfrwt>
<totfact> 0.75728142E+01</totfact>
</mgrwt>
</event>
<event>
12    3  0.4769008E-008  0.1416564E+04  0.7818608E-02  0.8941915E-01
         -1   -1    0    0    0  501 -0.00000000000E+00  0.00000000000E+00  0.69392368783E+03  0.69392368783E+03  0.00000000000E+00 0.  1.
          1   -1    0    0  501    0  0.00000000000E+00 -0.00000000000E+00 -0.72293786936E+03  0.72293786936E+03  0.00000000000E+00 0. -1.
         23    2    1    2    0    0  0.26070468768E+03 -0.28906983296E+03 -0.14903472476E+03  0.42650276452E+03  0.90360148599E+02 0.  0.
        254    2    1    2    0    0 -0.26070468768E+03  0.28906983296E+03  0.12002054323E+03  0.99035879268E+03  0.90270554719E+03 0.  0.
         23    2    4    4    0    0  0.73550230304E+01  0.49866601931E+03  0.30529931233E+03  0.59163296877E+03  0.90000024720E+02 0.  0.
         23    2    4    4    0    0 -0.26805971071E+03 -0.20959618635E+03 -0.18527876910E+03  0.39872582390E+03  0.94167353833E+02 0.  0.
          3    1    3    3  502    0  0.26197324118E+03 -0.29400438326E+03 -0.14386466990E+03  0.41924408132E+03  0.00000000000E+00 0. -1.
         -3    1    3    3    0  502 -0.12685535051E+01  0.49345502993E+01 -0.51700548571E+01  0.72586832054E+01  0.00000000000E+00 0.  1.
         13    1    5    5    0    0  0.37516085178E+02  0.43146890154E+03  0.25890272979E+03  0.50458249389E+03  0.00000000000E+00 0.  1.
        -13    1    5    5    0    0 -0.30161062148E+02  0.67197117776E+02  0.46396582537E+02  0.87050474889E+02  0.00000000000E+00 0. -1.
          1    1    6    6  503    0 -0.19318975599E+03 -0.99162924114E+02 -0.13741628991E+03  0.25698016279E+03  0.00000000000E+00 0. -1.
         -1    1    6    6    0  503 -0.74869954723E+02 -0.11043326224E+03 -0.47862479193E+02  0.14174566111E+03  0.00000000000E+00 0.  1.
<mgrwt>
<rscale>  0 0.14165645E+04</rscale>
<asrwt>0</asrwt>
<pdfrwt beam="1">  1        1 0.11122121E+00 0.14165645E+04</pdfrwt>
<pdfrwt beam="2">  1       -1 0.10675749E+00 0.14165645E+04</pdfrwt>
<totfact> 0.20687860E+01</totfact>
</mgrwt>
</event>
<event>
12    3  0.4769008E-008  0.2127574E+04  0.7818608E-02  0.8549193E-01
          2   -1    0    0  501    0  0.00000000000E+00  0.00000000000E+00  0.34935540873E+04  0.34935540873E+04  0.00000000000E+00 0. -1.
         -2   -1    0    0    0  501 -0.00000000000E+00 -0.00000000000E+00 -0.32392321505E+03  0.32392321505E+03  0.00000000000E+00 0.  1.
         23    2    1    2    0    0 -0.36846569188E+03  0.61583633198E+03  0.21874173125E+04  0.23039378241E+04  0.91179187154E+02 0.  0.
        254    2    1    2    0    0  0.36846569188E+03 -0.61583633198E+03  0.98221355979E+03  0.15135394783E+04  0.90057588330E+03 0.  0.
         23    2    4    4    0    0  0.16432939851E+03 -0.21963707692E+03  0.10155321251E+04  0.10559170124E+04  0.91709558489E+02 0.  0.
         23    2    4    4    0    0  0.20413629337E+03 -0.39619925506E+03 -0.33318565324E+02  0.45762246596E+03  0.98299128045E+02 0.  0.
          3    1    3    3  502    0 -0.23086410117E+03  0.29767952394E+03  0.11551461523E+04  0.12150201502E+04  0.00000000000E+00 0. -1.
         -3    1    3    3    0  502 -0.13760159071E+03  0.31815680803E+03  0.10322711602E+04  0.10889176739E+04  0.00000000000E+00 0.  1.
         13    1    5    5    0    0  0.16402247053E+03 -0.22641689318E+03  0.95733698922E+03  0.99732747444E+03  0.00000000000E+00 0.  1.
        -13    1    5    5    0    0  0.30692797297E+00  0.67798162583E+01  0.58195135897E+02  0.58589537934E+02  0.00000000000E+00 0. -1.
          1    1    6    6  503    0  0.20007036138E+02 -0.23752603190E+01  0.62200710540E+01  0.21085839811E+02  0.00000000000E+00 0. -1.
         -1    1    6    6    0  503  0.18412925723E+03 -0.39382399474E+03 -0.39538636378E+02  0.43653662615E+03  0.00000000000E+00 0.  1.
<mgrwt>
<rscale>  0 0.21275745E+04</rscale>
<asrwt>0</asrwt>
<pdfrwt beam="1">  1        2 0.53746983E+00 0.21275745E+04</pdfrwt>
<pdfrwt beam="2">  1       -2 0.49834343E-01 0.21275745E+04</pdfrwt>
<totfact> 0.28899048E+00</totfact>
</mgrwt>
</event>
<event>
12    3  0.4769008E-008  0.1622188E+04  0.7818608E-02  0.8807032E-01
         -2   -1    0    0    0  501 -0.00000000000E+00  0.00000000000E+00  0.46404567696E+03  0.46404567696E+03  0.00000000000E+00 0. -1.
          2   -1    0    0  501    0  0.00000000000E+00 -0.00000000000E+00 -0.14176909409E+04  0.14176909409E+04  0.00000000000E+00 0.  1.
         23    2    1    2    0    0 -0.15232297227E+03 -0.12948723580E+03  0.26476991357E+03  0.34409471722E+03  0.91262452154E+02 0.  0.
        254    2    1    2    0    0  0.15232297227E+03  0.12948723580E+03 -0.12184151775E+04  0.15376419007E+04  0.91642666794E+03 0.  0.
         23    2    4    4    0    0  0.33562865825E+03  0.27645836859E+02 -0.56668165546E+02  0.35362644753E+03  0.91812280640E+02 0.  0.
         23    2    4    4    0    0 -0.18330568597E+03  0.10184139894E+03 -0.11617470120E+04  0.11840154531E+04  0.90905601311E+02 0.  0.
          3    1    3    3  502    0 -0.80665036214E+02 -0.11813352185E+02  0.10941608684E+03  0.13644883076E+03  0.00000000000E+00 0. -1.
         -3    1    3    3    0  502 -0.71657936057E+02 -0.11767388361E+03  0.15535382673E+03  0.20764588646E+03  0.00000000000E+00 0.  1.
         13    1    5    5    0    0  0.21842488574E+03  0.16816294667E+02 -0.80759882667E+02  0.23348314098E+03  0.00000000000E+00 0. -1.
        -13    1    5    5    0    0  0.11720377251E+03  0.10829542191E+02  0.24091717121E+02  0.12014330655E+03  0.00000000000E+00 0.  1.
          1    1    6    6  503    0  0.56309873126E+01  0.17121780830E+02 -0.16545834493E+03  0.16643715723E+03  0.00000000000E+00 0. -1.
         -1    1    6    6    0  503 -0.18893667329E+03  0.84719618107E+02 -0.99628866704E+03  0.10175782959E+04  0.00000000000E+00 0.  1.
<mgrwt>
<rscale>  0 0.16221878E+04</rscale>
<asrwt>0</asrwt>
<pdfrwt beam="1">  1        2 0.21810630E+00 0.16221878E+04</pdfrwt>
<pdfrwt beam="2">  1       -2 0.71391642E-01 0.16221878E+04</pdfrwt>
<totfact> 0.24095108E+01</totfact>
</mgrwt>
</event>
<event>
12    3  0.4769008E-008  0.1256074E+04  0.7818608E-02  0.9065143E-01
          2   -1    0    0  501    0  0.00000000000E+00  0.00000000000E+00  0.57930715514E+03  0.57930715514E+03  0.00000000000E+00 0. -1.
         -2   -1    0    0    0  501 -0.00000000000E+00 -0.00000000000E+00 -0.68086633442E+03  0.68086633442E+03  0.00000000000E+00 0.  1.
         23    2    1    2    0    0  0.89386068724E+02 -0.19235504964E+03 -0.19792126642E+03  0.30529836690E+03  0.95099583207E+02 0.  0.
        254    2    1    2    0    0 -0.89386068724E+02  0.19235504964E+03  0.96362087142E+02  0.95487512266E+03  0.92601863568E+03 0.  0.
         23    2    4    4    0    0  0.22904836723E+03  0.14287748806E+03  0.40899164976E+03  0.49802962363E+03  0.88781784813E+02 0.  0.
         23    2    4    4    0    0 -0.31843443595E+03  0.49477561580E+02 -0.31262956262E+03  0.45684549903E+03  0.84392223902E+02 0.  0.
          3    1    3    3  502    0  0.10051249144E+02 -0.31675351964E+02  0.60638822902E+01  0.33780559495E+02  0.00000000000E+00 0. -1.
         -3    1    3    3    0  502  0.79334819580E+02 -0.16067969768E+03 -0.20398514871E+03  0.27151780740E+03  0.00000000000E+00 0.  1.
         13    1    5    5    0    0  0.15250867674E+03  0.62913755838E+02  0.30177414079E+03  0.34392538320E+03  0.00000000000E+00 0. -1.
        -13    1    5    5    0    0  0.76539690485E+02  0.79963732222E+02  0.10721750897E+03  0.15410424044E+03  0.00000000000E+00 0.  1.
          1    1    6    6  503    0 -0.95487570588E+02  0.54823714525E+02 -0.10219998714E+03  0.15022767116E+03  0.00000000000E+00 0. -1.
         -1    1    6    6    0  503 -0.22294686536E+03 -0.53461529449E+01 -0.21042957549E+03  0.30661782787E+03  0.00000000000E+00 0.  1.
<mgrwt>
<rscale>  0 0.12560744E+04</rscale>
<asrwt>0</asrwt>
<pdfrwt beam="1">  1        2 0.89124178E-01 0.12560744E+04</pdfrwt>
<pdfrwt beam="2">  1       -2 0.10474867E+00 0.12560744E+04</pdfrwt>
<totfact> 0.37613221E+01</totfact>
</mgrwt>
</event>
<event>
12    3  0.4769008E-008  0.1307864E+04  0.7818608E-02  0.9023352E-01
         -1   -1    0    0    0  501 -0.00000000000E+00  0.00000000000E+00  0.63072701845E+03  0.63072701845E+03  0.00000000000E+00 0.  1.
          1   -1    0    0  501    0  0.00000000000E+00 -0.00000000000E+00 -0.67799092059E+03  0.67799092059E+03  0.00000000000E+00 0. -1.
         23    2    1    2    0    0 -0.48407113005E+02  0.58444514584E+02 -0.34490146615E+03  0.36459246217E+03  0.90618056962E+02 0.  0.
        254    2    1    2    0    0  0.48407113005E+02 -0.58444514584E+02  0.29763756401E+03  0.94412547688E+03  0.89276300702E+03 0.  0.
         23    2    4    4    0    0  0.34746625035E+03 -0.59709030701E+02 -0.15361154879E+03  0.39494039477E+03  0.89907975289E+02 0.  0.
         23    2    4    4    0    0 -0.29905913734E+03  0.12645161171E+01  0.45124911279E+03  0.54918508211E+03  0.92414966235E+02 0.  0.
          1    1    3    3  502    0 -0.74968255641E+02  0.36052868409E+02 -0.23173065000E+03  0.24620955064E+03  0.00000000000E+00 0. -1.
         -1    1    3    3    0  502  0.26561142636E+02  0.22391646176E+02 -0.11317081615E+03  0.11838291154E+03  0.00000000000E+00 0.  1.
         13    1    5    5    0    0  0.31363762721E+03 -0.54654552087E+02 -0.16539501249E+03  0.35876341985E+03  0.00000000000E+00 0. -1.
        -13    1    5    5    0    0  0.33828623141E+02 -0.50544786144E+01  0.11783463701E+02  0.36176974922E+02  0.00000000000E+00 0.  1.
          4    1    6    6  503    0 -0.21068986296E+03  0.41301367112E+02  0.33326128375E+03  0.39643297608E+03  0.00000000000E+00 0. -1.
         -4    1    6    6    0  503 -0.88369274389E+02 -0.40036850995E+02  0.11798782904E+03  0.15275210602E+03  0.00000000000E+00 0.  1.
<mgrwt>
<rscale>  0 0.13078642E+04</rscale>
<asrwt>0</asrwt>
<pdfrwt beam="1">  1        1 0.10430630E+00 0.13078642E+04</pdfrwt>
<pdfrwt beam="2">  1       -1 0.97034926E-01 0.13078642E+04</pdfrwt>
<totfact> 0.28675726E+01</totfact>
</mgrwt>
</event>
<event>
12    3  0.4769008E-008  0.3144894E+04  0.7818608E-02  0.8203524E-01
          1   -1    0    0  501    0  0.00000000000E+00  0.00000000000E+00  0.17390242023E+04  0.17390242023E+04  0.00000000000E+00 0. -1.
         -1   -1    0    0    0  501 -0.00000000000E+00 -0.00000000000E+00 -0.14218260277E+04  0.14218260277E+04  0.00000000000E+00 0.  1.
         23    2    1    2    0    0  0.32045610447E+03 -0.13740095999E+04 -0.15813496893E+03  0.14228805331E+04  0.94804258849E+02 0.  0.
        254    2    1    2    0    0 -0.32045610447E+03  0.13740095999E+04  0.47533314347E+03  0.17379696969E+04  0.89666190640E+03 0.  0.
         23    2    4    4    0    0 -0.29801042504E+03  0.14241599998E+04  0.59539865368E+03  0.15748283972E+04  0.92428379359E+02 0.  0.
         23    2    4    4    0    0 -0.22445679438E+02 -0.50150399838E+02 -0.12006551021E+03  0.16314129972E+03  0.95814851687E+02 0.  0.
          3    1    3    3  502    0  0.16963263280E+03 -0.62337870814E+03 -0.31229511120E+02  0.64680099431E+03  0.00000000000E+00 0. -1.
         -3    1    3    3    0  502  0.15082347168E+03 -0.75063089180E+03 -0.12690545781E+03  0.77607953880E+03  0.00000000000E+00 0.  1.
         13    1    5    5    0    0 -0.69170046049E+02  0.30519989812E+03  0.88047553151E+02  0.32509051770E+03  0.00000000000E+00 0. -1.
        -13    1    5    5    0    0 -0.22884037899E+03  0.11189601017E+04  0.50735110053E+03  0.12497378795E+04  0.00000000000E+00 0.  1.
          2    1    6    6  503    0  0.14149727252E+02  0.22336284373E+02 -0.15151509043E+02  0.30474458275E+02  0.00000000000E+00 0. -1.
         -2    1    6    6    0  503 -0.36595406690E+02 -0.72486684211E+02 -0.10491400117E+03  0.13266684145E+03  0.00000000000E+00 0.  1.
<mgrwt>
<rscale>  0 0.31448942E+04</rscale>
<asrwt>0</asrwt>
<pdfrwt beam="1">  1        1 0.26754219E+00 0.31448942E+04</pdfrwt>
<pdfrwt beam="2">  1       -1 0.21874247E+00 0.31448942E+04</pdfrwt>
<totfact> 0.42284157E-01</totfact>
</mgrwt>
</event>
<event>
12    3  0.4769008E-008  0.1114361E+04  0.7818608E-02  0.9191307E-01
          1   -1    0    0  501    0  0.00000000000E+00  0.00000000000E+00  0.78199280428E+03  0.78199280428E+03  0.00000000000E+00 0.  1.
         -1   -1    0    0    0  501 -0.00000000000E+00 -0.00000000000E+00 -0.39699862790E+03  0.39699862790E+03  0.00000000000E+00 0. -1.
         23    2    1    2    0    0  0.33922644379E+02 -0.12456814960E+03 -0.49450981433E+02  0.16677355290E+03  0.93274051517E+02 0.  0.
        254    2    1    2    0    0 -0.33922644379E+02  0.12456814960E+03  0.43444515781E+03  0.10122178793E+04  0.90508257650E+03 0.  0.
         23    2    4    4    0    0 -0.33414908804E+03 -0.13070471645E+03  0.47922450710E+03  0.60550994903E+03  0.90812081963E+02 0.  0.
         23    2    4    4    0    0  0.30022644366E+03  0.25527286605E+03 -0.44779349286E+02  0.40670793025E+03  0.90033309358E+02 0.  0.
          2    1    3    3  502    0  0.10031678351E+02 -0.12543153838E+03 -0.61438384315E+02  0.14002992701E+03  0.00000000000E+00 0. -1.
         -2    1    3    3    0  502  0.23890966027E+02  0.86338878245E+00  0.11987402882E+02  0.26743625891E+02  0.00000000000E+00 0.  1.
         13    1    5    5    0    0 -0.23458146287E+03 -0.45519138634E+02  0.30196289832E+03  0.38507407945E+03  0.00000000000E+00 0. -1.
        -13    1    5    5    0    0 -0.99567625168E+02 -0.85185577815E+02  0.17726160878E+03  0.22043586958E+03  0.00000000000E+00 0.  1.
          4    1    6    6  503    0  0.14936245376E+03  0.93096813032E+02  0.16826466120E+02  0.17680296703E+03  0.00000000000E+00 0. -1.
         -4    1    6    6    0  503  0.15086398990E+03  0.16217605302E+03 -0.61605815406E+02  0.22990496322E+03  0.00000000000E+00 0.  1.
<mgrwt>
<rscale>  0 0.11143609E+04</rscale>
<asrwt>0</asrwt>
<pdfrwt beam="1">  1        1 0.12030658E+00 0.11143609E+04</pdfrwt>
<pdfrwt beam="2">  1       -1 0.61076712E-01 0.11143609E+04</pdfrwt>
<totfact> 0.62070795E+01</totfact>
</mgrwt>
</event>
<event>
12    3  0.4769008E-008  0.1994916E+04  0.7818608E-02  0.8609001E-01
         -1   -1    0    0    0  501 -0.00000000000E+00  0.00000000000E+00  0.36269232493E+03  0.36269232493E+03  0.00000000000E+00 0.  1.
          1   -1    0    0  501    0  0.00000000000E+00 -0.00000000000E+00 -0.27431592283E+04  0.27431592283E+04  0.00000000000E+00 0. -1.
         23    2    1    2    0    0  0.65628260486E+03 -0.29443803031E+03 -0.14422818396E+04  0.16142295936E+04  0.90330863354E+02 0.  0.
        254    2    1    2    0    0 -0.65628260486E+03  0.29443803031E+03 -0.93818506376E+03  0.14916219596E+04  0.90958465545E+03 0.  0.
         23    2    4    4    0    0 -0.29058760378E+03  0.41894983530E+03 -0.96321004362E+03  0.10939649204E+04  0.95002836188E+02 0.  0.
         23    2    4    4    0    0 -0.36569500108E+03 -0.12451180500E+03  0.25024979856E+02  0.39765703926E+03  0.90933205466E+02 0.  0.
          1    1    3    3  502    0  0.60571594327E+03 -0.26409120322E+03 -0.13692819776E+04  0.15203845243E+04  0.00000000000E+00 0. -1.
         -1    1    3    3    0  502  0.50566661586E+02 -0.30346827083E+02 -0.72999861946E+02  0.93845069247E+02  0.00000000000E+00 0.  1.
         13    1    5    5    0    0 -0.18591556412E+03  0.22181264841E+03 -0.46001179346E+03  0.54348532464E+03  0.00000000000E+00 0.  1.
        -13    1    5    5    0    0 -0.10467203966E+03  0.19713718689E+03 -0.50319825016E+03  0.55047959572E+03  0.00000000000E+00 0. -1.
          1    1    6    6  503    0 -0.15099797238E+03 -0.73169204209E+01 -0.47572845161E+01  0.15124998097E+03  0.00000000000E+00 0. -1.
         -1    1    6    6    0  503 -0.21469702870E+03 -0.11719488458E+03  0.29782264372E+02  0.24640705829E+03  0.00000000000E+00 0.  1.
<mgrwt>
<rscale>  0 0.19949163E+04</rscale>
<asrwt>0</asrwt>
<pdfrwt beam="1">  1        1 0.42202449E+00 0.19949163E+04</pdfrwt>
<pdfrwt beam="2">  1       -1 0.55798820E-01 0.19949163E+04</pdfrwt>
<totfact> 0.27607257E+00</totfact>
</mgrwt>
</event>
<event>
12    3  0.4769008E-008  0.2665692E+04  0.7818608E-02  0.8346223E-01
          2   -1    0    0  501    0  0.00000000000E+00  0.00000000000E+00  0.27110581967E+04  0.27110581967E+04  0.00000000000E+00 0. -1.
         -2   -1    0    0    0  501 -0.00000000000E+00 -0.00000000000E+00 -0.65527113323E+03  0.65527113323E+03  0.00000000000E+00 0.  1.
         23    2    1    2    0    0  0.96237974347E+03  0.20653113097E+03  0.73825605843E+02  0.99082494218E+03  0.86336361162E+02 0.  0.
        254    2    1    2    0    0 -0.96237974347E+03 -0.20653113097E+03  0.19819614576E+04  0.23755043877E+04  0.86372449192E+03 0.  0.
         23    2    4    4    0    0 -0.33663990933E+03 -0.20325332775E+03  0.15694917448E+04  0.16208578444E+04  0.96111763288E+02 0.  0.
         23    2    4    4    0    0 -0.62573983414E+03 -0.32778032186E+01  0.41246971285E+03  0.75464654334E+03  0.88312271689E+02 0.  0.
          1    1    3    3  502    0  0.12654668340E+03  0.10789860047E+01  0.22898537957E+02  0.12860626085E+03  0.00000000000E+00 0. -1.
         -1    1    3    3    0  502  0.83583306008E+03  0.20545214496E+03  0.50927067885E+02  0.86221868133E+03  0.00000000000E+00 0.  1.
         13    1    5    5    0    0 -0.16367264867E+03 -0.15457933911E+03  0.87166273913E+03  0.90026631548E+03  0.00000000000E+00 0.  1.
        -13    1    5    5    0    0 -0.17296726066E+03 -0.48673988638E+02  0.69782900563E+03  0.72059152890E+03  0.00000000000E+00 0. -1.
          2    1    6    6  503    0 -0.62329589263E+03  0.17897078884E+01  0.41463942065E+03  0.74861660546E+03  0.00000000000E+00 0. -1.
         -2    1    6    6    0  503 -0.24439415169E+01 -0.50675111070E+01 -0.21697077920E+01  0.60299378820E+01  0.00000000000E+00 0.  1.
<mgrwt>
<rscale>  0 0.26656918E+04</rscale>
<asrwt>0</asrwt>
<pdfrwt beam="1">  1        2 0.41708587E+00 0.26656918E+04</pdfrwt>
<pdfrwt beam="2">  1       -2 0.10081095E+00 0.26656918E+04</pdfrwt>
<totfact> 0.18639757E+00</totfact>
</mgrwt>
</event>
<event>
12    3  0.4769008E-008  0.1255255E+04  0.7818608E-02  0.9065821E-01
         -1   -1    0    0    0  501 -0.00000000000E+00  0.00000000000E+00  0.63909914258E+03  0.63909914258E+03  0.00000000000E+00 0.  1.
          1   -1    0    0  501    0  0.00000000000E+00 -0.00000000000E+00 -0.61636211959E+03  0.61636211959E+03  0.00000000000E+00 0. -1.
         23    2    1    2    0    0  0.29619728148E+02 -0.12432921614E+03 -0.25704258073E+03  0.30116811308E+03  0.91083817157E+02 0.  0.
        254    2    1    2    0    0 -0.29619728148E+02  0.12432921614E+03  0.27977960373E+03  0.95429314908E+03  0.90336244412E+03 0.  0.
         23    2    4    4    0    0  0.21864555804E+03  0.39093489675E+03 -0.41321293598E+02  0.45927873967E+03  0.92701336911E+02 0.  0.
         23    2    4    4    0    0 -0.24826528619E+03 -0.26660568060E+03  0.32110089732E+03  0.49501440941E+03  0.96016863110E+02 0.  0.
          3    1    3    3  502    0  0.17743158821E+02 -0.13737488139E+03 -0.21741059162E+03  0.25778681710E+03  0.00000000000E+00 0. -1.
         -3    1    3    3    0  502  0.11876569326E+02  0.13045665243E+02 -0.39631989111E+02  0.43381295987E+02  0.00000000000E+00 0.  1.
         13    1    5    5    0    0  0.59708885278E+02  0.45992407652E+02 -0.23955974532E+02  0.79084393268E+02  0.00000000000E+00 0.  1.
        -13    1    5    5    0    0  0.15893667277E+03  0.34494248910E+03 -0.17365319066E+02  0.38019434641E+03  0.00000000000E+00 0. -1.
          2    1    6    6  503    0 -0.24669186822E+03 -0.26997617004E+03  0.32526592274E+03  0.48943021028E+03  0.00000000000E+00 0. -1.
         -2    1    6    6    0  503 -0.15734179678E+01  0.33704894368E+01 -0.41650254197E+01  0.55841991272E+01  0.00000000000E+00 0.  1.
<mgrwt>
<rscale>  0 0.12552554E+04</rscale>
<asrwt>0</asrwt>
<pdfrwt beam="1">  1        1 0.94824941E-01 0.12552554E+04</pdfrwt>
<pdfrwt beam="2">  1       -1 0.98322945E-01 0.12552554E+04</pdfrwt>
<totfact> 0.32179259E+01</totfact>
</mgrwt>
</event>
<event>
12    3  0.4769008E-008  0.2114445E+04  0.7818608E-02  0.8554907E-01
         -2   -1    0    0    0  501 -0.00000000000E+00  0.00000000000E+00  0.12309678749E+04  0.12309678749E+04  0.00000000000E+00 0.  1.
          2   -1    0    0  501    0  0.00000000000E+00 -0.00000000000E+00 -0.90800088081E+03  0.90800088081E+03  0.00000000000E+00 0. -1.
         23    2    1    2    0    0  0.61310320027E+03 -0.11333139182E+03  0.72261508188E+03  0.95874432604E+03  0.90986744059E+02 0.  0.
        254    2    1    2    0    0 -0.61310320027E+03  0.11333139182E+03 -0.39964808775E+03  0.11802244297E+04  0.91895134361E+03 0.  0.
         23    2    4    4    0    0 -0.38471750422E+03  0.50870461523E+03 -0.24684686883E+03  0.69022924321E+03  0.93247455313E+02 0.  0.
         23    2    4    4    0    0 -0.22838569605E+03 -0.39537322340E+03 -0.15280121891E+03  0.48999518651E+03  0.90923365308E+02 0.  0.
          1    1    3    3  502    0  0.42022491051E+03 -0.81310657293E+02  0.42913410027E+03  0.60609939318E+03  0.00000000000E+00 0. -1.
         -1    1    3    3    0  502  0.19287828976E+03 -0.32020734529E+02  0.29348098161E+03  0.35264493286E+03  0.00000000000E+00 0.  1.
         13    1    5    5    0    0 -0.32574006252E+03  0.36560013378E+03 -0.18149122816E+03  0.52221558005E+03  0.00000000000E+00 0.  1.
        -13    1    5    5    0    0 -0.58977441702E+02  0.14310448145E+03 -0.65355640674E+02  0.16801366316E+03  0.00000000000E+00 0. -1.
          1    1    6    6  503    0 -0.12466894795E+03 -0.17573891203E+03 -0.11481974300E+03  0.24415176667E+03  0.00000000000E+00 0. -1.
         -1    1    6    6    0  503 -0.10371674810E+03 -0.21963431137E+03 -0.37981475917E+02  0.24584341985E+03  0.00000000000E+00 0.  1.
<mgrwt>
<rscale>  0 0.21144455E+04</rscale>
<asrwt>0</asrwt>
<pdfrwt beam="1">  1        2 0.13969244E+00 0.21144455E+04</pdfrwt>
<pdfrwt beam="2">  1       -2 0.18937967E+00 0.21144455E+04</pdfrwt>
<totfact> 0.41699930E+00</totfact>
</mgrwt>
</event>
<event>
12    3  0.4769008E-008  0.1538719E+04  0.7818608E-02  0.8859106E-01
          2   -1    0    0  501    0  0.00000000000E+00  0.00000000000E+00  0.22878860510E+04  0.22878860510E+04  0.00000000000E+00 0. -1.
         -2   -1    0    0    0  501 -0.00000000000E+00 -0.00000000000E+00 -0.25871661656E+03  0.25871661656E+03  0.00000000000E+00 0.  1.
         23    2    1    2    0    0  0.14722277596E+03 -0.47903783503E+03  0.79285568266E+03  0.94242310765E+03  0.91593597743E+02 0.  0.
        254    2    1    2    0    0 -0.14722277596E+03  0.47903783503E+03  0.12363137518E+04  0.16041795600E+04  0.89093690825E+03 0.  0.
         23    2    4    4    0    0 -0.37203123885E+03 -0.64153499751E+02  0.71316075244E+03  0.81208162829E+03  0.91407866013E+02 0.  0.
         23    2    4    4    0    0  0.22480846289E+03  0.54319133478E+03  0.52315299938E+03  0.79209793167E+03  0.90190916507E+02 0.  0.
          3    1    3    3  502    0  0.10968073513E+03 -0.44642017514E+03  0.71277108460E+03  0.84815296702E+03  0.00000000000E+00 0. -1.
         -3    1    3    3    0  502  0.37542040831E+02 -0.32617659893E+02  0.80084598061E+02  0.94270140624E+02  0.00000000000E+00 0.  1.
         13    1    5    5    0    0 -0.29119791359E+03 -0.87904749524E+02  0.55986319361E+03  0.63715795955E+03  0.00000000000E+00 0. -1.
        -13    1    5    5    0    0 -0.80833325268E+02  0.23751249773E+02  0.15329755883E+03  0.17492366873E+03  0.00000000000E+00 0.  1.
          3    1    6    6  503    0  0.10013752667E+03  0.35292262697E+03  0.33734651654E+03  0.49838195904E+03  0.00000000000E+00 0. -1.
         -3    1    6    6    0  503  0.12467093622E+03  0.19026870781E+03  0.18580648284E+03  0.29371597263E+03  0.00000000000E+00 0.  1.
<mgrwt>
<rscale>  0 0.15387191E+04</rscale>
<asrwt>0</asrwt>
<pdfrwt beam="1">  1        2 0.35198246E+00 0.15387191E+04</pdfrwt>
<pdfrwt beam="2">  1       -2 0.39802558E-01 0.15387191E+04</pdfrwt>
<totfact> 0.26534366E+01</totfact>
</mgrwt>
</event>
<event>
12    3  0.4769008E-008  0.1591006E+04  0.7818608E-02  0.8826093E-01
         -2   -1    0    0    0  501 -0.00000000000E+00  0.00000000000E+00  0.13669839904E+04  0.13669839904E+04  0.00000000000E+00 0. -1.
          2   -1    0    0  501    0  0.00000000000E+00 -0.00000000000E+00 -0.46293512127E+03  0.46293512127E+03  0.00000000000E+00 0.  1.
         23    2    1    2    0    0 -0.51342477937E+03 -0.15100362663E+03  0.28214277209E+03  0.61191085854E+03  0.91778296029E+02 0.  0.
        254    2    1    2    0    0  0.51342477937E+03  0.15100362663E+03  0.62190609707E+03  0.12180082532E+04  0.90020542759E+03 0.  0.
         23    2    4    4    0    0  0.74897946794E+03  0.14087004135E+02  0.39794876782E+03  0.85308686173E+03  0.90693355693E+02 0.  0.
         23    2    4    4    0    0 -0.23555468857E+03  0.13691662250E+03  0.22395732925E+03  0.36492139143E+03  0.93693990075E+02 0.  0.
          1    1    3    3  502    0 -0.50316708554E+03 -0.15577108693E+03  0.26080272786E+03  0.58775829246E+03  0.00000000000E+00 0. -1.
         -1    1    3    3    0  502 -0.10257693830E+02  0.47674602940E+01  0.21340044229E+02  0.24152566076E+02  0.00000000000E+00 0.  1.
         13    1    5    5    0    0  0.22304355548E+03  0.43364520730E+02  0.10429336813E+03  0.25001203158E+03  0.00000000000E+00 0.  1.
        -13    1    5    5    0    0  0.52593591246E+03 -0.29277516595E+02  0.29365539969E+03  0.60307483015E+03  0.00000000000E+00 0. -1.
          4    1    6    6  503    0 -0.20186911564E+03  0.71916234826E+02  0.17703270903E+03  0.27796342340E+03  0.00000000000E+00 0.  1.
         -4    1    6    6    0  503 -0.33685572921E+02  0.65000387674E+02  0.46924620218E+02  0.86957968027E+02  0.00000000000E+00 0. -1.
<mgrwt>
<rscale>  0 0.15910058E+04</rscale>
<asrwt>0</asrwt>
<pdfrwt beam="1">  1        2 0.71220788E-01 0.15910058E+04</pdfrwt>
<pdfrwt beam="2">  1       -2 0.21030523E+00 0.15910058E+04</pdfrwt>
<totfact> 0.73576865E+00</totfact>
</mgrwt>
</event>
<event>
12    3  0.4769008E-008  0.1749099E+04  0.7818608E-02  0.8733846E-01
          2   -1    0    0  501    0  0.00000000000E+00  0.00000000000E+00  0.19216272084E+04  0.19216272084E+04  0.00000000000E+00 0. -1.
         -2   -1    0    0    0  501 -0.00000000000E+00 -0.00000000000E+00 -0.39801529747E+03  0.39801529747E+03  0.00000000000E+00 0.  1.
         23    2    1    2    0    0  0.28158586353E+03 -0.45268134336E+03  0.10282944842E+04  0.11627571573E+04  0.10199835036E+03 0.  0.
        254    2    1    2    0    0 -0.28158586353E+03  0.45268134336E+03  0.49531742676E+03  0.11568853486E+04  0.89935163276E+03 0.  0.
         23    2    4    4    0    0 -0.25601805084E+03  0.68278893147E+03  0.53022378560E+03  0.90568397737E+03  0.85908304368E+02 0.  0.
         23    2    4    4    0    0 -0.25567812693E+02 -0.23010758811E+03 -0.34906358842E+02  0.25120137120E+03  0.90997032112E+02 0.  0.
          4    1    3    3  502    0  0.19429409268E+03 -0.37876754484E+03  0.85508684809E+03  0.95519032933E+03  0.00000000000E+00 0. -1.
         -4    1    3    3    0  502  0.87291770850E+02 -0.73913798521E+02  0.17320763609E+03  0.20756682796E+03  0.00000000000E+00 0.  1.
         13    1    5    5    0    0 -0.52339900750E+02  0.16525639253E+03  0.83963261421E+02  0.19261092843E+03  0.00000000000E+00 0. -1.
        -13    1    5    5    0    0 -0.20367815009E+03  0.51753253894E+03  0.44626052418E+03  0.71307304894E+03  0.00000000000E+00 0.  1.
          1    1    6    6  503    0 -0.40948747386E+02 -0.91779240099E+02  0.18383526617E+02  0.10216742571E+03  0.00000000000E+00 0. -1.
         -1    1    6    6    0  503  0.15380934693E+02 -0.13832834802E+03 -0.53289885459E+02  0.14903394549E+03  0.00000000000E+00 0.  1.
<mgrwt>
<rscale>  0 0.17490992E+04</rscale>
<asrwt>0</asrwt>
<pdfrwt beam="1">  1        2 0.29563495E+00 0.17490992E+04</pdfrwt>
<pdfrwt beam="2">  1       -2 0.61233124E-01 0.17490992E+04</pdfrwt>
<totfact> 0.17366704E+01</totfact>
</mgrwt>
</event>
<event>
12    3  0.4769008E-008  0.2199074E+04  0.7818608E-02  0.8518814E-01
         -2   -1    0    0    0  501 -0.00000000000E+00  0.00000000000E+00  0.59815174036E+03  0.59815174036E+03  0.00000000000E+00 0.  1.
          2   -1    0    0  501    0  0.00000000000E+00 -0.00000000000E+00 -0.20211954746E+04  0.20211954746E+04  0.00000000000E+00 0. -1.
         23    2    1    2    0    0  0.85080360081E+02  0.82840137392E+03 -0.10929658638E+04  0.13769539152E+04  0.89107806305E+02 0.  0.
        254    2    1    2    0    0 -0.85080360081E+02 -0.82840137392E+03 -0.33007787044E+03  0.12423932998E+04  0.86087293299E+03 0.  0.
         23    2    4    4    0    0  0.16843926159E+03 -0.19598673568E+03 -0.46697666721E+03  0.54128345448E+03  0.90210780787E+02 0.  0.
         23    2    4    4    0    0 -0.25351962167E+03 -0.63241463825E+03  0.13689879676E+03  0.70110984529E+03  0.92699845527E+02 0.  0.
          1    1    3    3  502    0  0.33589691968E+02  0.33671433428E+03 -0.37332474461E+03  0.50386126588E+03  0.00000000000E+00 0. -1.
         -1    1    3    3    0  502  0.51490668114E+02  0.49168703964E+03 -0.71964111917E+03  0.87309264930E+03  0.00000000000E+00 0.  1.
         13    1    5    5    0    0  0.20666113010E+02 -0.82938654489E+02 -0.18012103088E+03  0.19937275240E+03  0.00000000000E+00 0.  1.
        -13    1    5    5    0    0  0.14777314858E+03 -0.11304808119E+03 -0.28685563633E+03  0.34191070208E+03  0.00000000000E+00 0. -1.
          3    1    6    6  503    0 -0.15598669526E+03 -0.26554181432E+03  0.58036010611E+02  0.31338870876E+03  0.00000000000E+00 0. -1.
         -3    1    6    6    0  503 -0.97532926414E+02 -0.36687282392E+03  0.78862786153E+02  0.38772113652E+03  0.00000000000E+00 0.  1.
<mgrwt>
<rscale>  0 0.21990740E+04</rscale>
<asrwt>0</asrwt>
<pdfrwt beam="1">  1        2 0.31095315E+00 0.21990740E+04</pdfrwt>
<pdfrwt beam="2">  1       -2 0.92023343E-01 0.21990740E+04</pdfrwt>
<totfact> 0.59655325E+00</totfact>
</mgrwt>
</event>
<event>
12    3  0.4769008E-008  0.2011507E+04  0.7818608E-02  0.8601259E-01
          1   -1    0    0  501    0  0.00000000000E+00  0.00000000000E+00  0.28548916161E+04  0.28548916161E+04  0.00000000000E+00 0. -1.
         -1   -1    0    0    0  501 -0.00000000000E+00 -0.00000000000E+00 -0.35431836243E+03  0.35431836243E+03  0.00000000000E+00 0.  1.
         23    2    1    2    0    0 -0.20410804891E+03  0.46438927989E+03  0.55628066073E+02  0.51946676344E+03  0.97127430124E+02 0.  0.
        254    2    1    2    0    0  0.20410804891E+03 -0.46438927989E+03  0.24449451876E+04  0.26897432151E+04  0.99982203109E+03 0.  0.
         23    2    4    4    0    0 -0.38896860221E+03 -0.29184783089E+03  0.11575536137E+04  0.12589060401E+04  0.91882094850E+02 0.  0.
         23    2    4    4    0    0  0.59307665112E+03 -0.17254144900E+03  0.12873915739E+04  0.14308371749E+04  0.91692371591E+02 0.  0.
          2    1    3    3  502    0 -0.46809650306E+02  0.34251419420E+02 -0.78867527422E+00  0.58007974475E+02  0.00000000000E+00 0. -1.
         -2    1    3    3    0  502 -0.15729839861E+03  0.43013786047E+03  0.56416741348E+02  0.46145878897E+03  0.00000000000E+00 0.  1.
         13    1    5    5    0    0 -0.59016160588E+02 -0.86446072809E+02  0.28852629221E+03  0.30692548283E+03  0.00000000000E+00 0. -1.
        -13    1    5    5    0    0 -0.32995244162E+03 -0.20540175808E+03  0.86902732149E+03  0.95198055729E+03  0.00000000000E+00 0.  1.
          3    1    6    6  503    0  0.42588794644E+03 -0.88656896641E+02  0.84126809759E+03  0.94708637424E+03  0.00000000000E+00 0. -1.
         -3    1    6    6    0  503  0.16718870468E+03 -0.83884552361E+02  0.44612347627E+03  0.48375080070E+03  0.00000000000E+00 0.  1.
<mgrwt>
<rscale>  0 0.20115074E+04</rscale>
<asrwt>0</asrwt>
<pdfrwt beam="1">  1        1 0.43921408E+00 0.20115074E+04</pdfrwt>
<pdfrwt beam="2">  1       -1 0.54510519E-01 0.20115074E+04</pdfrwt>
<totfact> 0.24017330E+00</totfact>
</mgrwt>
</event>
<event>
12    3  0.4769008E-008  0.3255126E+04  0.7818608E-02  0.8174408E-01
          2   -1    0    0  501    0  0.00000000000E+00  0.00000000000E+00  0.37149129119E+04  0.37149129119E+04  0.00000000000E+00 0. -1.
         -2   -1    0    0    0  501 -0.00000000000E+00 -0.00000000000E+00 -0.71306164216E+03  0.71306164216E+03  0.00000000000E+00 0.  1.
         23    2    1    2    0    0  0.36226545964E+03  0.29754830878E+03 -0.55196463408E+03  0.73001719689E+03  0.92135178841E+02 0.  0.
        254    2    1    2    0    0 -0.36226545964E+03 -0.29754830878E+03  0.35538159038E+04  0.36979573572E+04  0.90857574143E+03 0.  0.
         23    2    4    4    0    0  0.19156918141E+03 -0.39090439134E+03  0.13264895301E+04  0.13991143167E+04  0.91877109786E+02 0.  0.
         23    2    4    4    0    0 -0.55383464105E+03  0.93356082558E+02  0.22273263738E+04  0.22988430405E+04  0.90820602732E+02 0.  0.
          4    1    3    3  502    0  0.11766408841E+03  0.44448302460E+02 -0.14358648808E+03  0.19088627204E+03  0.00000000000E+00 0. -1.
         -4    1    3    3    0  502  0.24460137123E+03  0.25310000632E+03 -0.40837814599E+03  0.53913092485E+03  0.00000000000E+00 0.  1.
         13    1    5    5    0    0  0.12672314749E+03 -0.28316070944E+03  0.80577731267E+03  0.86343258052E+03  0.00000000000E+00 0. -1.
        -13    1    5    5    0    0  0.64846033918E+02 -0.10774368189E+03  0.52071221740E+03  0.53568173615E+03  0.00000000000E+00 0.  1.
          1    1    6    6  503    0 -0.41014295954E+03  0.69548314404E+02  0.17974984113E+04  0.18450080633E+04  0.00000000000E+00 0. -1.
         -1    1    6    6    0  503 -0.14369168151E+03  0.23807768154E+02  0.42982796250E+03  0.45383497717E+03  0.00000000000E+00 0.  1.
<mgrwt>
<rscale>  0 0.32551264E+04</rscale>
<asrwt>0</asrwt>
<pdfrwt beam="1">  1        2 0.57152505E+00 0.32551264E+04</pdfrwt>
<pdfrwt beam="2">  1       -2 0.10970179E+00 0.32551264E+04</pdfrwt>
<totfact> 0.31495633E-01</totfact>
</mgrwt>
</event>
<event>
12    3  0.4769008E-008  0.1647757E+04  0.7818608E-02  0.8791734E-01
         -1   -1    0    0    0  501 -0.00000000000E+00  0.00000000000E+00  0.55927252803E+03  0.55927252803E+03  0.00000000000E+00 0.  1.
          1   -1    0    0  501    0  0.00000000000E+00 -0.00000000000E+00 -0.12136764096E+04  0.12136764096E+04  0.00000000000E+00 0. -1.
         23    2    1    2    0    0 -0.25409088813E+03 -0.21482417049E+03  0.27375212272E+03  0.44154006371E+03  0.96466571973E+02 0.  0.
        254    2    1    2    0    0  0.25409088813E+03  0.21482417049E+03 -0.92815600433E+03  0.13314088740E+04  0.89468677068E+03 0.  0.
         23    2    4    4    0    0 -0.15368634763E+03 -0.15952110736E+02 -0.82321596677E+03  0.84267057594E+03  0.92386191219E+02 0.  0.
         23    2    4    4    0    0  0.40777723576E+03  0.23077628122E+03 -0.10494003756E+03  0.48873829802E+03  0.91174264371E+02 0.  0.
          3    1    3    3  502    0 -0.68761122556E+01  0.97751886543E+01  0.14080060198E+02  0.18468441411E+02  0.00000000000E+00 0. -1.
         -3    1    3    3    0  502 -0.24721477588E+03 -0.22459935914E+03  0.25967206252E+03  0.42307162230E+03  0.00000000000E+00 0.  1.
         13    1    5    5    0    0 -0.13126889697E+03 -0.30423451795E+02 -0.48401518933E+03  0.50242194741E+03  0.00000000000E+00 0. -1.
        -13    1    5    5    0    0 -0.22417450660E+02  0.14471341058E+02 -0.33920077744E+03  0.34024862854E+03  0.00000000000E+00 0.  1.
          2    1    6    6  503    0  0.29789952058E+03  0.20692639857E+03 -0.59958096388E+02  0.36763790897E+03  0.00000000000E+00 0. -1.
         -2    1    6    6    0  503  0.10987771518E+03  0.23849882651E+02 -0.44981941169E+02  0.12110038905E+03  0.00000000000E+00 0.  1.
<mgrwt>
<rscale>  0 0.16477571E+04</rscale>
<asrwt>0</asrwt>
<pdfrwt beam="1">  1        1 0.18671945E+00 0.16477571E+04</pdfrwt>
<pdfrwt beam="2">  1       -1 0.86041928E-01 0.16477571E+04</pdfrwt>
<totfact> 0.13308044E+01</totfact>
</mgrwt>
</event>
<event>
12    3  0.4769008E-008  0.1175578E+04  0.7818608E-02  0.9134505E-01
         -2   -1    0    0    0  501 -0.00000000000E+00  0.00000000000E+00  0.18998271917E+03  0.18998271917E+03  0.00000000000E+00 0.  1.
          2   -1    0    0  501    0  0.00000000000E+00 -0.00000000000E+00 -0.18185663198E+04  0.18185663198E+04  0.00000000000E+00 0. -1.
         23    2    1    2    0    0  0.29763143949E+02  0.19123299717E+03 -0.57837818412E+03  0.61851994110E+03  0.10290621809E+03 0.  0.
        254    2    1    2    0    0 -0.29763143949E+02 -0.19123299717E+03 -0.10502054165E+04  0.13900290979E+04  0.88982783285E+03 0.  0.
         23    2    4    4    0    0 -0.31517041222E+03 -0.30352242413E+03 -0.95864488054E+03  0.10573152298E+04  0.86355297519E+02 0.  0.
         23    2    4    4    0    0  0.28540726827E+03  0.11228942696E+03 -0.91560535977E+02  0.33271386812E+03  0.90823796980E+02 0.  0.
          2    1    3    3  502    0  0.61122865765E+02  0.11511234471E+03 -0.42375499147E+03  0.44334540645E+03  0.00000000000E+00 0. -1.
         -2    1    3    3    0  502 -0.31359721817E+02  0.76120652460E+02 -0.15462319266E+03  0.17517453465E+03  0.00000000000E+00 0.  1.
         13    1    5    5    0    0 -0.24450918941E+03 -0.19368137617E+03 -0.73278755244E+03  0.79641372175E+03  0.00000000000E+00 0.  1.
        -13    1    5    5    0    0 -0.70661222808E+02 -0.10984104796E+03 -0.22585732810E+03  0.26090150801E+03  0.00000000000E+00 0. -1.
          4    1    6    6  503    0  0.40189575594E+02  0.42143049013E+02 -0.44651755078E+02  0.73382680505E+02  0.00000000000E+00 0. -1.
         -4    1    6    6    0  503  0.24521769268E+03  0.70146377943E+02 -0.46908780899E+02  0.25933118761E+03  0.00000000000E+00 0.  1.
<mgrwt>
<rscale>  0 0.11755785E+04</rscale>
<asrwt>0</asrwt>
<pdfrwt beam="1">  1        2 0.27977944E+00 0.11755785E+04</pdfrwt>
<pdfrwt beam="2">  1       -2 0.29228110E-01 0.11755785E+04</pdfrwt>
<totfact> 0.89683063E+01</totfact>
</mgrwt>
</event>
<event>
12    3  0.4769008E-008  0.1479203E+04  0.7818608E-02  0.8898402E-01
         -2   -1    0    0    0  501 -0.00000000000E+00  0.00000000000E+00  0.63616788730E+03  0.63616788730E+03  0.00000000000E+00 0.  1.
          2   -1    0    0  501    0  0.00000000000E+00 -0.00000000000E+00 -0.85985167659E+03  0.85985167659E+03  0.00000000000E+00 0. -1.
         23    2    1    2    0    0 -0.38187114218E+03 -0.18067960228E+03  0.10312555354E+03  0.44455470055E+03  0.92321796289E+02 0.  0.
        254    2    1    2    0    0  0.38187114218E+03  0.18067960228E+03 -0.32680934283E+03  0.10514648633E+04  0.90570598120E+03 0.  0.
         23    2    4    4    0    0 -0.40075306649E+02 -0.28273938281E+03 -0.29086658194E+03  0.41730228406E+03  0.89388136783E+02 0.  0.
         23    2    4    4    0    0  0.42194644883E+03  0.46341898509E+03 -0.35942760891E+02  0.63416257929E+03  0.89857295079E+02 0.  0.
          4    1    3    3  502    0 -0.35874638977E+03 -0.15326694587E+03  0.11510721742E+03  0.40674242509E+03  0.00000000000E+00 0. -1.
         -4    1    3    3    0  502 -0.23124752414E+02 -0.27412656410E+02 -0.11981663874E+02  0.37812275452E+02  0.00000000000E+00 0.  1.
         13    1    5    5    0    0 -0.40863860037E+02 -0.43489099106E+02 -0.50749394316E+02  0.78336822897E+02  0.00000000000E+00 0.  1.
        -13    1    5    5    0    0  0.78855338873E+00 -0.23925028370E+03 -0.24011718762E+03  0.33896546116E+03  0.00000000000E+00 0. -1.
          1    1    6    6  503    0  0.74827575317E+02  0.10643541171E+03  0.25115866279E+02  0.13250837571E+03  0.00000000000E+00 0. -1.
         -1    1    6    6    0  503  0.34711887351E+03  0.35698357339E+03 -0.61058627171E+02  0.50165420358E+03  0.00000000000E+00 0.  1.
<mgrwt>
<rscale>  0 0.14792025E+04</rscale>
<asrwt>0</asrwt>
<pdfrwt beam="1">  1        2 0.13228487E+00 0.14792025E+04</pdfrwt>
<pdfrwt beam="2">  1       -2 0.97871983E-01 0.14792025E+04</pdfrwt>
<totfact> 0.26279617E+01</totfact>
</mgrwt>
</event>
<event>
12    3  0.4769008E-008  0.2907793E+04  0.7818608E-02  0.8270563E-01
         -2   -1    0    0    0  501 -0.00000000000E+00  0.00000000000E+00  0.22296198473E+04  0.22296198473E+04  0.00000000000E+00 0.  1.
          2   -1    0    0  501    0  0.00000000000E+00 -0.00000000000E+00 -0.94806068396E+03  0.94806068396E+03  0.00000000000E+00 0. -1.
         23    2    1    2    0    0  0.78345485089E+03 -0.89674021934E+03 -0.24266198442E+02  0.11942416325E+04  0.87633921345E+02 0.  0.
        254    2    1    2    0    0 -0.78345485089E+03  0.89674021934E+03  0.13058253618E+04  0.19834388988E+04  0.90050289571E+03 0.  0.
         23    2    4    4    0    0 -0.94828192132E+03  0.83790112094E+03  0.12428904777E+04  0.17760430766E+04  0.90748992831E+02 0.  0.
         23    2    4    4    0    0  0.16482707043E+03  0.58839098395E+02  0.62934884146E+02  0.20739582215E+03  0.91772679779E+02 0.  0.
          2    1    3    3  502    0  0.21288579457E+03 -0.24858155794E+03 -0.45722253630E+02  0.33045979628E+03  0.00000000000E+00 0. -1.
         -2    1    3    3    0  502  0.57056905632E+03 -0.64815866139E+03  0.21456055188E+02  0.86378183627E+03  0.00000000000E+00 0.  1.
         13    1    5    5    0    0 -0.25376417616E+03  0.26171670433E+03  0.31637367187E+03  0.48268435927E+03  0.00000000000E+00 0. -1.
        -13    1    5    5    0    0 -0.69451774517E+03  0.57618441661E+03  0.92651680581E+03  0.12933587173E+04  0.00000000000E+00 0.  1.
          3    1    6    6  503    0  0.81214032352E+02 -0.10512861811E+02  0.82223262714E-01  0.81891672806E+02  0.00000000000E+00 0. -1.
         -3    1    6    6    0  503  0.83613038083E+02  0.69351960206E+02  0.62852660883E+02  0.12550414934E+03  0.00000000000E+00 0.  1.
<mgrwt>
<rscale>  0 0.29077929E+04</rscale>
<asrwt>0</asrwt>
<pdfrwt beam="1">  1        2 0.14585549E+00 0.29077929E+04</pdfrwt>
<pdfrwt beam="2">  1       -2 0.34301844E+00 0.29077929E+04</pdfrwt>
<totfact> 0.40423910E-01</totfact>
</mgrwt>
</event>
<event>
12    3  0.4769008E-008  0.2026711E+04  0.7818608E-02  0.8594233E-01
          2   -1    0    0  501    0  0.00000000000E+00  0.00000000000E+00  0.10376412685E+04  0.10376412685E+04  0.00000000000E+00 0. -1.
         -2   -1    0    0    0  501 -0.00000000000E+00 -0.00000000000E+00 -0.98963857954E+03  0.98963857954E+03  0.00000000000E+00 0.  1.
         23    2    1    2    0    0 -0.63889089986E+03  0.42111200884E+03  0.28270128321E+03  0.81873962924E+03  0.69983276849E+02 0.  0.
        254    2    1    2    0    0  0.63889089986E+03 -0.42111200884E+03 -0.23469859428E+03  0.12085402188E+04  0.90552146541E+03 0.  0.
         23    2    4    4    0    0  0.25538002384E+03 -0.16666177859E+03 -0.55615519193E+03  0.64010028239E+03  0.86166518937E+02 0.  0.
         23    2    4    4    0    0  0.38351087602E+03 -0.25445023025E+03  0.32145659765E+03  0.56843993639E+03  0.89241836647E+02 0.  0.
          1    1    3    3  502    0 -0.41823609129E+03  0.29449557603E+03  0.21938007591E+03  0.55657586191E+03  0.00000000000E+00 0. -1.
         -1    1    3    3    0  502 -0.22065480857E+03  0.12661643281E+03  0.63321207302E+02  0.26216376732E+03  0.00000000000E+00 0.  1.
         13    1    5    5    0    0  0.18701003868E+03 -0.11667861549E+03 -0.47086247619E+03  0.51990203439E+03  0.00000000000E+00 0.  1.
        -13    1    5    5    0    0  0.68369985156E+02 -0.49983163096E+02 -0.85292715741E+02  0.12019824800E+03  0.00000000000E+00 0. -1.
          2    1    6    6  503    0  0.32673533475E+03 -0.18264950407E+03  0.23163386070E+03  0.44019434995E+03  0.00000000000E+00 0.  1.
         -2    1    6    6    0  503  0.56775541278E+02 -0.71800726181E+02  0.89822736947E+02  0.12824558644E+03  0.00000000000E+00 0. -1.
<mgrwt>
<rscale>  0 0.20267115E+04</rscale>
<asrwt>0</asrwt>
<pdfrwt beam="1">  1        2 0.15963712E+00 0.20267115E+04</pdfrwt>
<pdfrwt beam="2">  1       -2 0.15225209E+00 0.20267115E+04</pdfrwt>
<totfact> 0.63621170E+00</totfact>
</mgrwt>
</event>
<event>
12    3  0.4769008E-008  0.1567443E+04  0.7818608E-02  0.8840803E-01
          1   -1    0    0  501    0  0.00000000000E+00  0.00000000000E+00  0.10405097265E+04  0.10405097265E+04  0.00000000000E+00 0. -1.
         -1   -1    0    0    0  501 -0.00000000000E+00 -0.00000000000E+00 -0.59030605144E+03  0.59030605144E+03  0.00000000000E+00 0.  1.
         23    2    1    2    0    0 -0.42202843681E+03  0.68121226713E+02 -0.16616380769E+03  0.46758546176E+03  0.90979393590E+02 0.  0.
        254    2    1    2    0    0  0.42202843681E+03 -0.68121226713E+02  0.61636748276E+03  0.11632303162E+04  0.88907108358E+03 0.  0.
         23    2    4    4    0    0  0.31889202102E+03  0.36541284160E+03  0.15965140123E+03  0.51855048241E+03  0.90484070506E+02 0.  0.
         23    2    4    4    0    0  0.10313641580E+03 -0.43353406831E+03  0.45671608153E+03  0.64467983377E+03  0.91834635564E+02 0.  0.
          1    1    3    3  502    0 -0.29441620423E+02  0.30743206546E+02 -0.19686664960E+02  0.46899024927E+02  0.00000000000E+00 0. -1.
         -1    1    3    3    0  502 -0.39258681639E+03  0.37378020167E+02 -0.14647714273E+03  0.42068643684E+03  0.00000000000E+00 0.  1.
         13    1    5    5    0    0  0.20832737874E+03  0.18425078687E+03  0.11875789362E+03  0.30241046029E+03  0.00000000000E+00 0.  1.
        -13    1    5    5    0    0  0.11056464228E+03  0.18116205474E+03  0.40893507605E+02  0.21614002212E+03  0.00000000000E+00 0. -1.
          2    1    6    6  503    0 -0.94651631203E+01 -0.12187568912E+03  0.10144667515E+03  0.15885433834E+03  0.00000000000E+00 0. -1.
         -2    1    6    6    0  503  0.11260157892E+03 -0.31165837919E+03  0.35526940639E+03  0.48582549543E+03  0.00000000000E+00 0.  1.
<mgrwt>
<rscale>  0 0.15674427E+04</rscale>
<asrwt>0</asrwt>
<pdfrwt beam="1">  1        1 0.16007842E+00 0.15674427E+04</pdfrwt>
<pdfrwt beam="2">  1       -1 0.90816316E-01 0.15674427E+04</pdfrwt>
<totfact> 0.16035481E+01</totfact>
</mgrwt>
</event>
<event>
12    3  0.4769008E-008  0.1440856E+04  0.7818608E-02  0.8924765E-01
          2   -1    0    0  501    0  0.00000000000E+00  0.00000000000E+00  0.33212542385E+03  0.33212542385E+03  0.00000000000E+00 0. -1.
         -2   -1    0    0    0  501 -0.00000000000E+00 -0.00000000000E+00 -0.15627113786E+04  0.15627113786E+04  0.00000000000E+00 0.  1.
         23    2    1    2    0    0 -0.43493082281E+03 -0.90840946587E+02 -0.60506217862E+03  0.75600867607E+03  0.89621314881E+02 0.  0.
        254    2    1    2    0    0  0.43493082281E+03  0.90840946587E+02 -0.62552377612E+03  0.11388281264E+04  0.84156557007E+03 0.  0.
         23    2    4    4    0    0 -0.88986373246E+02  0.27146880522E+03 -0.35987377024E+01  0.30134812469E+03  0.95832429302E+02 0.  0.
         23    2    4    4    0    0  0.52391719605E+03 -0.18062785864E+03 -0.62192503842E+03  0.83748000169E+03  0.86408033115E+02 0.  0.
          1    1    3    3  502    0 -0.20045696527E+02 -0.15102780591E+02 -0.10850924858E+02  0.27343491020E+02  0.00000000000E+00 0. -1.
         -1    1    3    3    0  502 -0.41488512628E+03 -0.75738165995E+02 -0.59421125376E+03  0.72866518505E+03  0.00000000000E+00 0.  1.
         13    1    5    5    0    0  0.30456572639E+00  0.54409742647E+01  0.19058097168E+02  0.19821907801E+02  0.00000000000E+00 0.  1.
        -13    1    5    5    0    0 -0.89290938972E+02  0.26602783096E+03 -0.22656834870E+02  0.28152621688E+03  0.00000000000E+00 0. -1.
          3    1    6    6  503    0  0.30895142246E+02 -0.17226467098E+02 -0.76671639783E+02  0.84438150916E+02  0.00000000000E+00 0.  1.
         -3    1    6    6    0  503  0.49302205381E+03 -0.16340139154E+03 -0.54525339864E+03  0.75304185078E+03  0.00000000000E+00 0. -1.
<mgrwt>
<rscale>  0 0.14408555E+04</rscale>
<asrwt>0</asrwt>
<pdfrwt beam="1">  1        2 0.51096219E-01 0.14408555E+04</pdfrwt>
<pdfrwt beam="2">  1       -2 0.24041714E+00 0.14408555E+04</pdfrwt>
<totfact> 0.70053583E+00</totfact>
</mgrwt>
</event>
<event>
12    3  0.4769008E-008  0.1844635E+04  0.7818608E-02  0.8682917E-01
          2   -1    0    0  501    0  0.00000000000E+00  0.00000000000E+00  0.91909801652E+03  0.91909801652E+03  0.00000000000E+00 0. -1.
         -2   -1    0    0    0  501 -0.00000000000E+00 -0.00000000000E+00 -0.92554792214E+03  0.92554792214E+03  0.00000000000E+00 0.  1.
         23    2    1    2    0    0 -0.22619143848E+03 -0.12552677650E+03 -0.65432425100E+03  0.70950688714E+03  0.91325018423E+02 0.  0.
        254    2    1    2    0    0  0.22619143848E+03  0.12552677650E+03  0.64787434538E+03  0.11351390515E+04  0.89547750415E+03 0.  0.
         23    2    4    4    0    0  0.50195839877E+03 -0.15146483518E+03  0.36828133415E+03  0.64641260895E+03  0.85523619710E+02 0.  0.
         23    2    4    4    0    0 -0.27576696029E+03  0.27699161168E+03  0.27959301122E+03  0.48872644258E+03  0.88935450878E+02 0.  0.
          4    1    3    3  502    0 -0.11745749646E+03 -0.21462141888E+02 -0.22761165384E+03  0.25702908779E+03  0.00000000000E+00 0. -1.
         -4    1    3    3    0  502 -0.10873394202E+03 -0.10406463461E+03 -0.42671259716E+03  0.45247779935E+03  0.00000000000E+00 0.  1.
         13    1    5    5    0    0  0.27354643994E+03 -0.89360145420E+02  0.15043792552E+03  0.32472212710E+03  0.00000000000E+00 0.  1.
        -13    1    5    5    0    0  0.22841195883E+03 -0.62104689762E+02  0.21784340863E+03  0.32169048185E+03  0.00000000000E+00 0. -1.
          2    1    6    6  503    0 -0.88752111939E+01 -0.67406391115E+01  0.10267008666E+02  0.15153120349E+02  0.00000000000E+00 0. -1.
         -2    1    6    6    0  503 -0.26689174909E+03  0.28373225079E+03  0.26932600255E+03  0.47357332223E+03  0.00000000000E+00 0.  1.
<mgrwt>
<rscale>  0 0.18446347E+04</rscale>
<asrwt>0</asrwt>
<pdfrwt beam="1">  1        2 0.14139969E+00 0.18446347E+04</pdfrwt>
<pdfrwt beam="2">  1       -2 0.14239199E+00 0.18446347E+04</pdfrwt>
<totfact> 0.92003336E+00</totfact>
</mgrwt>
</event>
<event>
12    3  0.4769008E-008  0.2032043E+04  0.7818608E-02  0.8591784E-01
         -2   -1    0    0    0  501 -0.00000000000E+00  0.00000000000E+00  0.12269963037E+04  0.12269963037E+04  0.00000000000E+00 0.  1.
          2   -1    0    0  501    0  0.00000000000E+00 -0.00000000000E+00 -0.84132249201E+03  0.84132249201E+03  0.00000000000E+00 0. -1.
         23    2    1    2    0    0 -0.33222922709E+03  0.39352468588E+03 -0.48757691992E+03  0.71516916904E+03  0.92183240187E+02 0.  0.
        254    2    1    2    0    0  0.33222922709E+03 -0.39352468588E+03  0.87325073159E+03  0.13531496267E+04  0.89621935605E+03 0.  0.
         23    2    4    4    0    0  0.46191183751E+03 -0.41398185587E+03  0.97830930327E+03  0.11619589266E+04  0.91191730345E+02 0.  0.
         23    2    4    4    0    0 -0.12968261042E+03  0.20457169984E+02 -0.10505857168E+03  0.19119070003E+03  0.90997280422E+02 0.  0.
          4    1    3    3  502    0 -0.14600338177E+02 -0.32102858670E+01 -0.15218502179E+02  0.21332571782E+02  0.00000000000E+00 0.  1.
         -4    1    3    3    0  502 -0.31762888891E+03  0.39673497175E+03 -0.47235841774E+03  0.69383659726E+03  0.00000000000E+00 0. -1.
         13    1    5    5    0    0  0.31857927987E+03 -0.26191265155E+03  0.71945470200E+03  0.82928044885E+03  0.00000000000E+00 0.  1.
        -13    1    5    5    0    0  0.14333255764E+03 -0.15206920432E+03  0.25885460127E+03  0.33267847778E+03  0.00000000000E+00 0. -1.
          1    1    6    6  503    0 -0.56686831622E+02  0.54204752374E+02 -0.41815137309E+02  0.88882269140E+02  0.00000000000E+00 0. -1.
         -1    1    6    6    0  503 -0.72995778796E+02 -0.33747582390E+02 -0.63243434372E+02  0.10230843089E+03  0.00000000000E+00 0.  1.
<mgrwt>
<rscale>  0 0.20320429E+04</rscale>
<asrwt>0</asrwt>
<pdfrwt beam="1">  1        2 0.12943423E+00 0.20320429E+04</pdfrwt>
<pdfrwt beam="2">  1       -2 0.18876866E+00 0.20320429E+04</pdfrwt>
<totfact> 0.47098780E+00</totfact>
</mgrwt>
</event>
<event>
12    3  0.4769008E-008  0.2297702E+04  0.7818608E-02  0.8478828E-01
          2   -1    0    0  501    0  0.00000000000E+00  0.00000000000E+00  0.17064714495E+04  0.17064714495E+04  0.00000000000E+00 0. -1.
         -2   -1    0    0    0  501 -0.00000000000E+00 -0.00000000000E+00 -0.77344330091E+03  0.77344330091E+03  0.00000000000E+00 0.  1.
         23    2    1    2    0    0  0.48354346220E+03 -0.71628502067E+03  0.85259520251E+03  0.12175041056E+04  0.92299280401E+02 0.  0.
        254    2    1    2    0    0 -0.48354346220E+03  0.71628502067E+03  0.80432946056E+02  0.12624106448E+04  0.91669660550E+03 0.  0.
         23    2    4    4    0    0  0.20804048319E+03  0.20592835841E+03 -0.18515996385E+03  0.35825481884E+03  0.91514870731E+02 0.  0.
         23    2    4    4    0    0 -0.69158394539E+03  0.51035666226E+03  0.26559290990E+03  0.90415582593E+03  0.90586354027E+02 0.  0.
          1    1    3    3  502    0  0.46356070248E+03 -0.65453786422E+03  0.80974138925E+03  0.11397321870E+04  0.00000000000E+00 0. -1.
         -1    1    3    3    0  502  0.19982759721E+02 -0.61747156457E+02  0.42853813256E+02  0.77771918629E+02  0.00000000000E+00 0.  1.
         13    1    5    5    0    0  0.12901163927E+03  0.18167826776E+03 -0.12061279921E+03  0.25337411742E+03  0.00000000000E+00 0. -1.
        -13    1    5    5    0    0  0.79028843924E+02  0.24250090652E+02 -0.64547164635E+02  0.10488070142E+03  0.00000000000E+00 0.  1.
          2    1    6    6  503    0 -0.68470696075E+01  0.56929000267E+01  0.14913004049E+02  0.17369201556E+02  0.00000000000E+00 0. -1.
         -2    1    6    6    0  503 -0.68473687578E+03  0.50466376223E+03  0.25067990586E+03  0.88678662438E+03  0.00000000000E+00 0.  1.
<mgrwt>
<rscale>  0 0.22977023E+04</rscale>
<asrwt>0</asrwt>
<pdfrwt beam="1">  1        2 0.26253407E+00 0.22977023E+04</pdfrwt>
<pdfrwt beam="2">  1       -2 0.11899128E+00 0.22977023E+04</pdfrwt>
<totfact> 0.47828752E+00</totfact>
</mgrwt>
</event>
<event>
12    3  0.4769008E-008  0.2124750E+04  0.7818608E-02  0.8550419E-01
          2   -1    0    0  501    0  0.00000000000E+00  0.00000000000E+00  0.30751640101E+04  0.30751640101E+04  0.00000000000E+00 0. -1.
         -2   -1    0    0    0  501 -0.00000000000E+00 -0.00000000000E+00 -0.36701787754E+03  0.36701787754E+03  0.00000000000E+00 0.  1.
         23    2    1    2    0    0  0.68316556163E+02  0.14118559432E+03 -0.27245695066E+03  0.32720156059E+03  0.90705828896E+02 0.  0.
        254    2    1    2    0    0 -0.68316556163E+02 -0.14118559432E+03  0.29806030832E+04  0.31149803271E+04  0.89135131925E+03 0.  0.
         23    2    4    4    0    0  0.39263097325E+03 -0.13462741156E+03  0.12142969377E+04  0.12871677792E+04  0.10000108887E+03 0.  0.
         23    2    4    4    0    0 -0.46094752941E+03 -0.65581827559E+01  0.17663061455E+04  0.18278125479E+04  0.92442824431E+02 0.  0.
          2    1    3    3  502    0  0.14476534473E+02  0.63484032189E+02 -0.40399666577E+02  0.76628489825E+02  0.00000000000E+00 0. -1.
         -2    1    3    3    0  502  0.53840021690E+02  0.77701562131E+02 -0.23205728409E+03  0.25057307076E+03  0.00000000000E+00 0.  1.
         13    1    5    5    0    0  0.26953704692E+03 -0.41864905926E+02  0.76684991439E+03  0.81391749042E+03  0.00000000000E+00 0.  1.
        -13    1    5    5    0    0  0.12309392633E+03 -0.92762505638E+02  0.44744702331E+03  0.47325028877E+03  0.00000000000E+00 0. -1.
          4    1    6    6  503    0 -0.27600118138E+03 -0.48056672372E+02  0.10129646211E+04  0.10509916362E+04  0.00000000000E+00 0.  1.
         -4    1    6    6    0  503 -0.18494634804E+03  0.41498489616E+02  0.75334152450E+03  0.77682091168E+03  0.00000000000E+00 0. -1.
<mgrwt>
<rscale>  0 0.21247496E+04</rscale>
<asrwt>0</asrwt>
<pdfrwt beam="1">  1        2 0.47310214E+00 0.21247496E+04</pdfrwt>
<pdfrwt beam="2">  1       -2 0.56464291E-01 0.21247496E+04</pdfrwt>
<totfact> 0.42328634E+00</totfact>
</mgrwt>
</event>
<event>
12    3  0.4769008E-008  0.1451759E+04  0.7818608E-02  0.8917182E-01
         -2   -1    0    0    0  501 -0.00000000000E+00  0.00000000000E+00  0.47206218285E+03  0.47206218285E+03  0.00000000000E+00 0.  1.
          2   -1    0    0  501    0  0.00000000000E+00 -0.00000000000E+00 -0.11161694766E+04  0.11161694766E+04  0.00000000000E+00 0. -1.
         23    2    1    2    0    0  0.24929149919E+03 -0.40177798383E+02  0.16719394902E+03  0.31676406716E+03  0.92871688909E+02 0.  0.
        254    2    1    2    0    0 -0.24929149919E+03  0.40177798383E+02 -0.81130124275E+03  0.12714675923E+04  0.94586448536E+03 0.  0.
         23    2    4    4    0    0 -0.35746067621E+03  0.41956674962E+03 -0.35673518819E+03  0.66254903707E+03  0.88864163797E+02 0.  0.
         23    2    4    4    0    0  0.10816917702E+03 -0.37938895124E+03 -0.45456605456E+03  0.60891855521E+03  0.92276550314E+02 0.  0.
          3    1    3    3  502    0  0.49980913899E+02  0.28852966002E+02  0.28893929664E+02  0.64540255444E+02  0.00000000000E+00 0. -1.
         -3    1    3    3    0  502  0.19931058529E+03 -0.69030764386E+02  0.13830001936E+03  0.25222381171E+03  0.00000000000E+00 0.  1.
         13    1    5    5    0    0 -0.20701893670E+03  0.19625733805E+03 -0.14491565403E+03  0.31995988760E+03  0.00000000000E+00 0. -1.
        -13    1    5    5    0    0 -0.15044173951E+03  0.22330941157E+03 -0.21181953416E+03  0.34258914947E+03  0.00000000000E+00 0.  1.
          4    1    6    6  503    0  0.89167192530E+02 -0.32758907249E+03 -0.43166048472E+03  0.54917771505E+03  0.00000000000E+00 0. -1.
         -4    1    6    6    0  503  0.19001984489E+02 -0.51799878748E+02 -0.22905569838E+02  0.59740840155E+02  0.00000000000E+00 0.  1.
<mgrwt>
<rscale>  0 0.14517595E+04</rscale>
<asrwt>0</asrwt>
<pdfrwt beam="1">  1        2 0.17171838E+00 0.14517595E+04</pdfrwt>
<pdfrwt beam="2">  1       -2 0.72624952E-01 0.14517595E+04</pdfrwt>
<totfact> 0.35405009E+01</totfact>
</mgrwt>
</event>
<event>
12    3  0.4769008E-008  0.2050476E+04  0.7818608E-02  0.8583378E-01
          2   -1    0    0  501    0  0.00000000000E+00  0.00000000000E+00  0.13928774547E+04  0.13928774547E+04  0.00000000000E+00 0. -1.
         -2   -1    0    0    0  501 -0.00000000000E+00 -0.00000000000E+00 -0.75463451941E+03  0.75463451941E+03  0.00000000000E+00 0.  1.
         23    2    1    2    0    0  0.52234084367E+03 -0.29302974597E+03 -0.33458298322E+03  0.69259751099E+03  0.95074447580E+02 0.  0.
        254    2    1    2    0    0 -0.52234084367E+03  0.29302974597E+03  0.97282591855E+03  0.14549144632E+04  0.90093253815E+03 0.  0.
         23    2    4    4    0    0 -0.41623854276E+03  0.27975233974E+02  0.10604848581E+04  0.11432082222E+04  0.90883258511E+02 0.  0.
         23    2    4    4    0    0 -0.10610230091E+03  0.26505451199E+03 -0.87658939598E+02  0.31170624099E+03  0.89247399906E+02 0.  0.
          4    1    3    3  502    0  0.28231171590E+03 -0.14478742789E+03 -0.22936229061E+03  0.39149759202E+03  0.00000000000E+00 0. -1.
         -4    1    3    3    0  502  0.24002912777E+03 -0.14824231808E+03 -0.10522069262E+03  0.30109991897E+03  0.00000000000E+00 0.  1.
         13    1    5    5    0    0 -0.36423774979E+03  0.38556332464E+00  0.85247236288E+03  0.92702665361E+03  0.00000000000E+00 0. -1.
        -13    1    5    5    0    0 -0.52000792966E+02  0.27589670649E+02  0.20801249527E+03  0.21618156856E+03  0.00000000000E+00 0.  1.
          1    1    6    6  503    0 -0.92599339490E+02  0.26571354634E+03 -0.94136647845E+02  0.29671541053E+03  0.00000000000E+00 0. -1.
         -1    1    6    6    0  503 -0.13502961424E+02 -0.65903434285E+00  0.64777082469E+01  0.14990830451E+02  0.00000000000E+00 0.  1.
<mgrwt>
<rscale>  0 0.20504764E+04</rscale>
<asrwt>0</asrwt>
<pdfrwt beam="1">  1        2 0.21428884E+00 0.20504764E+04</pdfrwt>
<pdfrwt beam="2">  1       -2 0.11609762E+00 0.20504764E+04</pdfrwt>
<totfact> 0.77878568E+00</totfact>
</mgrwt>
</event>
<event>
12    3  0.4769008E-008  0.2004045E+04  0.7818608E-02  0.8604732E-01
          2   -1    0    0  501    0  0.00000000000E+00  0.00000000000E+00  0.19052962216E+04  0.19052962216E+04  0.00000000000E+00 0. -1.
         -2   -1    0    0    0  501 -0.00000000000E+00 -0.00000000000E+00 -0.52697780255E+03  0.52697780255E+03  0.00000000000E+00 0.  1.
         23    2    1    2    0    0 -0.29235578975E+03  0.13872125366E+03  0.14382319156E+04  0.14770628888E+04  0.92131646510E+02 0.  0.
        254    2    1    2    0    0  0.29235578975E+03 -0.13872125366E+03 -0.59913496513E+02  0.95521113543E+03  0.89672916321E+03 0.  0.
         23    2    4    4    0    0 -0.57803295956E+02 -0.50533700681E+02 -0.42108798583E+03  0.43662109424E+03  0.86185916476E+02 0.  0.
         23    2    4    4    0    0  0.35015908571E+03 -0.88187552979E+02  0.36117448932E+03  0.51859004118E+03  0.90001051522E+02 0.  0.
          2    1    3    3  502    0 -0.18394096899E+03  0.67930759664E+02  0.10395793756E+04  0.10579102733E+04  0.00000000000E+00 0.  1.
         -2    1    3    3    0  502 -0.10841482076E+03  0.70790493996E+02  0.39865254004E+03  0.41915261550E+03  0.00000000000E+00 0. -1.
         13    1    5    5    0    0 -0.79405140728E+02 -0.45062903433E+02 -0.36555052270E+03  0.37677981141E+03  0.00000000000E+00 0.  1.
        -13    1    5    5    0    0  0.21601844772E+02 -0.54707972478E+01 -0.55537463128E+02  0.59841282831E+02  0.00000000000E+00 0. -1.
          4    1    6    6  503    0  0.32731059915E+03 -0.55467593379E+02  0.31626970444E+03  0.45851434893E+03  0.00000000000E+00 0.  1.
         -4    1    6    6    0  503  0.22848486558E+02 -0.32719959601E+02  0.44904784878E+02  0.60075692249E+02  0.00000000000E+00 0. -1.
<mgrwt>
<rscale>  0 0.20040447E+04</rscale>
<asrwt>0</asrwt>
<pdfrwt beam="1">  1        2 0.29312249E+00 0.20040447E+04</pdfrwt>
<pdfrwt beam="2">  1       -2 0.81073509E-01 0.20040447E+04</pdfrwt>
<totfact> 0.93953929E+00</totfact>
</mgrwt>
</event>
<event>
12    3  0.4769008E-008  0.2907442E+04  0.7818608E-02  0.8270667E-01
          2   -1    0    0  501    0  0.00000000000E+00  0.00000000000E+00  0.17301665291E+04  0.17301665291E+04  0.00000000000E+00 0. -1.
         -2   -1    0    0    0  501 -0.00000000000E+00 -0.00000000000E+00 -0.12214457678E+04  0.12214457678E+04  0.00000000000E+00 0.  1.
         23    2    1    2    0    0 -0.51483351088E+03 -0.11606917116E+04 -0.10820694204E+03  0.12775494880E+04  0.90361267102E+02 0.  0.
        254    2    1    2    0    0  0.51483351088E+03  0.11606917116E+04  0.61692770336E+03  0.16740628089E+04  0.89979314490E+03 0.  0.
         23    2    4    4    0    0  0.21757622994E+02  0.15602898066E+03  0.51583855161E+03  0.54698889884E+03  0.91043984776E+02 0.  0.
         23    2    4    4    0    0  0.49307588789E+03  0.10046627310E+04  0.10108915174E+03  0.11270739101E+04  0.87209792573E+02 0.  0.
          3    1    3    3  502    0 -0.13575055289E+03 -0.37062494104E+03 -0.66386859868E+02  0.40024776663E+03  0.00000000000E+00 0. -1.
         -3    1    3    3    0  502 -0.37908295799E+03 -0.79006677058E+03 -0.41820082173E+02  0.87730172135E+03  0.00000000000E+00 0.  1.
         13    1    5    5    0    0  0.19818475954E+02  0.14692971306E+02  0.21128916158E+02  0.32482094960E+02  0.00000000000E+00 0. -1.
        -13    1    5    5    0    0  0.19391470402E+01  0.14133600935E+03  0.49470963546E+03  0.51450680388E+03  0.00000000000E+00 0.  1.
          3    1    6    6  503    0  0.12855430304E+03  0.33940735268E+03  0.10315006454E+02  0.36308395619E+03  0.00000000000E+00 0. -1.
         -3    1    6    6    0  503  0.36452158485E+03  0.66525537828E+03  0.90774145288E+02  0.76398995386E+03  0.00000000000E+00 0.  1.
<mgrwt>
<rscale>  0 0.29074419E+04</rscale>
<asrwt>0</asrwt>
<pdfrwt beam="1">  1        2 0.26617947E+00 0.29074419E+04</pdfrwt>
<pdfrwt beam="2">  1       -2 0.18791473E+00 0.29074419E+04</pdfrwt>
<totfact> 0.13030540E+00</totfact>
</mgrwt>
</event>
<event>
12    3  0.4769008E-008  0.2080355E+04  0.7818608E-02  0.8569947E-01
          1   -1    0    0  501    0  0.00000000000E+00  0.00000000000E+00  0.82395163513E+03  0.82395163513E+03  0.00000000000E+00 0. -1.
         -1   -1    0    0    0  501 -0.00000000000E+00 -0.00000000000E+00 -0.13131459888E+04  0.13131459888E+04  0.00000000000E+00 0.  1.
         23    2    1    2    0    0 -0.24215034366E+03  0.65824473750E+02  0.62450172908E+03  0.67907815000E+03  0.90416115257E+02 0.  0.
        254    2    1    2    0    0  0.24215034366E+03 -0.65824473750E+02 -0.11136960827E+04  0.14580194739E+04  0.90693559380E+03 0.  0.
         23    2    4    4    0    0 -0.27110482118E+03 -0.25658585004E+02 -0.79775803918E+03  0.84796171112E+03  0.92005366161E+02 0.  0.
         23    2    4    4    0    0  0.51325516484E+03 -0.40165888746E+02 -0.31593804355E+03  0.61005776278E+03  0.85495401719E+02 0.  0.
          2    1    3    3  502    0  0.10110173412E+01  0.38757660691E+00  0.70774275745E+02  0.70782557731E+02  0.00000000000E+00 0.  1.
         -2    1    3    3    0  502 -0.24316136100E+03  0.65436897143E+02  0.55372745334E+03  0.60829559227E+03  0.00000000000E+00 0. -1.
         13    1    5    5    0    0 -0.29737936396E+02 -0.25949202675E+02 -0.60822991318E+02  0.72506153210E+02  0.00000000000E+00 0. -1.
        -13    1    5    5    0    0 -0.24136688478E+03  0.29061767064E+00 -0.73693504787E+03  0.77545555791E+03  0.00000000000E+00 0.  1.
          2    1    6    6  503    0  0.11353530106E+02  0.82156724797E+01  0.17069693869E+01  0.14117849151E+02  0.00000000000E+00 0. -1.
         -2    1    6    6    0  503  0.50190163473E+03 -0.48381561226E+02 -0.31764501294E+03  0.59593991363E+03  0.00000000000E+00 0.  1.
<mgrwt>
<rscale>  0 0.20803546E+04</rscale>
<asrwt>0</asrwt>
<pdfrwt beam="1">  1        1 0.12676179E+00 0.20803546E+04</pdfrwt>
<pdfrwt beam="2">  1       -1 0.20202246E+00 0.20803546E+04</pdfrwt>
<totfact> 0.28299071E+00</totfact>
</mgrwt>
</event>
<event>
12    3  0.5375873E-008  0.1388642E+04  0.7818608E-02  0.8962082E-01
         -1   -1    0    0    0  501 -0.00000000000E+00  0.00000000000E+00  0.63490128278E+03  0.63490128278E+03  0.00000000000E+00 0.  1.
          1   -1    0    0  501    0  0.00000000000E+00 -0.00000000000E+00 -0.75930126752E+03  0.75930126752E+03  0.00000000000E+00 0. -1.
         23    2    1    2    0    0  0.20571921014E+03 -0.29541920419E+03  0.11030455936E+03  0.38790439968E+03  0.93326458476E+02 0.  0.
        254    2    1    2    0    0 -0.20571921014E+03  0.29541920419E+03 -0.23470454410E+03  0.10062981506E+04  0.90992134016E+03 0.  0.
         23    2    4    4    0    0  0.84482052274E+02  0.64520358032E+02  0.31063425578E+03  0.34042224270E+03  0.89964263479E+02 0.  0.
         23    2    4    4    0    0 -0.29020126242E+03  0.23089884616E+03 -0.54533879988E+03  0.66587590791E+03  0.92006892252E+02 0.  0.
          3    1    3    3  502    0  0.12947857280E+01  0.17854581250E+01  0.14514373011E+02  0.14680986162E+02  0.00000000000E+00 0. -1.
         -3    1    3    3    0  502  0.20442442442E+03 -0.29720466231E+03  0.95790186347E+02  0.37322341352E+03  0.00000000000E+00 0.  1.
         13    1    5    5    0    0  0.25054020084E+01 -0.18808730873E+02  0.22215043359E+02  0.29215638752E+02  0.00000000000E+00 0. -1.
        -13    1    5    5    0    0  0.81976650266E+02  0.83329088905E+02  0.28841921242E+03  0.31120660395E+03  0.00000000000E+00 0.  1.
          4    1    6    6  503    0 -0.18498489633E+02 -0.17217183386E+01 -0.76617808506E+01  0.20096301116E+02  0.00000000000E+00 0. -1.
         -4    1    6    6    0  503 -0.27170277278E+03  0.23262056449E+03 -0.53767701903E+03  0.64577960680E+03  0.00000000000E+00 0.  1.
<mgrwt>
<rscale>  0 0.13886416E+04</rscale>
<asrwt>0</asrwt>
<pdfrwt beam="1">  1        1 0.11681558E+00 0.13886416E+04</pdfrwt>
<pdfrwt beam="2">  1       -1 0.97677120E-01 0.13886416E+04</pdfrwt>
<totfact> 0.23586577E+01</totfact>
</mgrwt>
</event>
<event>
12    3  0.4769008E-008  0.2064704E+04  0.7818608E-02  0.8576953E-01
         -1   -1    0    0    0  501 -0.00000000000E+00  0.00000000000E+00  0.56557657967E+03  0.56557657967E+03  0.00000000000E+00 0.  1.
          1   -1    0    0  501    0  0.00000000000E+00 -0.00000000000E+00 -0.18843618185E+04  0.18843618185E+04  0.00000000000E+00 0. -1.
         23    2    1    2    0    0  0.62325531098E+03 -0.25430704265E+03  0.35389127318E+02  0.67990924825E+03  0.88909734643E+02 0.  0.
        254    2    1    2    0    0 -0.62325531098E+03  0.25430704265E+03 -0.13541743661E+04  0.17700291499E+04  0.91983461721E+03 0.  0.
         23    2    4    4    0    0 -0.50347512435E+03 -0.27617552648E+03 -0.60193220672E+03  0.83699565074E+03  0.92082656383E+02 0.  0.
         23    2    4    4    0    0 -0.11978018663E+03  0.53048256913E+03 -0.75224215938E+03  0.93303349914E+03  0.94467957078E+02 0.  0.
          4    1    3    3  502    0  0.13426538796E+03 -0.94805335593E+02  0.23716376874E+00  0.16436332409E+03  0.00000000000E+00 0. -1.
         -4    1    3    3    0  502  0.48898992302E+03 -0.15950170706E+03  0.35151963550E+02  0.51554592415E+03  0.00000000000E+00 0.  1.
         13    1    5    5    0    0 -0.77572234402E+02 -0.77445760857E+01 -0.88127295435E+02  0.11765989210E+03  0.00000000000E+00 0. -1.
        -13    1    5    5    0    0 -0.42590288995E+03 -0.26843095039E+03 -0.51380491128E+03  0.71933575863E+03  0.00000000000E+00 0.  1.
          2    1    6    6  503    0  0.10574117258E+02  0.11636176338E+03 -0.13746688938E+03  0.18041346293E+03  0.00000000000E+00 0. -1.
         -2    1    6    6    0  503 -0.13035430389E+03  0.41412080575E+03 -0.61477527000E+03  0.75262003621E+03  0.00000000000E+00 0.  1.
<mgrwt>
<rscale>  0 0.20647043E+04</rscale>
<asrwt>0</asrwt>
<pdfrwt beam="1">  1        1 0.28990182E+00 0.20647043E+04</pdfrwt>
<pdfrwt beam="2">  1       -1 0.87011781E-01 0.20647043E+04</pdfrwt>
<totfact> 0.42845470E+00</totfact>
</mgrwt>
</event>
<event>
12    3  0.4769008E-008  0.1446308E+04  0.7818608E-02  0.8920964E-01
          1   -1    0    0  501    0  0.00000000000E+00  0.00000000000E+00  0.70654117299E+03  0.70654117299E+03  0.00000000000E+00 0. -1.
         -1   -1    0    0    0  501 -0.00000000000E+00 -0.00000000000E+00 -0.74015773766E+03  0.74015773766E+03  0.00000000000E+00 0.  1.
         23    2    1    2    0    0 -0.31170105796E+03 -0.12430042799E+03  0.26681190797E+03  0.43846278761E+03  0.91939523319E+02 0.  0.
        254    2    1    2    0    0  0.31170105796E+03  0.12430042799E+03 -0.30042847264E+03  0.10082361230E+04  0.90203917138E+03 0.  0.
         23    2    4    4    0    0  0.35364839651E+03  0.30143920386E+03 -0.52433514943E+03  0.70657147037E+03  0.91559335064E+02 0.  0.
         23    2    4    4    0    0 -0.41947338553E+02 -0.17713877587E+03  0.22390667679E+03  0.30166465267E+03  0.87918357779E+02 0.  0.
          1    1    3    3  502    0 -0.25526529069E+03 -0.12895754035E+03  0.24872208781E+03  0.37901595324E+03  0.00000000000E+00 0. -1.
         -1    1    3    3    0  502 -0.56435767274E+02  0.46571123555E+01  0.18089820158E+02  0.59446834371E+02  0.00000000000E+00 0.  1.
         13    1    5    5    0    0  0.55525082543E+02  0.15661484878E+02 -0.92792220919E+02  0.10926441856E+03  0.00000000000E+00 0. -1.
        -13    1    5    5    0    0  0.29812331397E+03  0.28577771898E+03 -0.43154292851E+03  0.59730705181E+03  0.00000000000E+00 0.  1.
          3    1    6    6  503    0 -0.23795448475E+02 -0.35864482026E+01  0.11210654010E+02  0.26547405564E+02  0.00000000000E+00 0. -1.
         -3    1    6    6    0  503 -0.18151890077E+02 -0.17355232766E+03  0.21269602278E+03  0.27511724711E+03  0.00000000000E+00 0.  1.
<mgrwt>
<rscale>  0 0.14463083E+04</rscale>
<asrwt>0</asrwt>
<pdfrwt beam="1">  1        1 0.10869864E+00 0.14463083E+04</pdfrwt>
<pdfrwt beam="2">  1       -1 0.11387042E+00 0.14463083E+04</pdfrwt>
<totfact> 0.18347831E+01</totfact>
</mgrwt>
</event>
<event>
12    3  0.4769008E-008  0.1887059E+04  0.7818608E-02  0.8661325E-01
          2   -1    0    0  501    0  0.00000000000E+00  0.00000000000E+00  0.20719126813E+04  0.20719126813E+04  0.00000000000E+00 0. -1.
         -2   -1    0    0    0  501 -0.00000000000E+00 -0.00000000000E+00 -0.42967466181E+03  0.42967466181E+03  0.00000000000E+00 0.  1.
         23    2    1    2    0    0 -0.63521577336E+03  0.18214690140E+02  0.10950738844E+04  0.12694469102E+04  0.92074924622E+02 0.  0.
        254    2    1    2    0    0  0.63521577336E+03 -0.18214690140E+02  0.54716413504E+03  0.12321404329E+04  0.90274614487E+03 0.  0.
         23    2    4    4    0    0  0.71954959005E+03  0.80080683255E+02  0.74380310365E+02  0.73331688564E+03  0.89759098857E+02 0.  0.
         23    2    4    4    0    0 -0.84333816689E+02 -0.98295373395E+02  0.47278382467E+03  0.49882354727E+03  0.92337497105E+02 0.  0.
          2    1    3    3  502    0 -0.54770484861E+03 -0.15219302961E+02  0.91657436109E+03  0.10678580373E+04  0.00000000000E+00 0. -1.
         -2    1    3    3    0  502 -0.87510924754E+02  0.33433993100E+02  0.17849952335E+03  0.20158887291E+03  0.00000000000E+00 0.  1.
         13    1    5    5    0    0  0.12068850531E+03 -0.18494261351E+02  0.21712052086E+01  0.12211661291E+03  0.00000000000E+00 0. -1.
        -13    1    5    5    0    0  0.59886108474E+03  0.98574944606E+02  0.72209105156E+02  0.61120027273E+03  0.00000000000E+00 0.  1.
          1    1    6    6  503    0  0.43874347124E+01 -0.52970961639E+02  0.10368328098E+03  0.11651349757E+03  0.00000000000E+00 0. -1.
         -1    1    6    6    0  503 -0.88721251401E+02 -0.45324411756E+02  0.36910054369E+03  0.38231004970E+03  0.00000000000E+00 0.  1.
<mgrwt>
<rscale>  0 0.18870595E+04</rscale>
<asrwt>0</asrwt>
<pdfrwt beam="1">  1        2 0.31875579E+00 0.18870595E+04</pdfrwt>
<pdfrwt beam="2">  1       -2 0.66103795E-01 0.18870595E+04</pdfrwt>
<totfact> 0.12024477E+01</totfact>
</mgrwt>
</event>
<event>
12    3  0.4769008E-008  0.1679923E+04  0.7818608E-02  0.8772898E-01
          2   -1    0    0  501    0  0.00000000000E+00  0.00000000000E+00  0.70148207443E+03  0.70148207443E+03  0.00000000000E+00 0. -1.
         -2   -1    0    0    0  501 -0.00000000000E+00 -0.00000000000E+00 -0.10057784240E+04  0.10057784240E+04  0.00000000000E+00 0.  1.
         23    2    1    2    0    0 -0.50649773958E+03  0.20725883440E+03  0.12300764020E+03  0.56833862358E+03  0.91551771552E+02 0.  0.
        254    2    1    2    0    0  0.50649773958E+03 -0.20725883440E+03 -0.42730398981E+03  0.11389218749E+04  0.90280571153E+03 0.  0.
         23    2    4    4    0    0 -0.12305415312E+03  0.14489637071E+03  0.10889099966E+03  0.23570619684E+03  0.86964812279E+02 0.  0.
         23    2    4    4    0    0  0.62955189269E+03 -0.35215520511E+03 -0.53619498947E+03  0.90321567805E+03  0.89132599360E+02 0.  0.
          2    1    3    3  502    0 -0.17006198464E+03  0.96484531881E+02  0.81050488168E+02  0.21165898314E+03  0.00000000000E+00 0. -1.
         -2    1    3    3    0  502 -0.33643575494E+03  0.11077430252E+03  0.41957152036E+02  0.35667964045E+03  0.00000000000E+00 0.  1.
         13    1    5    5    0    0 -0.12936709294E+03  0.13356424609E+03  0.11766453244E+03  0.22004589240E+03  0.00000000000E+00 0.  1.
        -13    1    5    5    0    0  0.63129398246E+01  0.11332124620E+02 -0.87735327726E+01  0.15660304433E+02  0.00000000000E+00 0. -1.
          1    1    6    6  503    0  0.15188491991E+03 -0.13015552131E+03 -0.15356625128E+03  0.25217470562E+03  0.00000000000E+00 0. -1.
         -1    1    6    6    0  503  0.47766697278E+03 -0.22199968380E+03 -0.38262873819E+03  0.65104097243E+03  0.00000000000E+00 0.  1.
<mgrwt>
<rscale>  0 0.16799233E+04</rscale>
<asrwt>0</asrwt>
<pdfrwt beam="1">  1        2 0.10792032E+00 0.16799233E+04</pdfrwt>
<pdfrwt beam="2">  1       -2 0.15473514E+00 0.16799233E+04</pdfrwt>
<totfact> 0.10733815E+01</totfact>
</mgrwt>
</event>
<event>
12    3  0.4769008E-008  0.1242269E+04  0.7818608E-02  0.9076642E-01
         -1   -1    0    0    0  501 -0.00000000000E+00  0.00000000000E+00  0.13286720435E+03  0.13286720435E+03  0.00000000000E+00 0.  1.
          1   -1    0    0  501    0  0.00000000000E+00 -0.00000000000E+00 -0.29037138008E+04  0.29037138008E+04  0.00000000000E+00 0. -1.
         23    2    1    2    0    0  0.18092367151E+02  0.24650661850E+03 -0.33756006010E+03  0.42811014923E+03  0.90767058907E+02 0.  0.
        254    2    1    2    0    0 -0.18092367151E+02 -0.24650661850E+03 -0.24332865364E+04  0.26084708560E+04  0.90672156231E+03 0.  0.
         23    2    4    4    0    0 -0.35497019152E+03 -0.16320187238E+03 -0.48871428975E+03  0.63106769225E+03  0.82256228833E+02 0.  0.
         23    2    4    4    0    0  0.33687782437E+03 -0.83304746120E+02 -0.19445722466E+04  0.19774031637E+04  0.91300055898E+02 0.  0.
          3    1    3    3  502    0  0.16671037200E+02  0.20770714317E+01 -0.37498065369E+02  0.41089446497E+02  0.00000000000E+00 0. -1.
         -3    1    3    3    0  502  0.14213299515E+01  0.24442954707E+03 -0.30006199473E+03  0.38702070273E+03  0.00000000000E+00 0.  1.
         13    1    5    5    0    0 -0.94796098827E+02 -0.81386646894E+02 -0.18031247109E+03  0.21936880790E+03  0.00000000000E+00 0.  1.
        -13    1    5    5    0    0 -0.26017409269E+03 -0.81815225490E+02 -0.30840181866E+03  0.41169888436E+03  0.00000000000E+00 0. -1.
          1    1    6    6  503    0  0.29696895198E+03 -0.55280250494E+02 -0.17903678026E+04  0.18156715929E+04  0.00000000000E+00 0. -1.
         -1    1    6    6    0  503  0.39908872391E+02 -0.28024495626E+02 -0.15420444402E+03  0.16173157084E+03  0.00000000000E+00 0.  1.
<mgrwt>
<rscale>  0 0.12422694E+04</rscale>
<asrwt>0</asrwt>
<pdfrwt beam="1">  1        1 0.44672515E+00 0.12422694E+04</pdfrwt>
<pdfrwt beam="2">  1       -1 0.20441110E-01 0.12422694E+04</pdfrwt>
<totfact> 0.13803863E+01</totfact>
</mgrwt>
</event>
<event>
12    3  0.4769008E-008  0.1482718E+04  0.7818608E-02  0.8896027E-01
          2   -1    0    0  501    0  0.00000000000E+00  0.00000000000E+00  0.67674876271E+03  0.67674876271E+03  0.00000000000E+00 0. -1.
         -2   -1    0    0    0  501 -0.00000000000E+00 -0.00000000000E+00 -0.81213821784E+03  0.81213821784E+03  0.00000000000E+00 0.  1.
         23    2    1    2    0    0 -0.42522059885E+03  0.17596507072E+03 -0.51828643052E+00  0.46983137113E+03  0.94683604046E+02 0.  0.
        254    2    1    2    0    0  0.42522059885E+03 -0.17596507072E+03 -0.13487116869E+03  0.10190556094E+04  0.89917063961E+03 0.  0.
         23    2    4    4    0    0  0.32594430429E+03  0.56507516952E+02 -0.47465588436E+03  0.58549343837E+03  0.89841910261E+02 0.  0.
         23    2    4    4    0    0  0.99276294559E+02 -0.23247258768E+03  0.33978471567E+03  0.43356217105E+03  0.92861275442E+02 0.  0.
          4    1    3    3  502    0 -0.60683715556E+01  0.13913280415E+02  0.13371879883E+02  0.20228981113E+02  0.00000000000E+00 0.  1.
         -4    1    3    3    0  502 -0.41915222730E+03  0.16205179031E+03 -0.13890166314E+02  0.44960239002E+03  0.00000000000E+00 0. -1.
         13    1    5    5    0    0  0.65556236270E+02 -0.24623596904E+02 -0.94073896302E+02  0.11727676498E+03  0.00000000000E+00 0. -1.
        -13    1    5    5    0    0  0.26038806802E+03  0.81131113855E+02 -0.38058198806E+03  0.46821667339E+03  0.00000000000E+00 0.  1.
          1    1    6    6  503    0 -0.23097379671E+01 -0.45849803036E+02  0.11706248856E+03  0.12574245725E+03  0.00000000000E+00 0. -1.
         -1    1    6    6    0  503  0.10158603253E+03 -0.18662278464E+03  0.22272222711E+03  0.30781971379E+03  0.00000000000E+00 0.  1.
<mgrwt>
<rscale>  0 0.14827185E+04</rscale>
<asrwt>0</asrwt>
<pdfrwt beam="1">  1        2 0.10411519E+00 0.14827185E+04</pdfrwt>
<pdfrwt beam="2">  1       -2 0.12494434E+00 0.14827185E+04</pdfrwt>
<totfact> 0.19851217E+01</totfact>
</mgrwt>
</event>
<event>
12    3  0.4769008E-008  0.2658950E+04  0.7818608E-02  0.8348448E-01
         -1   -1    0    0    0  501 -0.00000000000E+00  0.00000000000E+00  0.13009983445E+04  0.13009983445E+04  0.00000000000E+00 0.  1.
          1   -1    0    0  501    0  0.00000000000E+00 -0.00000000000E+00 -0.13585751109E+04  0.13585751109E+04  0.00000000000E+00 0. -1.
         23    2    1    2    0    0  0.68183082352E+03  0.68773066841E+03  0.63720180824E+03  0.11625790905E+04  0.87733989835E+02 0.  0.
        254    2    1    2    0    0 -0.68183082352E+03 -0.68773066841E+03 -0.69477857460E+03  0.14969943649E+04  0.90576383053E+03 0.  0.
         23    2    4    4    0    0 -0.64952272692E+03 -0.85168420461E+03 -0.73534809981E+03  0.13026372298E+04  0.94239945317E+02 0.  0.
         23    2    4    4    0    0 -0.32308096599E+02  0.16395353620E+03  0.40569525209E+02  0.19435713515E+03  0.90577229314E+02 0.  0.
          2    1    3    3  502    0  0.23077852485E+03  0.20167623120E+03  0.24326246869E+03  0.39129101502E+03  0.00000000000E+00 0. -1.
         -2    1    3    3    0  502  0.45105229868E+03  0.48605443720E+03  0.39393933955E+03  0.77128807543E+03  0.00000000000E+00 0.  1.
         13    1    5    5    0    0 -0.25519029008E+03 -0.34584021141E+03 -0.35095322280E+03  0.55488350180E+03  0.00000000000E+00 0. -1.
        -13    1    5    5    0    0 -0.39433243685E+03 -0.50584399320E+03 -0.38439487701E+03  0.74775372796E+03  0.00000000000E+00 0.  1.
          4    1    6    6  503    0 -0.26237246184E+02  0.15640488823E+03  0.62438311007E+02  0.17043891818E+03  0.00000000000E+00 0. -1.
         -4    1    6    6    0  503 -0.60708504151E+01  0.75486479776E+01 -0.21868785798E+02  0.23918216976E+02  0.00000000000E+00 0.  1.
<mgrwt>
<rscale>  0 0.26589501E+04</rscale>
<asrwt>0</asrwt>
<pdfrwt beam="1">  1        1 0.20901155E+00 0.26589501E+04</pdfrwt>
<pdfrwt beam="2">  1       -1 0.20015359E+00 0.26589501E+04</pdfrwt>
<totfact> 0.10811456E+00</totfact>
</mgrwt>
</event>
<event>
12    3  0.4769008E-008  0.1186379E+04  0.7818608E-02  0.9124863E-01
         -1   -1    0    0    0  501 -0.00000000000E+00  0.00000000000E+00  0.28465833220E+03  0.28465833220E+03  0.00000000000E+00 0.  1.
          1   -1    0    0  501    0  0.00000000000E+00 -0.00000000000E+00 -0.12361269606E+04  0.12361269606E+04  0.00000000000E+00 0. -1.
         23    2    1    2    0    0  0.14873572361E+03 -0.50252450618E+02 -0.40239770513E+03  0.44142813205E+03  0.91034380327E+02 0.  0.
        254    2    1    2    0    0 -0.14873572361E+03  0.50252450618E+02 -0.54907092332E+03  0.10793571608E+04  0.91590686068E+03 0.  0.
         23    2    4    4    0    0  0.13726916604E+03  0.41877506908E+03 -0.31832868774E+03  0.55090178147E+03  0.89130449130E+02 0.  0.
         23    2    4    4    0    0 -0.28600488965E+03 -0.36852261846E+03 -0.23074223558E+03  0.52845537932E+03  0.91735442583E+02 0.  0.
          1    1    3    3  502    0  0.12099993834E+03 -0.87435812373E+01 -0.20867871011E+03  0.24137986524E+03  0.00000000000E+00 0. -1.
         -1    1    3    3    0  502  0.27735785270E+02 -0.41508869381E+02 -0.19371899502E+03  0.20004826681E+03  0.00000000000E+00 0.  1.
         13    1    5    5    0    0  0.36012154862E+01  0.13389429053E+03 -0.11211975997E+03  0.17467538568E+03  0.00000000000E+00 0. -1.
        -13    1    5    5    0    0  0.13366795055E+03  0.28488077855E+03 -0.20620892777E+03  0.37622639579E+03  0.00000000000E+00 0.  1.
          4    1    6    6  503    0 -0.71679377332E+02 -0.37046415812E+02 -0.39715756834E+02  0.89931704088E+02  0.00000000000E+00 0. -1.
         -4    1    6    6    0  503 -0.21432551232E+03 -0.33147620265E+03 -0.19102647875E+03  0.43852367523E+03  0.00000000000E+00 0.  1.
<mgrwt>
<rscale>  0 0.11863791E+04</rscale>
<asrwt>0</asrwt>
<pdfrwt beam="1">  1        1 0.19017338E+00 0.11863791E+04</pdfrwt>
<pdfrwt beam="2">  1       -1 0.43793590E-01 0.11863791E+04</pdfrwt>
<totfact> 0.51308870E+01</totfact>
</mgrwt>
</event>
<event>
12    3  0.4769008E-008  0.1446603E+04  0.7818608E-02  0.8920759E-01
         -2   -1    0    0    0  501 -0.00000000000E+00  0.00000000000E+00  0.13998055002E+03  0.13998055002E+03  0.00000000000E+00 0. -1.
          2   -1    0    0  501    0  0.00000000000E+00 -0.00000000000E+00 -0.37374117575E+04  0.37374117575E+04  0.00000000000E+00 0.  1.
         23    2    1    2    0    0 -0.30056240990E+03 -0.21427583302E+03 -0.17114069190E+04  0.17533561197E+04  0.95352740380E+02 0.  0.
        254    2    1    2    0    0  0.30056240990E+03  0.21427583302E+03 -0.18860242885E+04  0.21240361878E+04  0.90453867562E+03 0.  0.
         23    2    4    4    0    0  0.43496023654E+03  0.48515111512E+03 -0.11901497637E+04  0.13599065827E+04  0.91254817589E+02 0.  0.
         23    2    4    4    0    0 -0.13439782664E+03 -0.27087528210E+03 -0.69587452474E+03  0.76412960513E+03  0.90644939117E+02 0.  0.
          4    1    3    3  502    0 -0.22868089211E+03 -0.14034516285E+03 -0.10388468585E+04  0.10729373283E+04  0.00000000000E+00 0.  1.
         -4    1    3    3    0  502 -0.71881517795E+02 -0.73930670167E+02 -0.67256006055E+03  0.68041879136E+03  0.00000000000E+00 0. -1.
         13    1    5    5    0    0  0.19424866991E+03  0.16852623970E+03 -0.53234083267E+03  0.59120250453E+03  0.00000000000E+00 0.  1.
        -13    1    5    5    0    0  0.24071156663E+03  0.31662487542E+03 -0.65780893105E+03  0.76870407818E+03  0.00000000000E+00 0. -1.
          1    1    6    6  503    0 -0.10352136037E+03 -0.21167817738E+03 -0.61886724026E+03  0.66220916930E+03  0.00000000000E+00 0. -1.
         -1    1    6    6    0  503 -0.30876466270E+02 -0.59197104721E+02 -0.77007284479E+02  0.10192043583E+03  0.00000000000E+00 0.  1.
<mgrwt>
<rscale>  0 0.14466029E+04</rscale>
<asrwt>0</asrwt>
<pdfrwt beam="1">  1        2 0.57498636E+00 0.14466029E+04</pdfrwt>
<pdfrwt beam="2">  1       -2 0.21535472E-01 0.14466029E+04</pdfrwt>
<totfact> 0.10164275E+01</totfact>
</mgrwt>
</event>
<event>
12    3  0.4769008E-008  0.2651227E+04  0.7818608E-02  0.8351006E-01
         -1   -1    0    0    0  501 -0.00000000000E+00  0.00000000000E+00  0.95244677984E+03  0.95244677984E+03  0.00000000000E+00 0.  1.
          1   -1    0    0  501    0  0.00000000000E+00 -0.00000000000E+00 -0.18449863778E+04  0.18449863778E+04  0.00000000000E+00 0. -1.
         23    2    1    2    0    0 -0.18874220378E+03 -0.10773345388E+04 -0.84132300068E+03  0.13829905236E+04  0.92547657402E+02 0.  0.
        254    2    1    2    0    0  0.18874220378E+03  0.10773345388E+04 -0.51216597252E+02  0.14144426340E+04  0.89540577235E+03 0.  0.
         23    2    4    4    0    0  0.34417993237E+03  0.17916177498E+03  0.22333620153E+03  0.45825485020E+03  0.97773623025E+02 0.  0.
         23    2    4    4    0    0 -0.15543772858E+03  0.89817276381E+03 -0.27455279878E+03  0.95618778383E+03  0.89669601880E+02 0.  0.
          3    1    3    3  502    0 -0.96111146300E+02 -0.51802399774E+03 -0.46324469108E+03  0.70155673932E+03  0.00000000000E+00 0. -1.
         -3    1    3    3    0  502 -0.92631057484E+02 -0.55931054105E+03 -0.37807830960E+03  0.68143378426E+03  0.00000000000E+00 0.  1.
         13    1    5    5    0    0  0.33774221373E+03  0.17456080163E+03  0.19196521433E+03  0.42590130302E+03  0.00000000000E+00 0.  1.
        -13    1    5    5    0    0  0.64377186339E+01  0.46009733523E+01  0.31370987204E+02  0.32353547180E+02  0.00000000000E+00 0. -1.
          3    1    6    6  503    0 -0.27876521534E+02  0.23631923080E+03 -0.11111245183E+03  0.26262112682E+03  0.00000000000E+00 0. -1.
         -3    1    6    6    0  503 -0.12756120705E+03  0.66185353302E+03 -0.16344034695E+03  0.69356665701E+03  0.00000000000E+00 0.  1.
<mgrwt>
<rscale>  0 0.26512271E+04</rscale>
<asrwt>0</asrwt>
<pdfrwt beam="1">  1        1 0.28384406E+00 0.26512271E+04</pdfrwt>
<pdfrwt beam="2">  1       -1 0.14653027E+00 0.26512271E+04</pdfrwt>
<totfact> 0.12369206E+00</totfact>
</mgrwt>
</event>
<event>
12    3  0.4769008E-008  0.1705251E+04  0.7818608E-02  0.8758375E-01
         -1   -1    0    0    0  501 -0.00000000000E+00  0.00000000000E+00  0.48974869583E+03  0.48974869583E+03  0.00000000000E+00 0.  1.
          1   -1    0    0  501    0  0.00000000000E+00 -0.00000000000E+00 -0.14843736814E+04  0.14843736814E+04  0.00000000000E+00 0. -1.
         23    2    1    2    0    0 -0.62983368815E+03  0.69975679254E+02 -0.49427006919E+03  0.80841636879E+03  0.87447433477E+02 0.  0.
        254    2    1    2    0    0  0.62983368815E+03 -0.69975679254E+02 -0.50035491633E+03  0.11657060084E+04  0.84079033374E+03 0.  0.
         23    2    4    4    0    0  0.11193327574E+03 -0.32945371904E+03  0.47794658099E+02  0.36294738283E+03  0.91529569816E+02 0.  0.
         23    2    4    4    0    0  0.51790041241E+03  0.25947803979E+03 -0.54814957443E+03  0.80275862557E+03  0.91672049578E+02 0.  0.
          4    1    3    3  502    0 -0.62998752373E+03  0.66444456880E+02 -0.49592577702E+03  0.80451322066E+03  0.00000000000E+00 0. -1.
         -4    1    3    3    0  502  0.15383558795E+00  0.35312223733E+01  0.16557078355E+01  0.39031481236E+01  0.00000000000E+00 0.  1.
         13    1    5    5    0    0 -0.13174705329E+02 -0.95087288334E+01  0.24784097267E+01  0.16435671550E+02  0.00000000000E+00 0.  1.
        -13    1    5    5    0    0  0.12510798107E+03 -0.31994499021E+03  0.45316248373E+02  0.34651171128E+03  0.00000000000E+00 0. -1.
          2    1    6    6  503    0  0.31964563947E+03  0.14131188642E+03 -0.38590436485E+03  0.52063861064E+03  0.00000000000E+00 0. -1.
         -2    1    6    6    0  503  0.19825477293E+03  0.11816615337E+03 -0.16224520959E+03  0.28212001493E+03  0.00000000000E+00 0.  1.
<mgrwt>
<rscale>  0 0.17052508E+04</rscale>
<asrwt>0</asrwt>
<pdfrwt beam="1">  1        1 0.22836518E+00 0.17052508E+04</pdfrwt>
<pdfrwt beam="2">  1       -1 0.75345955E-01 0.17052508E+04</pdfrwt>
<totfact> 0.11296633E+01</totfact>
</mgrwt>
</event>
<event>
12    3  0.4769008E-008  0.1897315E+04  0.7818608E-02  0.8656194E-01
         -1   -1    0    0    0  501 -0.00000000000E+00  0.00000000000E+00  0.12136306147E+04  0.12136306147E+04  0.00000000000E+00 0.  1.
          1   -1    0    0  501    0  0.00000000000E+00 -0.00000000000E+00 -0.74153624161E+03  0.74153624161E+03  0.00000000000E+00 0. -1.
         23    2    1    2    0    0 -0.42660255707E+03  0.11669056461E+03 -0.41424160444E+03  0.61379660511E+03  0.97692046951E+02 0.  0.
        254    2    1    2    0    0  0.42660255707E+03 -0.11669056461E+03  0.88633597755E+03  0.13413702512E+04  0.90447568026E+03 0.  0.
         23    2    4    4    0    0  0.28212671950E+03  0.37777328839E+03  0.37022427015E+03  0.60639862765E+03  0.91351749465E+02 0.  0.
         23    2    4    4    0    0  0.14447583757E+03 -0.49446385300E+03  0.51611170739E+03  0.73497162356E+03  0.91892455412E+02 0.  0.
          2    1    3    3  502    0 -0.36837047955E+03  0.94517844819E+02 -0.39560998393E+03  0.54876014121E+03  0.00000000000E+00 0. -1.
         -2    1    3    3    0  502 -0.58232077515E+02  0.22172719793E+02 -0.18631620510E+02  0.65036463907E+02  0.00000000000E+00 0.  1.
         13    1    5    5    0    0  0.21211341464E+03  0.31088798117E+03  0.33344646160E+03  0.50282201648E+03  0.00000000000E+00 0.  1.
        -13    1    5    5    0    0  0.70013304862E+02  0.66885307220E+02  0.36777808556E+02  0.10357661117E+03  0.00000000000E+00 0. -1.
          2    1    6    6  503    0 -0.86215607321E+01 -0.66287266698E+01  0.18752311740E+02  0.21677650295E+02  0.00000000000E+00 0. -1.
         -2    1    6    6    0  503  0.15309739830E+03 -0.48783512633E+03  0.49735939565E+03  0.71329397326E+03  0.00000000000E+00 0.  1.
<mgrwt>
<rscale>  0 0.18973150E+04</rscale>
<asrwt>0</asrwt>
<pdfrwt beam="1">  1        1 0.11408250E+00 0.18973150E+04</pdfrwt>
<pdfrwt beam="2">  1       -1 0.18671240E+00 0.18973150E+04</pdfrwt>
<totfact> 0.43480311E+00</totfact>
</mgrwt>
</event>
<event>
12    3  0.4769008E-008  0.1596634E+04  0.7818608E-02  0.8822618E-01
          2   -1    0    0  501    0  0.00000000000E+00  0.00000000000E+00  0.20893193963E+04  0.20893193963E+04  0.00000000000E+00 0. -1.
         -2   -1    0    0    0  501 -0.00000000000E+00 -0.00000000000E+00 -0.30503238688E+03  0.30503238688E+03  0.00000000000E+00 0.  1.
         23    2    1    2    0    0  0.34962250021E+03 -0.27134122007E+03  0.14372351711E+03  0.47429513901E+03  0.91855751861E+02 0.  0.
        254    2    1    2    0    0 -0.34962250021E+03  0.27134122007E+03  0.16405634923E+04  0.19200566442E+04  0.89403970503E+03 0.  0.
         23    2    4    4    0    0 -0.17636977697E+03 -0.96562663523E+02 -0.72520301190E+01  0.21998618546E+03  0.88942024021E+02 0.  0.
         23    2    4    4    0    0 -0.17325272324E+03  0.36790388359E+03  0.16478155225E+04  0.17000704587E+04  0.97845771177E+02 0.  0.
          3    1    3    3  502    0  0.26310467020E+02 -0.37777081858E+01 -0.84480346595E+01  0.27890518883E+02  0.00000000000E+00 0. -1.
         -3    1    3    3    0  502  0.32331203319E+03 -0.26756351189E+03  0.15217155177E+03  0.44640462012E+03  0.00000000000E+00 0.  1.
         13    1    5    5    0    0 -0.12861485477E+03 -0.11072699499E+03 -0.45150263911E+00  0.16971285202E+03  0.00000000000E+00 0. -1.
        -13    1    5    5    0    0 -0.47754922209E+02  0.14164331472E+02 -0.68005274799E+01  0.50273333440E+02  0.00000000000E+00 0.  1.
          1    1    6    6  503    0 -0.72360363008E+02  0.20494327450E+03  0.69587522352E+03  0.72902681336E+03  0.00000000000E+00 0. -1.
         -1    1    6    6    0  503 -0.10089236023E+03  0.16296060909E+03  0.95194029895E+03  0.97104364538E+03  0.00000000000E+00 0.  1.
<mgrwt>
<rscale>  0 0.15966341E+04</rscale>
<asrwt>0</asrwt>
<pdfrwt beam="1">  1        2 0.32143374E+00 0.15966341E+04</pdfrwt>
<pdfrwt beam="2">  1       -2 0.46928061E-01 0.15966341E+04</pdfrwt>
<totfact> 0.24605842E+01</totfact>
</mgrwt>
</event>
<event>
12    3  0.4769008E-008  0.2500894E+04  0.7818608E-02  0.8402667E-01
          2   -1    0    0  501    0  0.00000000000E+00  0.00000000000E+00  0.21719810138E+04  0.21719810138E+04  0.00000000000E+00 0.  1.
         -2   -1    0    0    0  501 -0.00000000000E+00 -0.00000000000E+00 -0.71990367054E+03  0.71990367054E+03  0.00000000000E+00 0. -1.
         23    2    1    2    0    0  0.33669702658E+03  0.19961731365E+03 -0.54244449993E+03  0.67410970453E+03  0.83461959092E+02 0.  0.
        254    2    1    2    0    0 -0.33669702658E+03 -0.19961731365E+03  0.19945218432E+04  0.22177749799E+04  0.88724095855E+03 0.  0.
         23    2    4    4    0    0  0.24535699080E+03 -0.26823005934E+03  0.83566581055E+03  0.91591103401E+03  0.91696551911E+02 0.  0.
         23    2    4    4    0    0 -0.58205401738E+03  0.68612745691E+02  0.11588560327E+04  0.13018639458E+04  0.91694280081E+02 0.  0.
          3    1    3    3  502    0  0.33770963782E+03  0.20478849995E+03 -0.53554698164E+03  0.66542970984E+03  0.00000000000E+00 0. -1.
         -3    1    3    3    0  502 -0.10126112385E+01 -0.51711863007E+01 -0.68975182886E+01  0.86799946900E+01  0.00000000000E+00 0.  1.
         13    1    5    5    0    0  0.22675437398E+03 -0.25195885080E+03  0.81823245676E+03  0.88566650717E+03  0.00000000000E+00 0.  1.
        -13    1    5    5    0    0  0.18602616820E+02 -0.16271208533E+02  0.17433353788E+02  0.30244526843E+02  0.00000000000E+00 0. -1.
          4    1    6    6  503    0 -0.58071635805E+02  0.35070903020E+02  0.14667080089E+03  0.16160014529E+03  0.00000000000E+00 0. -1.
         -4    1    6    6    0  503 -0.52398238157E+03  0.33541842672E+02  0.10121852318E+04  0.11402638006E+04  0.00000000000E+00 0.  1.
<mgrwt>
<rscale>  0 0.25008935E+04</rscale>
<asrwt>0</asrwt>
<pdfrwt beam="1">  1        2 0.33415092E+00 0.25008935E+04</pdfrwt>
<pdfrwt beam="2">  1       -2 0.11075441E+00 0.25008935E+04</pdfrwt>
<totfact> 0.30855682E+00</totfact>
</mgrwt>
</event>
<event>
12    3  0.4769008E-008  0.1386943E+04  0.7818608E-02  0.8963324E-01
          1   -1    0    0  501    0  0.00000000000E+00  0.00000000000E+00  0.18648517850E+04  0.18648517850E+04  0.00000000000E+00 0. -1.
         -1   -1    0    0    0  501 -0.00000000000E+00 -0.00000000000E+00 -0.25787717301E+03  0.25787717301E+03  0.00000000000E+00 0.  1.
         23    2    1    2    0    0 -0.99866463358E+02  0.17356236509E+03  0.97989099784E+03  0.10043257592E+04  0.91578697868E+02 0.  0.
        254    2    1    2    0    0  0.99866463358E+02 -0.17356236509E+03  0.62708361411E+03  0.11184031988E+04  0.90415410790E+03 0.  0.
         23    2    4    4    0    0 -0.52767234515E+02  0.35184367607E+03  0.20058332104E+03  0.41868630106E+03  0.92120554602E+02 0.  0.
         23    2    4    4    0    0  0.15263369787E+03 -0.52540604116E+03  0.42650029307E+03  0.69971689770E+03  0.91393014671E+02 0.  0.
          1    1    3    3  502    0 -0.40282237752E+02  0.52898566672E+02  0.15693287609E+03  0.17043721610E+03  0.00000000000E+00 0. -1.
         -1    1    3    3    0  502 -0.59584225606E+02  0.12066379841E+03  0.82295812175E+03  0.83388854312E+03  0.00000000000E+00 0.  1.
         13    1    5    5    0    0 -0.16722402410E+02  0.31572170026E+03  0.16655942022E+03  0.35735398588E+03  0.00000000000E+00 0. -1.
        -13    1    5    5    0    0 -0.36044832105E+02  0.36121975814E+02  0.34023900825E+02  0.61332315181E+02  0.00000000000E+00 0.  1.
          4    1    6    6  503    0  0.35398655227E+02 -0.22845063669E+03  0.13686251099E+03  0.26865238713E+03  0.00000000000E+00 0. -1.
         -4    1    6    6    0  503  0.11723504264E+03 -0.29695540447E+03  0.28963778208E+03  0.43106451057E+03  0.00000000000E+00 0.  1.
<mgrwt>
<rscale>  0 0.13869430E+04</rscale>
<asrwt>0</asrwt>
<pdfrwt beam="1">  1        1 0.28690027E+00 0.13869430E+04</pdfrwt>
<pdfrwt beam="2">  1       -1 0.39673412E-01 0.13869430E+04</pdfrwt>
<totfact> 0.22225978E+01</totfact>
</mgrwt>
</event>
<event>
12    3  0.4769008E-008  0.1810014E+04  0.7818608E-02  0.8700992E-01
          2   -1    0    0  501    0  0.00000000000E+00  0.00000000000E+00  0.13571057992E+04  0.13571057992E+04  0.00000000000E+00 0.  1.
         -2   -1    0    0    0  501 -0.00000000000E+00 -0.00000000000E+00 -0.60351810889E+03  0.60351810889E+03  0.00000000000E+00 0. -1.
         23    2    1    2    0    0  0.29320035236E+03  0.26343831487E+03  0.99669937526E+03  0.10756241488E+04  0.90506754051E+02 0.  0.
        254    2    1    2    0    0 -0.29320035236E+03 -0.26343831487E+03 -0.24311168496E+03  0.88499975925E+03  0.75415853118E+03 0.  0.
         23    2    4    4    0    0 -0.37035862363E+03 -0.47275887210E+03 -0.14945323478E+03  0.62545034882E+03  0.90473245806E+02 0.  0.
         23    2    4    4    0    0  0.77158271270E+02  0.20932055723E+03 -0.93658450181E+02  0.25954941043E+03  0.93944114559E+02 0.  0.
          4    1    3    3  502    0  0.85243887112E+01  0.11413322512E+02  0.79959994766E+01  0.16336007508E+02  0.00000000000E+00 0. -1.
         -4    1    3    3    0  502  0.28467596364E+03  0.25202499236E+03  0.98870337579E+03  0.10592881413E+04  0.00000000000E+00 0.  1.
         13    1    5    5    0    0 -0.12645801363E+03 -0.16239363607E+03 -0.96013261993E+02  0.22711642108E+03  0.00000000000E+00 0. -1.
        -13    1    5    5    0    0 -0.24390060999E+03 -0.31036523604E+03 -0.53439972785E+02  0.39833392774E+03  0.00000000000E+00 0.  1.
          4    1    6    6  503    0  0.44257871410E+01 -0.38044682911E+01  0.10050648832E+02  0.11622267969E+02  0.00000000000E+00 0. -1.
         -4    1    6    6    0  503  0.72732484129E+02  0.21312502552E+03 -0.10370909901E+03  0.24792714246E+03  0.00000000000E+00 0.  1.
<mgrwt>
<rscale>  0 0.18100143E+04</rscale>
<asrwt>0</asrwt>
<pdfrwt beam="1">  1        2 0.20878551E+00 0.18100143E+04</pdfrwt>
<pdfrwt beam="2">  1       -2 0.92848941E-01 0.18100143E+04</pdfrwt>
<totfact> 0.14206539E+01</totfact>
</mgrwt>
</event>
<event>
12    3  0.4769008E-008  0.1573256E+04  0.7818608E-02  0.8837149E-01
          1   -1    0    0  501    0  0.00000000000E+00  0.00000000000E+00  0.32957295044E+04  0.32957295044E+04  0.00000000000E+00 0. -1.
         -1   -1    0    0    0  501 -0.00000000000E+00 -0.00000000000E+00 -0.18775311128E+03  0.18775311128E+03  0.00000000000E+00 0.  1.
         23    2    1    2    0    0 -0.43925365988E+03  0.81850899787E+02  0.17387865833E+04  0.17975646831E+04  0.90645794471E+02 0.  0.
        254    2    1    2    0    0  0.43925365988E+03 -0.81850899787E+02  0.13691898097E+04  0.16859179325E+04  0.87635334919E+03 0.  0.
         23    2    4    4    0    0 -0.20344256711E+03 -0.22703926450E+03  0.40479188340E+03  0.51417245685E+03  0.87069746610E+02 0.  0.
         23    2    4    4    0    0  0.64269622699E+03  0.14518836471E+03  0.96439792633E+03  0.11717454757E+04  0.93733654758E+02 0.  0.
          1    1    3    3  502    0 -0.33476537348E+03  0.78600238579E+02  0.14565253988E+04  0.14965667677E+04  0.00000000000E+00 0. -1.
         -1    1    3    3    0  502 -0.10448828640E+03  0.32506612075E+01  0.28226118449E+03  0.30099791538E+03  0.00000000000E+00 0.  1.
         13    1    5    5    0    0 -0.18686478224E+03 -0.17472431923E+03  0.36767806006E+03  0.44792208075E+03  0.00000000000E+00 0.  1.
        -13    1    5    5    0    0 -0.16577784868E+02 -0.52314945274E+02  0.37113823337E+02  0.66250376096E+02  0.00000000000E+00 0. -1.
          3    1    6    6  503    0  0.46925614020E+03  0.91198826518E+02  0.76440083405E+03  0.90156929083E+03  0.00000000000E+00 0. -1.
         -3    1    6    6    0  503  0.17344008679E+03  0.53989538196E+02  0.19999709229E+03  0.27017618485E+03  0.00000000000E+00 0.  1.
<mgrwt>
<rscale>  0 0.15732558E+04</rscale>
<asrwt>0</asrwt>
<pdfrwt beam="1">  1        1 0.50703526E+00 0.15732558E+04</pdfrwt>
<pdfrwt beam="2">  1       -1 0.28885097E-01 0.15732558E+04</pdfrwt>
<totfact> 0.38031426E+00</totfact>
</mgrwt>
</event>
<event>
12    3  0.4769008E-008  0.1694234E+04  0.7818608E-02  0.8764660E-01
         -2   -1    0    0    0  501 -0.00000000000E+00  0.00000000000E+00  0.25477906187E+03  0.25477906187E+03  0.00000000000E+00 0. -1.
          2   -1    0    0  501    0  0.00000000000E+00 -0.00000000000E+00 -0.28165871701E+04  0.28165871701E+04  0.00000000000E+00 0.  1.
         23    2    1    2    0    0  0.54565854788E+03 -0.20756153392E+03 -0.63915646017E+03  0.86994461827E+03  0.86357495635E+02 0.  0.
        254    2    1    2    0    0 -0.54565854788E+03  0.20756153392E+03 -0.19226516480E+04  0.22014216137E+04  0.89935683699E+03 0.  0.
         23    2    4    4    0    0 -0.73204177816E+03  0.11317465038E+03 -0.17866525295E+04  0.19362420321E+04  0.90621626134E+02 0.  0.
         23    2    4    4    0    0  0.18638323028E+03  0.94386883545E+02 -0.13599911852E+03  0.26517958159E+03  0.90425980443E+02 0.  0.
          1    1    3    3  502    0  0.53721544489E+03 -0.18899137583E+03 -0.62157063068E+03  0.84301140164E+03  0.00000000000E+00 0. -1.
         -1    1    3    3    0  502  0.84431029868E+01 -0.18570158090E+02 -0.17585829488E+02  0.26933216635E+02  0.00000000000E+00 0.  1.
         13    1    5    5    0    0 -0.65320166563E+03  0.79487151951E+02 -0.16269617514E+04  0.17549914997E+04  0.00000000000E+00 0.  1.
        -13    1    5    5    0    0 -0.78840112534E+02  0.33687498424E+02 -0.15969077810E+03  0.18125053243E+03  0.00000000000E+00 0. -1.
          1    1    6    6  503    0  0.38841419265E+02  0.67070417192E+02 -0.49972615519E+02  0.92219081619E+02  0.00000000000E+00 0. -1.
         -1    1    6    6    0  503  0.14754181102E+03  0.27316466354E+02 -0.86026502997E+02  0.17296049997E+03  0.00000000000E+00 0.  1.
<mgrwt>
<rscale>  0 0.16942343E+04</rscale>
<asrwt>0</asrwt>
<pdfrwt beam="1">  1        2 0.43332111E+00 0.16942343E+04</pdfrwt>
<pdfrwt beam="2">  1       -2 0.39196778E-01 0.16942343E+04</pdfrwt>
<totfact> 0.13283110E+01</totfact>
</mgrwt>
</event>
<event>
12    3  0.4769008E-008  0.1991265E+04  0.7818608E-02  0.8610715E-01
         -1   -1    0    0    0  501 -0.00000000000E+00  0.00000000000E+00  0.50869788683E+03  0.50869788683E+03  0.00000000000E+00 0.  1.
          1   -1    0    0  501    0  0.00000000000E+00 -0.00000000000E+00 -0.19486699373E+04  0.19486699373E+04  0.00000000000E+00 0. -1.
         23    2    1    2    0    0  0.13060642437E+03 -0.63795390533E+03 -0.13985189142E+02  0.65788732330E+03  0.92611668969E+02 0.  0.
        254    2    1    2    0    0 -0.13060642437E+03  0.63795390533E+03 -0.14259868613E+04  0.17994805008E+04  0.88354304976E+03 0.  0.
         23    2    4    4    0    0 -0.32478573388E+03  0.73781039168E+03 -0.84156099124E+03  0.11689316238E+04  0.91248518300E+02 0.  0.
         23    2    4    4    0    0  0.19417930951E+03 -0.99856486349E+02 -0.58442587007E+03  0.63054887704E+03  0.91440508594E+02 0.  0.
          2    1    3    3  502    0 -0.10502672208E+02 -0.61602419341E+02 -0.16010833064E+02  0.64509774202E+02  0.00000000000E+00 0. -1.
         -2    1    3    3    0  502  0.14110909658E+03 -0.57635148599E+03  0.20256439225E+01  0.59337754910E+03  0.00000000000E+00 0.  1.
         13    1    5    5    0    0 -0.59704021785E+02  0.21813928265E+03 -0.20152111893E+03  0.30291926025E+03  0.00000000000E+00 0. -1.
        -13    1    5    5    0    0 -0.26508171210E+03  0.51967110903E+03 -0.64003987231E+03  0.86601236353E+03  0.00000000000E+00 0.  1.
          2    1    6    6  503    0  0.16935554748E+03 -0.52959922953E+02 -0.50280186868E+03  0.53319393662E+03  0.00000000000E+00 0.  1.
         -2    1    6    6    0  503  0.24823762032E+02 -0.46896563397E+02 -0.81624001398E+02  0.97354940420E+02  0.00000000000E+00 0. -1.
<mgrwt>
<rscale>  0 0.19912652E+04</rscale>
<asrwt>0</asrwt>
<pdfrwt beam="1">  1        1 0.29979537E+00 0.19912652E+04</pdfrwt>
<pdfrwt beam="2">  1       -1 0.78261214E-01 0.19912652E+04</pdfrwt>
<totfact> 0.48991330E+00</totfact>
</mgrwt>
</event>
<event>
12    3  0.4769008E-008  0.3125110E+04  0.7818608E-02  0.8208880E-01
         -2   -1    0    0    0  501 -0.00000000000E+00  0.00000000000E+00  0.94965913714E+03  0.94965913714E+03  0.00000000000E+00 0.  1.
          2   -1    0    0  501    0  0.00000000000E+00 -0.00000000000E+00 -0.25710048585E+04  0.25710048585E+04  0.00000000000E+00 0. -1.
         23    2    1    2    0    0  0.15645080232E+03 -0.14018345297E+04 -0.48187426330E+03  0.14933796545E+04  0.91449902479E+02 0.  0.
        254    2    1    2    0    0 -0.15645080232E+03  0.14018345297E+04 -0.11394714581E+04  0.20272843412E+04  0.90657029176E+03 0.  0.
         23    2    4    4    0    0 -0.31472965413E+03  0.10346526805E+04 -0.35495843774E+03  0.11419051595E+04  0.91602272476E+02 0.  0.
         23    2    4    4    0    0  0.15827885181E+03  0.36718184924E+03 -0.78451302034E+03  0.88537918169E+03  0.92525190835E+02 0.  0.
          4    1    3    3  502    0  0.14924431493E+03 -0.13148416606E+04 -0.42789378166E+03  0.13907463990E+04  0.00000000000E+00 0.  1.
         -4    1    3    3    0  502  0.72064873894E+01 -0.86992869068E+02 -0.53980481636E+02  0.10263325546E+03  0.00000000000E+00 0. -1.
         13    1    5    5    0    0 -0.48086067411E+02  0.21066777762E+03 -0.10656324782E+03  0.24093341029E+03  0.00000000000E+00 0. -1.
        -13    1    5    5    0    0 -0.26664358672E+03  0.82398490284E+03 -0.24839518992E+03  0.90097174918E+03  0.00000000000E+00 0.  1.
          1    1    6    6  503    0  0.84922526457E+02  0.90970444545E+02 -0.22626741533E+03  0.25823322893E+03  0.00000000000E+00 0. -1.
         -1    1    6    6    0  503  0.73356325354E+02  0.27621140470E+03 -0.55824560501E+03  0.62714595276E+03  0.00000000000E+00 0.  1.
<mgrwt>
<rscale>  0 0.31251101E+04</rscale>
<asrwt>0</asrwt>
<pdfrwt beam="1">  1        2 0.39553920E+00 0.31251101E+04</pdfrwt>
<pdfrwt beam="2">  1       -2 0.14610141E+00 0.31251101E+04</pdfrwt>
<totfact> 0.86109192E-01</totfact>
</mgrwt>
</event>
<event>
12    3  0.4769008E-008  0.2112992E+04  0.7818608E-02  0.8555542E-01
          2   -1    0    0  501    0  0.00000000000E+00  0.00000000000E+00  0.76210712338E+03  0.76210712338E+03  0.00000000000E+00 0. -1.
         -2   -1    0    0    0  501 -0.00000000000E+00 -0.00000000000E+00 -0.14646018843E+04  0.14646018843E+04  0.00000000000E+00 0.  1.
         23    2    1    2    0    0 -0.93366177082E+02 -0.84770220108E+03 -0.41665524054E+03  0.95352322857E+03  0.91042260644E+02 0.  0.
        254    2    1    2    0    0  0.93366177082E+02  0.84770220108E+03 -0.28583952041E+03  0.12731857791E+04  0.90110017870E+03 0.  0.
         23    2    4    4    0    0 -0.29450820335E+03  0.76832916007E+03 -0.25178533144E+03  0.86548932540E+03  0.92796224078E+02 0.  0.
         23    2    4    4    0    0  0.38787438043E+03  0.79373041006E+02 -0.34054188970E+02  0.40769645374E+03  0.91159727799E+02 0.  0.
          4    1    3    3  502    0 -0.21485845599E+02 -0.52509860607E+02 -0.10415321480E+02  0.57683671378E+02  0.00000000000E+00 0. -1.
         -4    1    3    3    0  502 -0.71880331483E+02 -0.79519234047E+03 -0.40623991906E+03  0.89583955719E+03  0.00000000000E+00 0.  1.
         13    1    5    5    0    0 -0.21569040388E+03  0.64579549661E+03 -0.18725069452E+03  0.70614233435E+03  0.00000000000E+00 0. -1.
        -13    1    5    5    0    0 -0.78817799470E+02  0.12253366346E+03 -0.64534636920E+02  0.15934699105E+03  0.00000000000E+00 0.  1.
          1    1    6    6  503    0  0.83698915502E+02 -0.71426407795E+01  0.21268991623E+02  0.86653884958E+02  0.00000000000E+00 0. -1.
         -1    1    6    6    0  503  0.30417546493E+03  0.86515681786E+02 -0.55323180593E+02  0.32104256878E+03  0.00000000000E+00 0.  1.
<mgrwt>
<rscale>  0 0.21129917E+04</rscale>
<asrwt>0</asrwt>
<pdfrwt beam="1">  1        2 0.11724725E+00 0.21129917E+04</pdfrwt>
<pdfrwt beam="2">  1       -2 0.22532336E+00 0.21129917E+04</pdfrwt>
<totfact> 0.30913020E+00</totfact>
</mgrwt>
</event>
<event>
12    3  0.4769008E-008  0.1593390E+04  0.7818608E-02  0.8824619E-01
          2   -1    0    0  501    0  0.00000000000E+00  0.00000000000E+00  0.71775466598E+03  0.71775466598E+03  0.00000000000E+00 0. -1.
         -2   -1    0    0    0  501 -0.00000000000E+00 -0.00000000000E+00 -0.88431698907E+03  0.88431698907E+03  0.00000000000E+00 0.  1.
         23    2    1    2    0    0  0.65123785363E+02 -0.10010959068E+03  0.47035514370E+03  0.49373324864E+03  0.90969896318E+02 0.  0.
        254    2    1    2    0    0 -0.65123785363E+02  0.10010959068E+03 -0.63691746680E+03  0.11083384064E+04  0.89915912165E+03 0.  0.
         23    2    4    4    0    0  0.78557100441E+02 -0.32469833571E+03 -0.53781511967E+03  0.63973533460E+03  0.91738585940E+02 0.  0.
         23    2    4    4    0    0 -0.14368088580E+03  0.42480792639E+03 -0.99102347135E+02  0.46860307181E+03  0.93067676643E+02 0.  0.
          1    1    3    3  502    0  0.17192728882E+02 -0.75025795380E+02  0.38543686232E+03  0.39304711516E+03  0.00000000000E+00 0. -1.
         -1    1    3    3    0  502  0.47931056480E+02 -0.25083795295E+02  0.84918281380E+02  0.10068613348E+03  0.00000000000E+00 0.  1.
         13    1    5    5    0    0  0.69344284395E+02 -0.20302214480E+03 -0.41173097035E+03  0.46427256327E+03  0.00000000000E+00 0. -1.
        -13    1    5    5    0    0  0.92128160458E+01 -0.12167619092E+03 -0.12608414931E+03  0.17546277133E+03  0.00000000000E+00 0.  1.
          3    1    6    6  503    0 -0.11387523783E+03  0.32526214950E+03 -0.34725836832E+02  0.34636529768E+03  0.00000000000E+00 0. -1.
         -3    1    6    6    0  503 -0.29805647970E+02  0.99545776885E+02 -0.64376510303E+02  0.12223777413E+03  0.00000000000E+00 0.  1.
<mgrwt>
<rscale>  0 0.15933897E+04</rscale>
<asrwt>0</asrwt>
<pdfrwt beam="1">  1        2 0.11042379E+00 0.15933897E+04</pdfrwt>
<pdfrwt beam="2">  1       -2 0.13604877E+00 0.15933897E+04</pdfrwt>
<totfact> 0.14721236E+01</totfact>
</mgrwt>
</event>
<event>
12    3  0.4769008E-008  0.1589920E+04  0.7818608E-02  0.8826765E-01
          2   -1    0    0  501    0  0.00000000000E+00  0.00000000000E+00  0.62830718284E+03  0.62830718284E+03  0.00000000000E+00 0. -1.
         -2   -1    0    0    0  501 -0.00000000000E+00 -0.00000000000E+00 -0.10058157108E+04  0.10058157108E+04  0.00000000000E+00 0.  1.
         23    2    1    2    0    0  0.29596503177E+03 -0.39521508013E+03 -0.34168684399E+03  0.60829493001E+03  0.97378452047E+02 0.  0.
        254    2    1    2    0    0 -0.29596503177E+03  0.39521508013E+03 -0.35821683932E+02  0.10258279636E+04  0.89847067747E+03 0.  0.
         23    2    4    4    0    0 -0.59057235965E+03  0.16497245711E+03  0.76194260686E+02  0.62485800164E+03  0.93007167806E+02 0.  0.
         23    2    4    4    0    0  0.29460732787E+03  0.23024262302E+03 -0.11201594462E+03  0.40096996197E+03  0.91783416046E+02 0.  0.
          4    1    3    3  502    0  0.84075881805E+02 -0.11404257472E+03 -0.47325518956E+02  0.14937927398E+03  0.00000000000E+00 0. -1.
         -4    1    3    3    0  502  0.21188914997E+03 -0.28117250541E+03 -0.29436132504E+03  0.45891565603E+03  0.00000000000E+00 0.  1.
         13    1    5    5    0    0 -0.31209292687E+03  0.13017877464E+03  0.62481855566E+02  0.34387859870E+03  0.00000000000E+00 0. -1.
        -13    1    5    5    0    0 -0.27847943278E+03  0.34793682468E+02  0.13712405120E+02  0.28097940294E+03  0.00000000000E+00 0.  1.
          2    1    6    6  503    0  0.11349542252E+02 -0.79138430070E+01  0.14038888209E+01  0.13907261567E+02  0.00000000000E+00 0. -1.
         -2    1    6    6    0  503  0.28325778562E+03  0.23815646602E+03 -0.11341983344E+03  0.38706270040E+03  0.00000000000E+00 0.  1.
<mgrwt>
<rscale>  0 0.15899198E+04</rscale>
<asrwt>0</asrwt>
<pdfrwt beam="1">  1        2 0.96662646E-01 0.15899198E+04</pdfrwt>
<pdfrwt beam="2">  1       -2 0.15474088E+00 0.15899198E+04</pdfrwt>
<totfact> 0.12398312E+01</totfact>
</mgrwt>
</event>
<event>
12    3  0.4769008E-008  0.2585226E+04  0.7818608E-02  0.8373237E-01
         -2   -1    0    0    0  501 -0.00000000000E+00  0.00000000000E+00  0.70060257021E+03  0.70060257021E+03  0.00000000000E+00 0.  1.
          2   -1    0    0  501    0  0.00000000000E+00 -0.00000000000E+00 -0.23848729567E+04  0.23848729567E+04  0.00000000000E+00 0. -1.
         23    2    1    2    0    0 -0.56087261609E+03 -0.20863841737E+03 -0.18895453072E+04  0.19842002381E+04  0.92525868647E+02 0.  0.
        254    2    1    2    0    0  0.56087261609E+03  0.20863841737E+03  0.20527492071E+03  0.11012752888E+04  0.90142187009E+03 0.  0.
         23    2    4    4    0    0  0.26357577379E+03  0.44826581892E+03 -0.17339456201E+03  0.55596386532E+03  0.92820862255E+02 0.  0.
         23    2    4    4    0    0  0.29729684230E+03 -0.23962740155E+03  0.37866948272E+03  0.54531142344E+03  0.90372934966E+02 0.  0.
          1    1    3    3  502    0 -0.13092073761E+03 -0.23821934767E+02 -0.52632491964E+03  0.54288640169E+03  0.00000000000E+00 0. -1.
         -1    1    3    3    0  502 -0.42995187848E+03 -0.18481648260E+03 -0.13632203876E+04  0.14413138365E+04  0.00000000000E+00 0.  1.
         13    1    5    5    0    0  0.26083024311E+03  0.41146980333E+03 -0.14181428110E+03  0.50739639839E+03  0.00000000000E+00 0. -1.
        -13    1    5    5    0    0  0.27455306794E+01  0.36796015591E+02 -0.31580280913E+02  0.48567466937E+02  0.00000000000E+00 0.  1.
          3    1    6    6  503    0  0.12214657321E+03 -0.13291838833E+03  0.12731366243E+03  0.22089783146E+03  0.00000000000E+00 0. -1.
         -3    1    6    6    0  503  0.17515026909E+03 -0.10670901322E+03  0.25135582030E+03  0.32441359198E+03  0.00000000000E+00 0.  1.
<mgrwt>
<rscale>  0 0.25852258E+04</rscale>
<asrwt>0</asrwt>
<pdfrwt beam="1">  1        2 0.36690353E+00 0.25852258E+04</pdfrwt>
<pdfrwt beam="2">  1       -2 0.10778501E+00 0.25852258E+04</pdfrwt>
<totfact> 0.24784810E+00</totfact>
</mgrwt>
</event>
<event>
12    3  0.4769008E-008  0.1538042E+04  0.7818608E-02  0.8859542E-01
         -1   -1    0    0    0  501 -0.00000000000E+00  0.00000000000E+00  0.75367147033E+03  0.75367147033E+03  0.00000000000E+00 0. -1.
          1   -1    0    0  501    0  0.00000000000E+00 -0.00000000000E+00 -0.78468353949E+03  0.78468353949E+03  0.00000000000E+00 0.  1.
         23    2    1    2    0    0  0.90024627306E+02 -0.42976368053E+03  0.23004613736E+03  0.50386355534E+03  0.90310588855E+02 0.  0.
        254    2    1    2    0    0 -0.90024627306E+02  0.42976368053E+03 -0.26105820652E+03  0.10344914545E+04  0.89956652204E+03 0.  0.
         23    2    4    4    0    0  0.25462186944E+03 -0.12356200055E+03 -0.23008681372E+03  0.37546463738E+03  0.89072373334E+02 0.  0.
         23    2    4    4    0    0 -0.34464649675E+03  0.55332568109E+03 -0.30971392794E+02  0.65902681711E+03  0.91687520572E+02 0.  0.
          3    1    3    3  502    0  0.74238887180E+02 -0.26392204835E+03  0.97532775059E+02  0.29099639548E+03  0.00000000000E+00 0. -1.
         -3    1    3    3    0  502  0.15785740125E+02 -0.16584163219E+03  0.13251336230E+03  0.21286715986E+03  0.00000000000E+00 0.  1.
         13    1    5    5    0    0  0.11233176151E+03 -0.99056701681E+01 -0.10854550447E+03  0.15652052098E+03  0.00000000000E+00 0. -1.
        -13    1    5    5    0    0  0.14229010793E+03 -0.11365633038E+03 -0.12154130925E+03  0.21894411640E+03  0.00000000000E+00 0.  1.
          3    1    6    6  503    0 -0.16536510282E+03  0.21352071380E+03  0.23041903052E+02  0.27104915006E+03  0.00000000000E+00 0. -1.
         -3    1    6    6    0  503 -0.17928139393E+03  0.33980496729E+03 -0.54013295847E+02  0.38797766705E+03  0.00000000000E+00 0.  1.
<mgrwt>
<rscale>  0 0.15380424E+04</rscale>
<asrwt>0</asrwt>
<pdfrwt beam="1">  1        1 0.12072054E+00 0.15380424E+04</pdfrwt>
<pdfrwt beam="2">  1       -1 0.11594946E+00 0.15380424E+04</pdfrwt>
<totfact> 0.14804643E+01</totfact>
</mgrwt>
</event>
<event>
12    3  0.4769008E-008  0.2098609E+04  0.7818608E-02  0.8561856E-01
          2   -1    0    0  501    0  0.00000000000E+00  0.00000000000E+00  0.23177220361E+04  0.23177220361E+04  0.00000000000E+00 0. -1.
         -2   -1    0    0    0  501 -0.00000000000E+00 -0.00000000000E+00 -0.47505279908E+03  0.47505279908E+03  0.00000000000E+00 0.  1.
         23    2    1    2    0    0 -0.62909175247E+03  0.47490004504E+03  0.31868245098E+03  0.85509371426E+03  0.91325077632E+02 0.  0.
        254    2    1    2    0    0  0.62909175247E+03 -0.47490004504E+03  0.15239867860E+04  0.19376811209E+04  0.90043651445E+03 0.  0.
         23    2    4    4    0    0  0.53191330405E+03 -0.71950182199E+03  0.10029760122E+04  0.13472374569E+04  0.92050255387E+02 0.  0.
         23    2    4    4    0    0  0.97178448419E+02  0.24460177695E+03  0.52101077386E+03  0.59044366398E+03  0.88869644587E+02 0.  0.
          1    1    3    3  502    0 -0.12630793492E+03  0.54431101609E+02  0.67197074595E+02  0.15307477284E+03  0.00000000000E+00 0. -1.
         -1    1    3    3    0  502 -0.50278381755E+03  0.42046894343E+03  0.25148537638E+03  0.70201894142E+03  0.00000000000E+00 0.  1.
         13    1    5    5    0    0  0.14855565271E+03 -0.14219365324E+03  0.20536693476E+03  0.29062586751E+03  0.00000000000E+00 0.  1.
        -13    1    5    5    0    0  0.38335765134E+03 -0.57730816875E+03  0.79760907739E+03  0.10566115894E+04  0.00000000000E+00 0. -1.
          4    1    6    6  503    0  0.11976146096E+02  0.10682477917E+03  0.14065164113E+03  0.17702498601E+03  0.00000000000E+00 0.  1.
         -4    1    6    6    0  503  0.85202302323E+02  0.13777699777E+03  0.38035913273E+03  0.41341867797E+03  0.00000000000E+00 0. -1.
<mgrwt>
<rscale>  0 0.20986094E+04</rscale>
<asrwt>0</asrwt>
<pdfrwt beam="1">  1        2 0.35657261E+00 0.20986094E+04</pdfrwt>
<pdfrwt beam="2">  1       -2 0.73085047E-01 0.20986094E+04</pdfrwt>
<totfact> 0.69035525E+00</totfact>
</mgrwt>
</event>
<event>
12    3  0.4769008E-008  0.1142500E+04  0.7818608E-02  0.9164730E-01
         -1   -1    0    0    0  501 -0.00000000000E+00  0.00000000000E+00  0.48834375105E+03  0.48834375105E+03  0.00000000000E+00 0.  1.
          1   -1    0    0  501    0  0.00000000000E+00 -0.00000000000E+00 -0.66823167045E+03  0.66823167045E+03  0.00000000000E+00 0. -1.
         23    2    1    2    0    0  0.42957535650E+01 -0.19715208292E+03 -0.12335024156E+03  0.25046922449E+03  0.92909380738E+02 0.  0.
        254    2    1    2    0    0 -0.42957535650E+01  0.19715208292E+03 -0.56537677831E+02  0.90610619701E+03  0.88257834437E+03 0.  0.
         23    2    4    4    0    0  0.14284162206E+03  0.46692412835E+03  0.15627327295E+03  0.52120579106E+03  0.93873692609E+02 0.  0.
         23    2    4    4    0    0 -0.14713737563E+03 -0.26977204544E+03 -0.21281095078E+03  0.38490040595E+03  0.91833860437E+02 0.  0.
          1    1    3    3  502    0 -0.14957294018E+02 -0.14956961825E+03 -0.12997098090E+03  0.19871398346E+03  0.00000000000E+00 0. -1.
         -1    1    3    3    0  502  0.19253047583E+02 -0.47582464668E+02  0.66207393376E+01  0.51755241034E+02  0.00000000000E+00 0.  1.
         13    1    5    5    0    0  0.57725330532E+02  0.68606183236E+02  0.21822435734E+02  0.92278062749E+02  0.00000000000E+00 0.  1.
        -13    1    5    5    0    0  0.85116291531E+02  0.39831794512E+03  0.13445083721E+03  0.42892772831E+03  0.00000000000E+00 0. -1.
          3    1    6    6  503    0 -0.48945788706E+02 -0.18380800929E+03 -0.12627081920E+03  0.22830986465E+03  0.00000000000E+00 0. -1.
         -3    1    6    6    0  503 -0.98191586923E+02 -0.85964036141E+02 -0.86540131579E+02  0.15659054130E+03  0.00000000000E+00 0.  1.
<mgrwt>
<rscale>  0 0.11425003E+04</rscale>
<asrwt>0</asrwt>
<pdfrwt beam="1">  1        1 0.10280487E+00 0.11425003E+04</pdfrwt>
<pdfrwt beam="2">  1       -1 0.75129808E-01 0.11425003E+04</pdfrwt>
<totfact> 0.51757066E+01</totfact>
</mgrwt>
</event>
<event>
12    3  0.4769008E-008  0.1485331E+04  0.7818608E-02  0.8894267E-01
         -2   -1    0    0    0  501 -0.00000000000E+00  0.00000000000E+00  0.21168002133E+03  0.21168002133E+03  0.00000000000E+00 0.  1.
          2   -1    0    0  501    0  0.00000000000E+00 -0.00000000000E+00 -0.26055928294E+04  0.26055928294E+04  0.00000000000E+00 0. -1.
         23    2    1    2    0    0  0.76595156003E+02 -0.40984289321E+03 -0.36422321433E+03  0.56086491535E+03  0.89849253635E+02 0.  0.
        254    2    1    2    0    0 -0.76595156003E+02  0.40984289321E+03 -0.20296895938E+04  0.22564079354E+04  0.89325187312E+03 0.  0.
         23    2    4    4    0    0  0.33677791952E+03  0.10883259871E+03 -0.13638305401E+04  0.14118742090E+04  0.89950754975E+02 0.  0.
         23    2    4    4    0    0 -0.41337307553E+03  0.30101029450E+03 -0.66585905372E+03  0.84453372644E+03  0.91566580733E+02 0.  0.
          3    1    3    3  502    0  0.32940160958E+02 -0.40733183717E+02 -0.26690350332E+02  0.58793037517E+02  0.00000000000E+00 0. -1.
         -3    1    3    3    0  502  0.43654995045E+02 -0.36910970950E+03 -0.33753286400E+03  0.50207187784E+03  0.00000000000E+00 0.  1.
         13    1    5    5    0    0  0.43342662028E+02  0.18490705582E+02 -0.90288572572E+02  0.10184556388E+03  0.00000000000E+00 0.  1.
        -13    1    5    5    0    0  0.29343525750E+03  0.90341893126E+02 -0.12735419675E+04  0.13100286451E+04  0.00000000000E+00 0. -1.
          3    1    6    6  503    0 -0.40173908027E+03  0.30251804393E+03 -0.62601355025E+03  0.80299714857E+03  0.00000000000E+00 0. -1.
         -3    1    6    6    0  503 -0.11633995253E+02 -0.15077494295E+01 -0.39845503473E+02  0.41536577867E+02  0.00000000000E+00 0.  1.
<mgrwt>
<rscale>  0 0.14853309E+04</rscale>
<asrwt>0</asrwt>
<pdfrwt beam="1">  1        2 0.40086045E+00 0.14853309E+04</pdfrwt>
<pdfrwt beam="2">  1       -2 0.32566156E-01 0.14853309E+04</pdfrwt>
<totfact> 0.25768096E+01</totfact>
</mgrwt>
</event>
<event>
12    3  0.4769008E-008  0.1148519E+04  0.7818608E-02  0.9159151E-01
         -1   -1    0    0    0  501 -0.00000000000E+00  0.00000000000E+00  0.23668113031E+03  0.23668113031E+03  0.00000000000E+00 0.  1.
          1   -1    0    0  501    0  0.00000000000E+00 -0.00000000000E+00 -0.13933262142E+04  0.13933262142E+04  0.00000000000E+00 0. -1.
         23    2    1    2    0    0 -0.17875995094E+03 -0.41276773778E+02 -0.11241184019E+03  0.23709103194E+03  0.99583349496E+02 0.  0.
        254    2    1    2    0    0  0.17875995094E+03  0.41276773778E+02 -0.10442332437E+04  0.13929163126E+04  0.90340129203E+03 0.  0.
         23    2    4    4    0    0 -0.34413183298E+03  0.14720297066E+02 -0.61016012512E+03  0.70653538676E+03  0.90848603996E+02 0.  0.
         23    2    4    4    0    0  0.52289178393E+03  0.26556476712E+02 -0.43407311861E+03  0.68638092582E+03  0.92618782563E+02 0.  0.
          1    1    3    3  502    0 -0.17904036812E+03 -0.44269658768E+02 -0.12587717802E+03  0.22329424545E+03  0.00000000000E+00 0. -1.
         -1    1    3    3    0  502  0.28041717512E+00  0.29928849897E+01  0.13465337838E+02  0.13796786489E+02  0.00000000000E+00 0.  1.
         13    1    5    5    0    0 -0.16876280149E+03  0.39350289730E+02 -0.36561257281E+03  0.40460089208E+03  0.00000000000E+00 0. -1.
        -13    1    5    5    0    0 -0.17536903149E+03 -0.24629992665E+02 -0.24454755230E+03  0.30193449468E+03  0.00000000000E+00 0.  1.
          1    1    6    6  503    0  0.32565555621E+03 -0.28383313987E+02 -0.26188794300E+03  0.41885850653E+03  0.00000000000E+00 0. -1.
         -1    1    6    6    0  503  0.19723622771E+03  0.54939790699E+02 -0.17218517561E+03  0.26752241929E+03  0.00000000000E+00 0.  1.
<mgrwt>
<rscale>  0 0.11485191E+04</rscale>
<asrwt>0</asrwt>
<pdfrwt beam="1">  1        1 0.21435788E+00 0.11485191E+04</pdfrwt>
<pdfrwt beam="2">  1       -1 0.36412481E-01 0.11485191E+04</pdfrwt>
<totfact> 0.55718507E+01</totfact>
</mgrwt>
</event>
<event>
12    3  0.4769008E-008  0.1339267E+04  0.7818608E-02  0.8998993E-01
          1   -1    0    0  501    0  0.00000000000E+00  0.00000000000E+00  0.55247818712E+03  0.55247818712E+03  0.00000000000E+00 0. -1.
         -1   -1    0    0    0  501 -0.00000000000E+00 -0.00000000000E+00 -0.81163247810E+03  0.81163247810E+03  0.00000000000E+00 0.  1.
         23    2    1    2    0    0 -0.27996201463E+03 -0.69742993177E+02  0.14514162535E+03  0.33545816110E+03  0.90682256836E+02 0.  0.
        254    2    1    2    0    0  0.27996201463E+03  0.69742993177E+02 -0.40429591633E+03  0.10286525041E+04  0.90079296819E+03 0.  0.
         23    2    4    4    0    0  0.94031773370E+02 -0.61751226954E+02 -0.65883176595E+03  0.67493855807E+03  0.93955164346E+02 0.  0.
         23    2    4    4    0    0  0.18593024126E+03  0.13149422013E+03  0.25453584962E+03  0.35371394605E+03  0.92001480133E+02 0.  0.
          3    1    3    3  502    0 -0.22706960688E+03 -0.70159039227E+02  0.78316336517E+02  0.25023258325E+03  0.00000000000E+00 0. -1.
         -3    1    3    3    0  502 -0.52892407747E+02  0.41604604931E+00  0.66825288834E+02  0.85225577847E+02  0.00000000000E+00 0.  1.
         13    1    5    5    0    0  0.54197213332E+02 -0.54206884229E+02 -0.59072813071E+03  0.59568065995E+03  0.00000000000E+00 0.  1.
        -13    1    5    5    0    0  0.39834560038E+02 -0.75443427250E+01 -0.68103635248E+02  0.79257898121E+02  0.00000000000E+00 0. -1.
          2    1    6    6  503    0  0.15038902352E+03  0.53807545423E+02  0.15542805860E+03  0.22286765521E+03  0.00000000000E+00 0.  1.
         -2    1    6    6    0  503  0.35541217740E+02  0.77686674707E+02  0.99107791018E+02  0.13084629084E+03  0.00000000000E+00 0. -1.
<mgrwt>
<rscale>  0 0.13392673E+04</rscale>
<asrwt>0</asrwt>
<pdfrwt beam="1">  1        1 0.84996644E-01 0.13392673E+04</pdfrwt>
<pdfrwt beam="2">  1       -1 0.12486654E+00 0.13392673E+04</pdfrwt>
<totfact> 0.21194705E+01</totfact>
</mgrwt>
</event>
<event>
12    3  0.4769008E-008  0.1165730E+04  0.7818608E-02  0.9143394E-01
          1   -1    0    0  501    0  0.00000000000E+00  0.00000000000E+00  0.20480934921E+03  0.20480934921E+03  0.00000000000E+00 0. -1.
         -1   -1    0    0    0  501 -0.00000000000E+00 -0.00000000000E+00 -0.16587692366E+04  0.16587692366E+04  0.00000000000E+00 0.  1.
         23    2    1    2    0    0 -0.53745164901E+02  0.10639572223E+03 -0.60077733576E+03  0.61937157064E+03  0.92082261584E+02 0.  0.
        254    2    1    2    0    0  0.53745164901E+02 -0.10639572223E+03 -0.85318255162E+03  0.12442070152E+04  0.89773160673E+03 0.  0.
         23    2    4    4    0    0  0.32648395400E+03 -0.38011673518E+03 -0.46946655825E+03  0.69257021288E+03  0.90410983088E+02 0.  0.
         23    2    4    4    0    0 -0.27273878910E+03  0.27372101295E+03 -0.38371599337E+03  0.55163680228E+03  0.88065646270E+02 0.  0.
          2    1    3    3  502    0 -0.43447542676E+02  0.12332061782E+03 -0.52758235820E+03  0.54354283035E+03  0.00000000000E+00 0.  1.
         -2    1    3    3    0  502 -0.10297622225E+02 -0.16924895586E+02 -0.73194977564E+02  0.75828740295E+02  0.00000000000E+00 0. -1.
         13    1    5    5    0    0  0.30961982661E+02 -0.14485647846E+02 -0.60339331249E+02  0.69349212392E+02  0.00000000000E+00 0. -1.
        -13    1    5    5    0    0  0.29552197134E+03 -0.36563108734E+03 -0.40912722700E+03  0.62322100048E+03  0.00000000000E+00 0.  1.
          3    1    6    6  503    0 -0.92239830698E+02  0.78981983905E+02 -0.17924978411E+03  0.21651056614E+03  0.00000000000E+00 0. -1.
         -3    1    6    6    0  503 -0.18049895840E+03  0.19473902905E+03 -0.20446620926E+03  0.33512623614E+03  0.00000000000E+00 0.  1.
<mgrwt>
<rscale>  0 0.11657297E+04</rscale>
<asrwt>0</asrwt>
<pdfrwt beam="1">  1        1 0.31509132E-01 0.11657297E+04</pdfrwt>
<pdfrwt beam="2">  1       -1 0.25519525E+00 0.11657297E+04</pdfrwt>
<totfact> 0.92573684E+00</totfact>
</mgrwt>
</event>
<event>
12    3  0.4769008E-008  0.2584796E+04  0.7818608E-02  0.8373384E-01
          2   -1    0    0  501    0  0.00000000000E+00  0.00000000000E+00  0.85169950217E+03  0.85169950217E+03  0.00000000000E+00 0. -1.
         -2   -1    0    0    0  501 -0.00000000000E+00 -0.00000000000E+00 -0.19611290398E+04  0.19611290398E+04  0.00000000000E+00 0.  1.
         23    2    1    2    0    0 -0.99394918894E+03  0.30735542894E+03 -0.98108975168E+03  0.14329350494E+04  0.91451654616E+02 0.  0.
        254    2    1    2    0    0  0.99394918894E+03 -0.30735542894E+03 -0.12833978598E+03  0.13798934926E+04  0.89734753596E+03 0.  0.
         23    2    4    4    0    0  0.72709227833E+03 -0.39952526327E+03 -0.44560595750E+03  0.94552414321E+03  0.84661790929E+02 0.  0.
         23    2    4    4    0    0  0.26685691062E+03  0.92169834324E+02  0.31726617151E+03  0.43436934937E+03  0.91164790249E+02 0.  0.
          2    1    3    3  502    0 -0.12043307614E+03  0.12581447820E+02 -0.91130915669E+02  0.15154953794E+03  0.00000000000E+00 0. -1.
         -2    1    3    3    0  502 -0.87351611280E+03  0.29477398112E+03 -0.88995883602E+03  0.12813855115E+04  0.00000000000E+00 0.  1.
         13    1    5    5    0    0  0.22784357423E+02 -0.19622146512E+02 -0.10279515672E+01  0.30086745609E+02  0.00000000000E+00 0. -1.
        -13    1    5    5    0    0  0.70430792090E+03 -0.37990311675E+03 -0.44457800593E+03  0.91543739760E+03  0.00000000000E+00 0.  1.
          3    1    6    6  503    0  0.48464008158E+02  0.53524520271E+02  0.54184821076E+02  0.90275296687E+02  0.00000000000E+00 0. -1.
         -3    1    6    6    0  503  0.21839290246E+03  0.38645314053E+02  0.26308135044E+03  0.34409405268E+03  0.00000000000E+00 0.  1.
<mgrwt>
<rscale>  0 0.25847960E+04</rscale>
<asrwt>0</asrwt>
<pdfrwt beam="1">  1        2 0.13103069E+00 0.25847960E+04</pdfrwt>
<pdfrwt beam="2">  1       -2 0.30171216E+00 0.25847960E+04</pdfrwt>
<totfact> 0.86984799E-01</totfact>
</mgrwt>
</event>
<event>
12    3  0.4769008E-008  0.1517157E+04  0.7818608E-02  0.8873123E-01
          1   -1    0    0  501    0  0.00000000000E+00  0.00000000000E+00  0.54469865080E+03  0.54469865080E+03  0.00000000000E+00 0. -1.
         -1   -1    0    0    0  501 -0.00000000000E+00 -0.00000000000E+00 -0.10564400954E+04  0.10564400954E+04  0.00000000000E+00 0.  1.
         23    2    1    2    0    0  0.45586311148E+03 -0.55633147846E+02 -0.33819069618E+03  0.57724272190E+03  0.89050488212E+02 0.  0.
        254    2    1    2    0    0 -0.45586311148E+03  0.55633147846E+02 -0.17355074844E+03  0.10238960243E+04  0.89851932800E+03 0.  0.
         23    2    4    4    0    0 -0.38043759064E+02 -0.92770837301E+02  0.32385986292E+03  0.35151405345E+03  0.92860988049E+02 0.  0.
         23    2    4    4    0    0 -0.41781935242E+03  0.14840398515E+03 -0.49741061136E+03  0.67238197088E+03  0.89907977409E+02 0.  0.
          2    1    3    3  502    0  0.14961208545E+03  0.23268765020E+02 -0.10299612197E+03  0.18312130591E+03  0.00000000000E+00 0. -1.
         -2    1    3    3    0  502  0.30625102604E+03 -0.78901912866E+02 -0.23519457421E+03  0.39412141599E+03  0.00000000000E+00 0.  1.
         13    1    5    5    0    0 -0.50555067467E+02 -0.87811677313E+02  0.32243465459E+03  0.33798049056E+03  0.00000000000E+00 0. -1.
        -13    1    5    5    0    0  0.12511308402E+02 -0.49591599885E+01  0.14252083374E+01  0.13533562891E+02  0.00000000000E+00 0.  1.
          3    1    6    6  503    0 -0.27500990183E+03  0.11778543381E+03 -0.27536821547E+03  0.40660977437E+03  0.00000000000E+00 0. -1.
         -3    1    6    6    0  503 -0.14280945059E+03  0.30618551342E+02 -0.22204239589E+03  0.26577219650E+03  0.00000000000E+00 0.  1.
<mgrwt>
<rscale>  0 0.15171572E+04</rscale>
<asrwt>0</asrwt>
<pdfrwt beam="1">  1        1 0.83799792E-01 0.15171572E+04</pdfrwt>
<pdfrwt beam="2">  1       -1 0.16252925E+00 0.15171572E+04</pdfrwt>
<totfact> 0.10623677E+01</totfact>
</mgrwt>
</event>
<event>
12    3  0.4769008E-008  0.1276303E+04  0.7818608E-02  0.9048571E-01
         -2   -1    0    0    0  501 -0.00000000000E+00  0.00000000000E+00  0.15777855246E+03  0.15777855246E+03  0.00000000000E+00 0.  1.
          2   -1    0    0  501    0  0.00000000000E+00 -0.00000000000E+00 -0.25810685572E+04  0.25810685572E+04  0.00000000000E+00 0. -1.
         23    2    1    2    0    0  0.19305068592E+02 -0.30546312578E+03 -0.50034536778E+03  0.59367568786E+03  0.91787408805E+02 0.  0.
        254    2    1    2    0    0 -0.19305068592E+02  0.30546312578E+03 -0.19229446370E+04  0.21451714218E+04  0.90020216909E+03 0.  0.
         23    2    4    4    0    0  0.25598131541E+03 -0.21915859384E+03 -0.62302279012E+03  0.71378081749E+03  0.88140429491E+02 0.  0.
         23    2    4    4    0    0 -0.27528638400E+03  0.52462171962E+03 -0.12999218469E+04  0.14313906044E+04  0.89842708781E+02 0.  0.
          1    1    3    3  502    0 -0.20229725995E+01 -0.18374452641E+03 -0.37530937486E+03  0.41787949251E+03  0.00000000000E+00 0. -1.
         -1    1    3    3    0  502  0.21328041192E+02 -0.12171859937E+03 -0.12503599291E+03  0.17579619534E+03  0.00000000000E+00 0.  1.
         13    1    5    5    0    0  0.25673145320E+03 -0.22385269549E+03 -0.62161961302E+03  0.70882438702E+03  0.00000000000E+00 0. -1.
        -13    1    5    5    0    0 -0.75013779457E+00  0.46941016517E+01 -0.14031771045E+01  0.49564304710E+01  0.00000000000E+00 0.  1.
          4    1    6    6  503    0 -0.26524723727E+03  0.43816596632E+03 -0.11121629317E+04  0.12244394217E+04  0.00000000000E+00 0. -1.
         -4    1    6    6    0  503 -0.10039146732E+02  0.86455753304E+02 -0.18775891522E+03  0.20695118263E+03  0.00000000000E+00 0.  1.
<mgrwt>
<rscale>  0 0.12763029E+04</rscale>
<asrwt>0</asrwt>
<pdfrwt beam="1">  1        2 0.39708747E+00 0.12763029E+04</pdfrwt>
<pdfrwt beam="2">  1       -2 0.24273623E-01 0.12763029E+04</pdfrwt>
<totfact> 0.46666666E+01</totfact>
</mgrwt>
</event>
<event>
12    3  0.4769008E-008  0.1275210E+04  0.7818608E-02  0.9049458E-01
          1   -1    0    0  501    0  0.00000000000E+00  0.00000000000E+00  0.40780240108E+03  0.40780240108E+03  0.00000000000E+00 0. -1.
         -1   -1    0    0    0  501 -0.00000000000E+00 -0.00000000000E+00 -0.99690430298E+03  0.99690430298E+03  0.00000000000E+00 0.  1.
         23    2    1    2    0    0  0.60466950590E+01  0.29461014382E+03 -0.27446456232E+03  0.41299916945E+03  0.91683251669E+02 0.  0.
        254    2    1    2    0    0 -0.60466950590E+01 -0.29461014382E+03 -0.31463733958E+03  0.99170753461E+03  0.89311560248E+03 0.  0.
         23    2    4    4    0    0  0.92146008366E+02 -0.30440512213E+03  0.24793655967E+03  0.41356536253E+03  0.91708266965E+02 0.  0.
         23    2    4    4    0    0 -0.98192703425E+02  0.97949783077E+01 -0.56257389925E+03  0.57814217208E+03  0.89561322098E+02 0.  0.
          3    1    3    3  502    0  0.28972603719E+02  0.74886421135E+02 -0.36203307738E+02  0.88079891734E+02  0.00000000000E+00 0. -1.
         -3    1    3    3    0  502 -0.22925908660E+02  0.21972372268E+03 -0.23826125459E+03  0.32491927772E+03  0.00000000000E+00 0.  1.
         13    1    5    5    0    0  0.25747508046E+02 -0.55626272260E+02  0.98040083276E+02  0.11562471304E+03  0.00000000000E+00 0.  1.
        -13    1    5    5    0    0  0.66398500320E+02 -0.24877884987E+03  0.14989647640E+03  0.29794064949E+03  0.00000000000E+00 0. -1.
          3    1    6    6  503    0 -0.11484760527E+02  0.32499920317E+02 -0.26874323453E+03  0.27094477417E+03  0.00000000000E+00 0. -1.
         -3    1    6    6    0  503 -0.86707942898E+02 -0.22704942009E+02 -0.29383066472E+03  0.30719739791E+03  0.00000000000E+00 0.  1.
<mgrwt>
<rscale>  0 0.12752097E+04</rscale>
<asrwt>0</asrwt>
<pdfrwt beam="1">  1        1 0.62738832E-01 0.12752097E+04</pdfrwt>
<pdfrwt beam="2">  1       -1 0.15336989E+00 0.12752097E+04</pdfrwt>
<totfact> 0.18905540E+01</totfact>
</mgrwt>
</event>
<event>
12    3  0.4769008E-008  0.2133215E+04  0.7818608E-02  0.8546752E-01
         -2   -1    0    0    0  501 -0.00000000000E+00  0.00000000000E+00  0.16267253264E+04  0.16267253264E+04  0.00000000000E+00 0.  1.
          2   -1    0    0  501    0  0.00000000000E+00 -0.00000000000E+00 -0.69935052534E+03  0.69935052534E+03  0.00000000000E+00 0. -1.
         23    2    1    2    0    0 -0.18137857452E+03 -0.15561942638E+03 -0.53428376026E+03  0.59242007605E+03  0.91579565805E+02 0.  0.
        254    2    1    2    0    0  0.18137857452E+03  0.15561942638E+03  0.14616585613E+04  0.17336557757E+04  0.90111098404E+03 0.  0.
         23    2    4    4    0    0  0.49400517073E+03  0.24266379369E+03  0.66402995178E+03  0.86763927084E+03  0.94526726192E+02 0.  0.
         23    2    4    4    0    0 -0.31262659621E+03 -0.87044367312E+02  0.79762860952E+03  0.86601650484E+03  0.91984114846E+02 0.  0.
          4    1    3    3  502    0 -0.57025378001E+02 -0.78120418401E+02 -0.30808221134E+03  0.32290763764E+03  0.00000000000E+00 0. -1.
         -4    1    3    3    0  502 -0.12435319652E+03 -0.77499007976E+02 -0.22620154892E+03  0.26951243840E+03  0.00000000000E+00 0.  1.
         13    1    5    5    0    0  0.48381816139E+03  0.22646976438E+03  0.61279649625E+03  0.81295025265E+03  0.00000000000E+00 0. -1.
        -13    1    5    5    0    0  0.10187009339E+02  0.16194029306E+02  0.51233455537E+02  0.54689018191E+02  0.00000000000E+00 0.  1.
          3    1    6    6  503    0 -0.20244315533E+03 -0.93899802479E+02  0.47000740007E+03  0.52029545469E+03  0.00000000000E+00 0. -1.
         -3    1    6    6    0  503 -0.11018344088E+03  0.68554351671E+01  0.32762120944E+03  0.34572105014E+03  0.00000000000E+00 0.  1.
<mgrwt>
<rscale>  0 0.21332147E+04</rscale>
<asrwt>0</asrwt>
<pdfrwt beam="1">  1        2 0.10759239E+00 0.21332147E+04</pdfrwt>
<pdfrwt beam="2">  1       -2 0.25026543E+00 0.21332147E+04</pdfrwt>
<totfact> 0.24131375E+00</totfact>
</mgrwt>
</event>
<event>
12    3  0.4769008E-008  0.1968101E+04  0.7818608E-02  0.8621681E-01
          2   -1    0    0  501    0  0.00000000000E+00  0.00000000000E+00  0.30039123048E+04  0.30039123048E+04  0.00000000000E+00 0. -1.
         -2   -1    0    0    0  501 -0.00000000000E+00 -0.00000000000E+00 -0.32236476305E+03  0.32236476305E+03  0.00000000000E+00 0.  1.
         23    2    1    2    0    0  0.30237362792E+03 -0.61404837568E+03  0.15621254339E+04  0.17079963097E+04  0.92359645772E+02 0.  0.
        254    2    1    2    0    0 -0.30237362792E+03  0.61404837568E+03  0.11194221078E+04  0.16182807581E+04  0.94722834527E+03 0.  0.
         23    2    4    4    0    0 -0.16065568867E+03 -0.22980978818E+03  0.18588707122E+03  0.34875919070E+03  0.91957494560E+02 0.  0.
         23    2    4    4    0    0 -0.14171793925E+03  0.84385816386E+03  0.93353503660E+03  0.12695215674E+04  0.89536420262E+02 0.  0.
          1    1    3    3  502    0  0.27033866854E+03 -0.59167977511E+03  0.14492778030E+04  0.15885761242E+04  0.00000000000E+00 0. -1.
         -1    1    3    3    0  502  0.32034959379E+02 -0.22368600568E+02  0.11284763093E+03  0.11942018556E+03  0.00000000000E+00 0.  1.
         13    1    5    5    0    0 -0.56460678240E+02 -0.18615210021E+02  0.33176128385E+02  0.68080758854E+02  0.00000000000E+00 0.  1.
        -13    1    5    5    0    0 -0.10419501043E+03 -0.21119457816E+03  0.15271094283E+03  0.28067843185E+03  0.00000000000E+00 0. -1.
          1    1    6    6  503    0 -0.13574960862E+03  0.71567361830E+03  0.83249474282E+03  0.11061935549E+04  0.00000000000E+00 0. -1.
         -1    1    6    6    0  503 -0.59683306287E+01  0.12818454557E+03  0.10104029378E+03  0.16332801247E+03  0.00000000000E+00 0.  1.
<mgrwt>
<rscale>  0 0.19681011E+04</rscale>
<asrwt>0</asrwt>
<pdfrwt beam="1">  1        2 0.46214034E+00 0.19681011E+04</pdfrwt>
<pdfrwt beam="2">  1       -2 0.49594581E-01 0.19681011E+04</pdfrwt>
<totfact> 0.62213139E+00</totfact>
</mgrwt>
</event>
<event>
12    3  0.4769008E-008  0.1057135E+04  0.7818608E-02  0.9248009E-01
          2   -1    0    0  501    0  0.00000000000E+00  0.00000000000E+00  0.87975569181E+03  0.87975569181E+03  0.00000000000E+00 0. -1.
         -2   -1    0    0    0  501 -0.00000000000E+00 -0.00000000000E+00 -0.31756949284E+03  0.31756949284E+03  0.00000000000E+00 0.  1.
         23    2    1    2    0    0  0.12657478011E+03 -0.28077502775E+02  0.23137090049E+02  0.14368991188E+03  0.57462550570E+02 0.  0.
        254    2    1    2    0    0 -0.12657478011E+03  0.28077502775E+02  0.53904910892E+03  0.10536352728E+04  0.89597088406E+03 0.  0.
         23    2    4    4    0    0 -0.31929709063E+03  0.37128107926E+03  0.26928915134E+03  0.56631938223E+03  0.91655462232E+02 0.  0.
         23    2    4    4    0    0  0.19272231052E+03 -0.34320357648E+03  0.26975995758E+03  0.48731589055E+03  0.98872435896E+02 0.  0.
          2    1    3    3  502    0  0.58036141751E+02 -0.52351488814E+00  0.36583314281E+02  0.68606171012E+02  0.00000000000E+00 0. -1.
         -2    1    3    3    0  502  0.68538638356E+02 -0.27553987887E+02 -0.13446224231E+02  0.75083740865E+02  0.00000000000E+00 0.  1.
         13    1    5    5    0    0 -0.51403118258E+02  0.20576486062E+02  0.16713946654E+02  0.57836220122E+02  0.00000000000E+00 0.  1.
        -13    1    5    5    0    0 -0.26789397237E+03  0.35070459319E+03  0.25257520468E+03  0.50848316210E+03  0.00000000000E+00 0. -1.
          3    1    6    6  503    0  0.17705580205E+03 -0.33198180680E+03  0.22452293580E+03  0.43814521084E+03  0.00000000000E+00 0. -1.
         -3    1    6    6    0  503  0.15666508475E+02 -0.11221769683E+02  0.45237021783E+02  0.49170679703E+02  0.00000000000E+00 0.  1.
<mgrwt>
<rscale>  0 0.10571349E+04</rscale>
<asrwt>0</asrwt>
<pdfrwt beam="1">  1        2 0.13534703E+00 0.10571349E+04</pdfrwt>
<pdfrwt beam="2">  1       -2 0.48856845E-01 0.10571349E+04</pdfrwt>
<totfact> 0.11949198E+02</totfact>
</mgrwt>
</event>
<event>
12    3  0.4769008E-008  0.1377159E+04  0.7818608E-02  0.8970520E-01
          3   -1    0    0  501    0  0.00000000000E+00  0.00000000000E+00  0.24571903085E+03  0.24571903085E+03  0.00000000000E+00 0. -1.
         -3   -1    0    0    0  501 -0.00000000000E+00 -0.00000000000E+00 -0.19296101180E+04  0.19296101180E+04  0.00000000000E+00 0.  1.
         23    2    1    2    0    0  0.22446540297E+03  0.31018172407E+03 -0.39505100931E+03  0.55893018068E+03  0.98692592617E+02 0.  0.
        254    2    1    2    0    0 -0.22446540297E+03 -0.31018172407E+03 -0.12888400778E+04  0.16163989682E+04  0.89723991161E+03 0.  0.
         23    2    4    4    0    0 -0.38192007774E+03  0.18672759246E+03 -0.70658196998E+03  0.82963162298E+03  0.91106585789E+02 0.  0.
         23    2    4    4    0    0  0.15745467477E+03 -0.49690931652E+03 -0.58225810784E+03  0.78676734518E+03  0.90925837042E+02 0.  0.
          1    1    3    3  502    0  0.12009020758E+03  0.17982286731E+03 -0.15311720674E+03  0.26495811096E+03  0.00000000000E+00 0. -1.
         -1    1    3    3    0  502  0.10437519540E+03  0.13035885676E+03 -0.24193380257E+03  0.29397206972E+03  0.00000000000E+00 0.  1.
         13    1    5    5    0    0 -0.26330431872E+03  0.82737511319E+02 -0.42164632329E+03  0.50394472115E+03  0.00000000000E+00 0.  1.
        -13    1    5    5    0    0 -0.11861575902E+03  0.10399008114E+03 -0.28493564670E+03  0.32568690183E+03  0.00000000000E+00 0. -1.
          1    1    6    6  503    0  0.15368115136E+03 -0.35410453041E+03 -0.41390536296E+03  0.56597311264E+03  0.00000000000E+00 0.  1.
         -1    1    6    6    0  503  0.37735234089E+01 -0.14280478611E+03 -0.16835274488E+03  0.22079423255E+03  0.00000000000E+00 0. -1.
<mgrwt>
<rscale>  0 0.13771593E+04</rscale>
<asrwt>0</asrwt>
<pdfrwt beam="1">  1        3 0.37802927E-01 0.13771593E+04</pdfrwt>
<pdfrwt beam="2">  1       -3 0.29686310E+00 0.13771593E+04</pdfrwt>
<totfact> 0.70642293E-01</totfact>
</mgrwt>
</event>
<event>
12    3  0.4769008E-008  0.1422573E+04  0.7818608E-02  0.8937639E-01
         -2   -1    0    0    0  501 -0.00000000000E+00  0.00000000000E+00  0.14566097190E+04  0.14566097190E+04  0.00000000000E+00 0.  1.
          2   -1    0    0  501    0  0.00000000000E+00 -0.00000000000E+00 -0.34733303469E+03  0.34733303469E+03  0.00000000000E+00 0. -1.
         23    2    1    2    0    0  0.40631089334E+03  0.19786477273E+02  0.20407301181E+03  0.46353674597E+03  0.87979963556E+02 0.  0.
        254    2    1    2    0    0 -0.40631089334E+03 -0.19786477273E+02  0.90520367252E+03  0.13404060077E+04  0.90100750836E+03 0.  0.
         23    2    4    4    0    0 -0.17640662444E+03  0.43068221562E+03  0.46006791308E+03  0.66072107431E+03  0.91013105646E+02 0.  0.
         23    2    4    4    0    0 -0.22990426890E+03 -0.45046869290E+03  0.44513575945E+03  0.67968493343E+03  0.89709242880E+02 0.  0.
          1    1    3    3  502    0  0.40998925527E+03  0.22555451842E+02  0.20484284222E+03  0.45886874795E+03  0.00000000000E+00 0. -1.
         -1    1    3    3    0  502 -0.36783619269E+01 -0.27689745687E+01 -0.76983040776E+00  0.46679980167E+01  0.00000000000E+00 0.  1.
         13    1    5    5    0    0 -0.15905538749E+03  0.40121189088E+03  0.38551306484E+03  0.57869674341E+03  0.00000000000E+00 0.  1.
        -13    1    5    5    0    0 -0.17351236949E+02  0.29470324742E+02  0.74554848238E+02  0.82024330902E+02  0.00000000000E+00 0. -1.
          1    1    6    6  503    0 -0.18718783697E+03 -0.28685522490E+03  0.26912138948E+03  0.43560478491E+03  0.00000000000E+00 0. -1.
         -1    1    6    6    0  503 -0.42716431925E+02 -0.16361346799E+03  0.17601436997E+03  0.24408014852E+03  0.00000000000E+00 0.  1.
<mgrwt>
<rscale>  0 0.14225733E+04</rscale>
<asrwt>0</asrwt>
<pdfrwt beam="1">  1        2 0.53435852E-01 0.14225733E+04</pdfrwt>
<pdfrwt beam="2">  1       -2 0.22409380E+00 0.14225733E+04</pdfrwt>
<totfact> 0.84313290E+00</totfact>
</mgrwt>
</event>
<event>
12    3  0.4769008E-008  0.2215274E+04  0.7818608E-02  0.8512098E-01
          2   -1    0    0  501    0  0.00000000000E+00  0.00000000000E+00  0.19699868013E+04  0.19699868013E+04  0.00000000000E+00 0. -1.
         -2   -1    0    0    0  501 -0.00000000000E+00 -0.00000000000E+00 -0.62277540208E+03  0.62277540208E+03  0.00000000000E+00 0.  1.
         23    2    1    2    0    0 -0.25406514876E+03  0.19004113036E+03 -0.44533144585E+03  0.55460785290E+03  0.92763369849E+02 0.  0.
        254    2    1    2    0    0  0.25406514876E+03 -0.19004113036E+03  0.17925428451E+04  0.20381543505E+04  0.91662346357E+03 0.  0.
         23    2    4    4    0    0  0.10420673554E+03 -0.53170816043E+03  0.13118355923E+04  0.14221581587E+04  0.89713964929E+02 0.  0.
         23    2    4    4    0    0  0.14985841322E+03  0.34166703007E+03  0.48070725280E+03  0.61599619183E+03  0.95801576194E+02 0.  0.
          4    1    3    3  502    0 -0.11446177563E+03  0.60857019686E+02 -0.11432357927E+03  0.17284373203E+03  0.00000000000E+00 0. -1.
         -4    1    3    3    0  502 -0.13960337313E+03  0.12918411067E+03 -0.33100786658E+03  0.38176412087E+03  0.00000000000E+00 0.  1.
         13    1    5    5    0    0  0.10501769429E+02 -0.79042530251E+02  0.28740432685E+03  0.29826038262E+03  0.00000000000E+00 0. -1.
        -13    1    5    5    0    0  0.93704966113E+02 -0.45266563018E+03  0.10244312654E+04  0.11238977761E+04  0.00000000000E+00 0.  1.
          1    1    6    6  503    0  0.54950369902E+02  0.37463436830E+02  0.85370325251E+02  0.10821804233E+03  0.00000000000E+00 0. -1.
         -1    1    6    6    0  503  0.94908043317E+02  0.30420359324E+03  0.39533692755E+03  0.50777814950E+03  0.00000000000E+00 0.  1.
<mgrwt>
<rscale>  0 0.22152736E+04</rscale>
<asrwt>0</asrwt>
<pdfrwt beam="1">  1        2 0.30307489E+00 0.22152736E+04</pdfrwt>
<pdfrwt beam="2">  1       -2 0.95811601E-01 0.22152736E+04</pdfrwt>
<totfact> 0.57904429E+00</totfact>
</mgrwt>
</event>
<event>
12    3  0.4769008E-008  0.1587409E+04  0.7818608E-02  0.8828321E-01
         -1   -1    0    0    0  501 -0.00000000000E+00  0.00000000000E+00  0.46023530805E+03  0.46023530805E+03  0.00000000000E+00 0.  1.
          1   -1    0    0  501    0  0.00000000000E+00 -0.00000000000E+00 -0.13687923200E+04  0.13687923200E+04  0.00000000000E+00 0. -1.
         23    2    1    2    0    0 -0.98139284278E+02 -0.53673387797E+03 -0.27956189008E+03  0.61999018998E+03  0.92295235018E+02 0.  0.
        254    2    1    2    0    0  0.98139284278E+02  0.53673387797E+03 -0.62899512192E+03  0.12090374381E+04  0.87659687911E+03 0.  0.
         23    2    4    4    0    0 -0.14502697269E+03 -0.92934279267E+01 -0.57727411573E+03  0.60204420716E+03  0.89959057753E+02 0.  0.
         23    2    4    4    0    0  0.24316625696E+03  0.54602730590E+03 -0.51721006187E+02  0.60699323095E+03  0.92141590112E+02 0.  0.
          1    1    3    3  502    0 -0.32685116638E+01 -0.64461590059E+01  0.67806048430E+01  0.99102339257E+01  0.00000000000E+00 0. -1.
         -1    1    3    3    0  502 -0.94870772614E+02 -0.53028771896E+03 -0.28634249492E+03  0.61007995605E+03  0.00000000000E+00 0.  1.
         13    1    5    5    0    0 -0.13942453661E+03  0.18579156764E+02 -0.50924991328E+03  0.52831795412E+03  0.00000000000E+00 0. -1.
        -13    1    5    5    0    0 -0.56024360735E+01 -0.27872584690E+02 -0.68024202451E+02  0.73726253033E+02  0.00000000000E+00 0.  1.
          4    1    6    6  503    0 -0.12318295535E+01  0.31341247311E+01  0.79581377025E+01  0.86413018447E+01  0.00000000000E+00 0. -1.
         -4    1    6    6    0  503  0.24439808652E+03  0.54289318116E+03 -0.59679143889E+02  0.59835192911E+03  0.00000000000E+00 0.  1.
<mgrwt>
<rscale>  0 0.15874086E+04</rscale>
<asrwt>0</asrwt>
<pdfrwt beam="1">  1        1 0.21058343E+00 0.15874086E+04</pdfrwt>
<pdfrwt beam="2">  1       -1 0.70805434E-01 0.15874086E+04</pdfrwt>
<totfact> 0.15643479E+01</totfact>
</mgrwt>
</event>
<event>
12    3  0.4769008E-008  0.1756324E+04  0.7818608E-02  0.8729877E-01
         -1   -1    0    0    0  501 -0.00000000000E+00  0.00000000000E+00  0.66591545290E+03  0.66591545290E+03  0.00000000000E+00 0.  1.
          1   -1    0    0  501    0  0.00000000000E+00 -0.00000000000E+00 -0.11580572442E+04  0.11580572442E+04  0.00000000000E+00 0. -1.
         23    2    1    2    0    0  0.30586864724E+03  0.11767641501E+03 -0.76127893949E+03  0.83387610839E+03  0.91653545647E+02 0.  0.
        254    2    1    2    0    0 -0.30586864724E+03 -0.11767641501E+03  0.26913714822E+03  0.99009658868E+03  0.89468043589E+03 0.  0.
         23    2    4    4    0    0 -0.69936074544E+02  0.30986845019E+03  0.35624100847E+03  0.48598900318E+03  0.91477560905E+02 0.  0.
         23    2    4    4    0    0 -0.23593257269E+03 -0.42754486521E+03 -0.87103860255E+02  0.50410758550E+03  0.89880947198E+02 0.  0.
          2    1    3    3  502    0  0.26739898471E+03  0.74513885908E+02 -0.67672099172E+03  0.73144093189E+03  0.00000000000E+00 0. -1.
         -2    1    3    3    0  502  0.38469662528E+02  0.43162529105E+02 -0.84557947768E+02  0.10243517650E+03  0.00000000000E+00 0.  1.
         13    1    5    5    0    0 -0.57308046580E+02  0.16262007134E+03  0.13078724547E+03  0.21641350093E+03  0.00000000000E+00 0.  1.
        -13    1    5    5    0    0 -0.12628027964E+02  0.14724837885E+03  0.22545376300E+03  0.26957550225E+03  0.00000000000E+00 0. -1.
          2    1    6    6  503    0 -0.91396854403E+02 -0.10152507732E+03  0.16212260784E+01  0.13661388909E+03  0.00000000000E+00 0. -1.
         -2    1    6    6    0  503 -0.14453571829E+03 -0.32601978789E+03 -0.88725086333E+02  0.36749369641E+03  0.00000000000E+00 0.  1.
<mgrwt>
<rscale>  0 0.17563237E+04</rscale>
<asrwt>0</asrwt>
<pdfrwt beam="1">  1        1 0.17816265E+00 0.17563237E+04</pdfrwt>
<pdfrwt beam="2">  1       -1 0.10244853E+00 0.17563237E+04</pdfrwt>
<totfact> 0.97968567E+00</totfact>
</mgrwt>
</event>
<event>
12    3  0.4769008E-008  0.1679771E+04  0.7818608E-02  0.8772987E-01
          2   -1    0    0  501    0  0.00000000000E+00  0.00000000000E+00  0.18992442370E+04  0.18992442370E+04  0.00000000000E+00 0. -1.
         -2   -1    0    0    0  501 -0.00000000000E+00 -0.00000000000E+00 -0.37141478167E+03  0.37141478167E+03  0.00000000000E+00 0.  1.
         23    2    1    2    0    0  0.30223063242E+03  0.22935318732E+03  0.11919045669E+04  0.12542275249E+04  0.92216853382E+02 0.  0.
        254    2    1    2    0    0 -0.30223063242E+03 -0.22935318732E+03  0.33592488846E+03  0.10164314937E+04  0.88110227049E+03 0.  0.
         23    2    4    4    0    0 -0.45526010699E+03  0.41224969149E+02  0.47219333760E+03  0.66518355871E+03  0.10267110408E+03 0.  0.
         23    2    4    4    0    0  0.15302947457E+03 -0.27057815647E+03 -0.13626844914E+03  0.35124793502E+03  0.90418265747E+02 0.  0.
          1    1    3    3  502    0  0.17983435319E+03  0.18926704263E+03  0.76553002782E+03  0.80882546418E+03  0.00000000000E+00 0. -1.
         -1    1    3    3    0  502  0.12239627924E+03  0.40086144695E+02  0.42637453905E+03  0.44540206075E+03  0.00000000000E+00 0.  1.
         13    1    5    5    0    0 -0.13804474504E+03  0.13489392305E+02  0.80434533351E+02  0.16033723677E+03  0.00000000000E+00 0. -1.
        -13    1    5    5    0    0 -0.31721536195E+03  0.27735576844E+02  0.39175880424E+03  0.50484632194E+03  0.00000000000E+00 0.  1.
          3    1    6    6  503    0  0.60187535134E+01 -0.43246724786E+02  0.81410483281E+01  0.44416002369E+02  0.00000000000E+00 0. -1.
         -3    1    6    6    0  503  0.14701072105E+03 -0.22733143169E+03 -0.14440949747E+03  0.30683193265E+03  0.00000000000E+00 0.  1.
<mgrwt>
<rscale>  0 0.16797707E+04</rscale>
<asrwt>0</asrwt>
<pdfrwt beam="1">  1        2 0.29219142E+00 0.16797707E+04</pdfrwt>
<pdfrwt beam="2">  1       -2 0.57140737E-01 0.16797707E+04</pdfrwt>
<totfact> 0.20794056E+01</totfact>
</mgrwt>
</event>
<event>
12    3  0.4769008E-008  0.2059180E+04  0.7818608E-02  0.8579441E-01
         -2   -1    0    0    0  501 -0.00000000000E+00  0.00000000000E+00  0.74852896985E+03  0.74852896985E+03  0.00000000000E+00 0.  1.
          2   -1    0    0  501    0  0.00000000000E+00 -0.00000000000E+00 -0.14161846056E+04  0.14161846056E+04  0.00000000000E+00 0. -1.
         23    2    1    2    0    0 -0.51152735430E+03  0.64029340216E+03 -0.16060884873E+03  0.84025221827E+03  0.92696887593E+02 0.  0.
        254    2    1    2    0    0  0.51152735430E+03 -0.64029340216E+03 -0.50704678702E+03  0.13244613572E+04  0.90855135648E+03 0.  0.
         23    2    4    4    0    0  0.37615664064E+03 -0.59090028662E+03  0.82238505430E+02  0.71093454564E+03  0.89486252463E+02 0.  0.
         23    2    4    4    0    0  0.13537071366E+03 -0.49393115536E+02 -0.58928529245E+03  0.61352681153E+03  0.91613768563E+02 0.  0.
          3    1    3    3  502    0 -0.73430024571E+01 -0.24074377395E+01  0.10767088199E+00  0.77283267642E+01  0.00000000000E+00 0. -1.
         -3    1    3    3    0  502 -0.50418435184E+03  0.64270083990E+03 -0.16071651961E+03  0.83252389150E+03  0.00000000000E+00 0.  1.
         13    1    5    5    0    0  0.36923959474E+03 -0.58735609258E+03  0.90427627913E+02  0.69964434802E+03  0.00000000000E+00 0. -1.
        -13    1    5    5    0    0  0.69170459023E+01 -0.35441940397E+01 -0.81891224829E+01  0.11290197627E+02  0.00000000000E+00 0.  1.
          1    1    6    6  503    0  0.12231887755E+03 -0.33644070581E+02 -0.57436652530E+03  0.58820977268E+03  0.00000000000E+00 0. -1.
         -1    1    6    6    0  503  0.13051836107E+02 -0.15749044955E+02 -0.14918767143E+02  0.25317038844E+02  0.00000000000E+00 0.  1.
<mgrwt>
<rscale>  0 0.20591796E+04</rscale>
<asrwt>0</asrwt>
<pdfrwt beam="1">  1        2 0.21787455E+00 0.20591796E+04</pdfrwt>
<pdfrwt beam="2">  1       -2 0.11515830E+00 0.20591796E+04</pdfrwt>
<totfact> 0.76982754E+00</totfact>
</mgrwt>
</event>
<event>
12    3  0.4769008E-008  0.1930597E+04  0.7818608E-02  0.8639774E-01
          1   -1    0    0  501    0  0.00000000000E+00  0.00000000000E+00  0.27938765592E+04  0.27938765592E+04  0.00000000000E+00 0. -1.
         -1   -1    0    0    0  501 -0.00000000000E+00 -0.00000000000E+00 -0.33351568619E+03  0.33351568619E+03  0.00000000000E+00 0.  1.
         23    2    1    2    0    0 -0.18706120613E+03 -0.51198777699E+03  0.15332255911E+04  0.16297776160E+04  0.90944959731E+02 0.  0.
        254    2    1    2    0    0  0.18706120613E+03  0.51198777699E+03  0.92713528189E+03  0.14976146294E+04  0.10421834621E+04 0.  0.
         23    2    4    4    0    0  0.61397388033E+03  0.27424360263E+03  0.54248051458E+03  0.86879219571E+03  0.91330670140E+02 0.  0.
         23    2    4    4    0    0 -0.42691267421E+03  0.23774417436E+03  0.38465476731E+03  0.62882243368E+03  0.93175314586E+02 0.  0.
          3    1    3    3  502    0 -0.35323548461E+01 -0.12628028072E+00  0.48158443425E+02  0.48287981430E+02  0.00000000000E+00 0. -1.
         -3    1    3    3    0  502 -0.18352885128E+03 -0.51186149671E+03  0.14850671477E+04  0.15814896346E+04  0.00000000000E+00 0.  1.
         13    1    5    5    0    0  0.57699010853E+01  0.25594707977E+01  0.23578014866E+02  0.24408306667E+02  0.00000000000E+00 0.  1.
        -13    1    5    5    0    0  0.60820397925E+03  0.27168413184E+03  0.51890249972E+03  0.84438388905E+03  0.00000000000E+00 0. -1.
          3    1    6    6  503    0 -0.29075717760E+03  0.19271762191E+03  0.31228115732E+03  0.46818729087E+03  0.00000000000E+00 0. -1.
         -3    1    6    6    0  503 -0.13615549661E+03  0.45026552453E+02  0.72373609992E+02  0.16063514281E+03  0.00000000000E+00 0.  1.
<mgrwt>
<rscale>  0 0.19305975E+04</rscale>
<asrwt>0</asrwt>
<pdfrwt beam="1">  1        1 0.42982715E+00 0.19305975E+04</pdfrwt>
<pdfrwt beam="2">  1       -1 0.51310107E-01 0.19305975E+04</pdfrwt>
<totfact> 0.30055403E+00</totfact>
</mgrwt>
</event>
<event>
12    3  0.4769008E-008  0.1538372E+04  0.7818608E-02  0.8859330E-01
          1   -1    0    0  501    0  0.00000000000E+00  0.00000000000E+00  0.15997263035E+04  0.15997263035E+04  0.00000000000E+00 0. -1.
         -1   -1    0    0    0  501 -0.00000000000E+00 -0.00000000000E+00 -0.36984248875E+03  0.36984248875E+03  0.00000000000E+00 0.  1.
         23    2    1    2    0    0  0.43208729001E+02  0.33031295015E+03 -0.71988718273E+02  0.35254424606E+03  0.90174445237E+02 0.  0.
        254    2    1    2    0    0 -0.43208729001E+02 -0.33031295015E+03  0.13018725331E+04  0.16170245462E+04  0.89940127388E+03 0.  0.
         23    2    4    4    0    0 -0.34630202623E+03 -0.17456966518E+03  0.11767176767E+04  0.12422699736E+04  0.90391012535E+02 0.  0.
         23    2    4    4    0    0  0.30309329723E+03 -0.15574328497E+03  0.12515485636E+03  0.37475457267E+03  0.93036197419E+02 0.  0.
          4    1    3    3  502    0  0.30618960091E+02  0.24969521596E+02 -0.77227016232E+01  0.40257146523E+02  0.00000000000E+00 0. -1.
         -4    1    3    3    0  502  0.12589768910E+02  0.30534342855E+03 -0.64266016650E+02  0.31228709954E+03  0.00000000000E+00 0.  1.
         13    1    5    5    0    0 -0.15639140347E+03 -0.34386731683E+02  0.41517647452E+03  0.44498564403E+03  0.00000000000E+00 0.  1.
        -13    1    5    5    0    0 -0.18991062276E+03 -0.14018293350E+03  0.76154120220E+03  0.79728432954E+03  0.00000000000E+00 0. -1.
          3    1    6    6  503    0  0.22437592355E+03 -0.71314984045E+02  0.63315420789E+02  0.24380160895E+03  0.00000000000E+00 0. -1.
         -3    1    6    6    0  503  0.78717373683E+02 -0.84428300920E+02  0.61839435568E+02  0.13095296372E+03  0.00000000000E+00 0.  1.
<mgrwt>
<rscale>  0 0.15383716E+04</rscale>
<asrwt>0</asrwt>
<pdfrwt beam="1">  1        1 0.24611173E+00 0.15383716E+04</pdfrwt>
<pdfrwt beam="2">  1       -1 0.56898846E-01 0.15383716E+04</pdfrwt>
<totfact> 0.16834071E+01</totfact>
</mgrwt>
</event>
<event>
12    3  0.4769008E-008  0.1575073E+04  0.7818608E-02  0.8836009E-01
         -1   -1    0    0    0  501 -0.00000000000E+00  0.00000000000E+00  0.48805741462E+03  0.48805741462E+03  0.00000000000E+00 0.  1.
          1   -1    0    0  501    0  0.00000000000E+00 -0.00000000000E+00 -0.12707807649E+04  0.12707807649E+04  0.00000000000E+00 0. -1.
         23    2    1    2    0    0 -0.51992694521E+03  0.14524335119E+02 -0.16176509099E+03  0.55210337697E+03  0.90084457812E+02 0.  0.
        254    2    1    2    0    0  0.51992694521E+03 -0.14524335119E+02 -0.62095825932E+03  0.12067348026E+04  0.89447456042E+03 0.  0.
         23    2    4    4    0    0  0.56648675824E+03  0.27722593978E+03 -0.17051580596E+03  0.66009767072E+03  0.94296478505E+02 0.  0.
         23    2    4    4    0    0 -0.46559813031E+02 -0.29175027490E+03 -0.45044245336E+03  0.54663713185E+03  0.92885472652E+02 0.  0.
          2    1    3    3  502    0 -0.40589286583E+03  0.37583188680E+02 -0.15312499405E+03  0.43544090116E+03  0.00000000000E+00 0. -1.
         -2    1    3    3    0  502 -0.11403407938E+03 -0.23058853561E+02 -0.86400969386E+01  0.11666247582E+03  0.00000000000E+00 0.  1.
         13    1    5    5    0    0  0.11837418694E+03  0.99546670051E+02 -0.57200029404E+02  0.16490552148E+03  0.00000000000E+00 0.  1.
        -13    1    5    5    0    0  0.44811257130E+03  0.17767926973E+03 -0.11331577656E+03  0.49519214924E+03  0.00000000000E+00 0. -1.
          4    1    6    6  503    0 -0.48681463663E+02 -0.20488431022E+03 -0.38131727795E+03  0.43560341131E+03  0.00000000000E+00 0. -1.
         -4    1    6    6    0  503  0.21216506328E+01 -0.86865964680E+02 -0.69125175407E+02  0.11103372054E+03  0.00000000000E+00 0.  1.
<mgrwt>
<rscale>  0 0.15750733E+04</rscale>
<asrwt>0</asrwt>
<pdfrwt beam="1">  1        1 0.19550473E+00 0.15750733E+04</pdfrwt>
<pdfrwt beam="2">  1       -1 0.75085756E-01 0.15750733E+04</pdfrwt>
<totfact> 0.16280923E+01</totfact>
</mgrwt>
</event>
<event>
12    3  0.4769008E-008  0.1581401E+04  0.7818608E-02  0.8832056E-01
         -1   -1    0    0    0  501 -0.00000000000E+00  0.00000000000E+00  0.15832061770E+04  0.15832061770E+04  0.00000000000E+00 0. -1.
          1   -1    0    0  501    0  0.00000000000E+00 -0.00000000000E+00 -0.39489951360E+03  0.39489951360E+03  0.00000000000E+00 0.  1.
         23    2    1    2    0    0  0.39461041015E+03  0.12304502052E+03  0.24072394858E+01  0.42391692138E+03  0.94033550161E+02 0.  0.
        254    2    1    2    0    0 -0.39461041015E+03 -0.12304502052E+03  0.11858994239E+04  0.15541887692E+04  0.91558059931E+03 0.  0.
         23    2    4    4    0    0 -0.13420413712E+03  0.20615820813E+03  0.10804307386E+04  0.11115584275E+04  0.87861251839E+02 0.  0.
         23    2    4    4    0    0 -0.26040627303E+03 -0.32920322865E+03  0.10546868533E+03  0.44263034176E+03  0.92799693272E+02 0.  0.
          1    1    3    3  502    0  0.23170176646E+03  0.11591443939E+03  0.20303235041E+02  0.25987321368E+03  0.00000000000E+00 0. -1.
         -1    1    3    3    0  502  0.16290864369E+03  0.71305811345E+01 -0.17895995555E+02  0.16404370770E+03  0.00000000000E+00 0.  1.
         13    1    5    5    0    0 -0.86719258892E+00  0.52996454765E+02  0.32575466400E+03  0.33003859980E+03  0.00000000000E+00 0. -1.
        -13    1    5    5    0    0 -0.13333694454E+03  0.15316175336E+03  0.75467607459E+03  0.78151982766E+03  0.00000000000E+00 0.  1.
          1    1    6    6  503    0 -0.21576390678E+03 -0.21276378029E+03  0.54360292542E+02  0.30785959637E+03  0.00000000000E+00 0. -1.
         -1    1    6    6    0  503 -0.44642366251E+02 -0.11643944836E+03  0.51108392792E+02  0.13477074539E+03  0.00000000000E+00 0.  1.
<mgrwt>
<rscale>  0 0.15814011E+04</rscale>
<asrwt>0</asrwt>
<pdfrwt beam="1">  1        1 0.60753772E-01 0.15814011E+04</pdfrwt>
<pdfrwt beam="2">  1       -1 0.24357018E+00 0.15814011E+04</pdfrwt>
<totfact> 0.45065976E+00</totfact>
</mgrwt>
</event>
<event>
12    3  0.4769008E-008  0.4477293E+04  0.7818608E-02  0.7914624E-01
          1   -1    0    0  501    0  0.00000000000E+00  0.00000000000E+00  0.31485164789E+04  0.31485164789E+04  0.00000000000E+00 0. -1.
         -1   -1    0    0    0  501 -0.00000000000E+00 -0.00000000000E+00 -0.15917142961E+04  0.15917142961E+04  0.00000000000E+00 0.  1.
         23    2    1    2    0    0 -0.95908127966E+03  0.17584614521E+04  0.15827707159E+04  0.25546994545E+04  0.96449906244E+02 0.  0.
        254    2    1    2    0    0  0.95908127966E+03 -0.17584614521E+04 -0.25968533120E+02  0.21855313204E+04  0.87398467277E+03 0.  0.
         23    2    4    4    0    0  0.10506966238E+04 -0.11491966736E+04 -0.66223065653E+02  0.15611367924E+04  0.90256301898E+02 0.  0.
         23    2    4    4    0    0 -0.91615344152E+02 -0.60926477847E+03  0.40254532533E+02  0.62439452806E+03  0.93011599861E+02 0.  0.
          1    1    3    3  502    0 -0.78238065163E+03  0.15067906622E+04  0.13433001557E+04  0.21649463947E+04  0.00000000000E+00 0. -1.
         -1    1    3    3    0  502 -0.17670062802E+03  0.25167078994E+03  0.23947056021E+03  0.38975305985E+03  0.00000000000E+00 0.  1.
         13    1    5    5    0    0  0.31063542373E+03 -0.28054263786E+03 -0.16542582093E+02  0.41889401423E+03  0.00000000000E+00 0. -1.
        -13    1    5    5    0    0  0.74006120008E+03 -0.86865403578E+03 -0.49680483559E+02  0.11422427781E+04  0.00000000000E+00 0.  1.
          2    1    6    6  503    0 -0.62684357783E+02 -0.55545729963E+03  0.17672593158E+02  0.55926242585E+03  0.00000000000E+00 0. -1.
         -2    1    6    6    0  503 -0.28930986369E+02 -0.53807478842E+02  0.22581939375E+02  0.65132102205E+02  0.00000000000E+00 0.  1.
<mgrwt>
<rscale>  0 0.44772932E+04</rscale>
<asrwt>0</asrwt>
<pdfrwt beam="1">  1        1 0.48438715E+00 0.44772932E+04</pdfrwt>
<pdfrwt beam="2">  1       -1 0.24487912E+00 0.44772932E+04</pdfrwt>
<totfact> 0.26321097E-02</totfact>
</mgrwt>
</event>
<event>
12    3  0.4769008E-008  0.1304597E+04  0.7818608E-02  0.9025928E-01
          1   -1    0    0  501    0  0.00000000000E+00  0.00000000000E+00  0.10790554086E+04  0.10790554086E+04  0.00000000000E+00 0. -1.
         -1   -1    0    0    0  501 -0.00000000000E+00 -0.00000000000E+00 -0.39432016640E+03  0.39432016640E+03  0.00000000000E+00 0.  1.
         23    2    1    2    0    0  0.23854882114E+03  0.97735936059E+02 -0.65505583501E+02  0.28080504700E+03  0.90014663705E+02 0.  0.
        254    2    1    2    0    0 -0.23854882114E+03 -0.97735936059E+02  0.75024082570E+03  0.11925705280E+04  0.89045230890E+03 0.  0.
         23    2    4    4    0    0  0.30363099099E+03  0.11224621089E+03  0.31411955445E+03  0.46010449254E+03  0.90741716014E+02 0.  0.
         23    2    4    4    0    0 -0.54217981213E+03 -0.20998214695E+03  0.43612127126E+03  0.73246603546E+03  0.90847559872E+02 0.  0.
          4    1    3    3  502    0  0.10966525238E+03  0.77764041332E+02 -0.67360483029E+02  0.15037003816E+03  0.00000000000E+00 0.  1.
         -4    1    3    3    0  502  0.12888356877E+03  0.19971894728E+02  0.18548995277E+01  0.13043500883E+03  0.00000000000E+00 0. -1.
         13    1    5    5    0    0  0.11090411844E+03  0.88700466056E+02  0.13023166269E+03  0.19268570817E+03  0.00000000000E+00 0. -1.
        -13    1    5    5    0    0  0.19272687254E+03  0.23545744833E+02  0.18388789175E+03  0.26741878437E+03  0.00000000000E+00 0.  1.
          1    1    6    6  503    0 -0.75405079163E+02 -0.62871180206E+02  0.88362950040E+02  0.13208604091E+03  0.00000000000E+00 0. -1.
         -1    1    6    6    0  503 -0.46677473297E+03 -0.14711096674E+03  0.34775832122E+03  0.60037999454E+03  0.00000000000E+00 0.  1.
<mgrwt>
<rscale>  0 0.13045970E+04</rscale>
<asrwt>0</asrwt>
<pdfrwt beam="1">  1        1 0.16600852E+00 0.13045970E+04</pdfrwt>
<pdfrwt beam="2">  1       -1 0.60664642E-01 0.13045970E+04</pdfrwt>
<totfact> 0.35590752E+01</totfact>
</mgrwt>
</event>
<event>
12    3  0.4769008E-008  0.1748220E+04  0.7818608E-02  0.8734331E-01
          2   -1    0    0  501    0  0.00000000000E+00  0.00000000000E+00  0.13211932659E+04  0.13211932659E+04  0.00000000000E+00 0.  1.
         -2   -1    0    0    0  501 -0.00000000000E+00 -0.00000000000E+00 -0.57831692760E+03  0.57831692760E+03  0.00000000000E+00 0. -1.
         23    2    1    2    0    0 -0.33336813903E+03 -0.27211564466E+03  0.81560845578E+03  0.92714951909E+03  0.95957477174E+02 0.  0.
        254    2    1    2    0    0  0.33336813903E+03  0.27211564466E+03 -0.72732117524E+02  0.97236067437E+03  0.86891546192E+03 0.  0.
         23    2    4    4    0    0  0.46638613640E+03  0.49975780664E+03 -0.72270865205E+02  0.69304866756E+03  0.88427846997E+02 0.  0.
         23    2    4    4    0    0 -0.13301799737E+03 -0.22764216198E+03 -0.46125231855E+00  0.27931200681E+03  0.92196761666E+02 0.  0.
          1    1    3    3  502    0 -0.80847438055E+02 -0.32792280786E+02  0.10970950788E+03  0.14017067467E+03  0.00000000000E+00 0. -1.
         -1    1    3    3    0  502 -0.25252070097E+03 -0.23932336387E+03  0.70589894790E+03  0.78697884442E+03  0.00000000000E+00 0.  1.
         13    1    5    5    0    0  0.11151616649E+03  0.72922715456E+02 -0.28367087181E+02  0.13622873946E+03  0.00000000000E+00 0.  1.
        -13    1    5    5    0    0  0.35486996991E+03  0.42683509118E+03 -0.43903778024E+02  0.55681992810E+03  0.00000000000E+00 0. -1.
          1    1    6    6  503    0 -0.13267838361E+03 -0.20851668527E+03 -0.24761148607E+02  0.24838654552E+03  0.00000000000E+00 0. -1.
         -1    1    6    6    0  503 -0.33961376169E+00 -0.19125476708E+02  0.24299896288E+02  0.30925461297E+02  0.00000000000E+00 0.  1.
<mgrwt>
<rscale>  0 0.17482202E+04</rscale>
<asrwt>0</asrwt>
<pdfrwt beam="1">  1        2 0.20326050E+00 0.17482202E+04</pdfrwt>
<pdfrwt beam="2">  1       -2 0.88971835E-01 0.17482202E+04</pdfrwt>
<totfact> 0.16531173E+01</totfact>
</mgrwt>
</event>
<event>
12    3  0.4769008E-008  0.2655932E+04  0.7818608E-02  0.8349447E-01
         -2   -1    0    0    0  501 -0.00000000000E+00  0.00000000000E+00  0.12755530053E+04  0.12755530053E+04  0.00000000000E+00 0. -1.
          2   -1    0    0  501    0  0.00000000000E+00 -0.00000000000E+00 -0.13825323859E+04  0.13825323859E+04  0.00000000000E+00 0.  1.
         23    2    1    2    0    0  0.24927026672E+03 -0.11301552046E+04  0.14881888752E+03  0.11703259380E+04  0.90162561629E+02 0.  0.
        254    2    1    2    0    0 -0.24927026672E+03  0.11301552046E+04 -0.25579826806E+03  0.14877594532E+04  0.89922688154E+03 0.  0.
         23    2    4    4    0    0  0.89154369629E+02  0.10276893611E+04  0.11199911845E+02  0.10353946777E+04  0.88446458453E+02 0.  0.
         23    2    4    4    0    0 -0.33842463634E+03  0.10246584342E+03 -0.26699817991E+03  0.45236477551E+03  0.91188697178E+02 0.  0.
          1    1    3    3  502    0  0.23629038171E+03 -0.10435377896E+04  0.11376262843E+03  0.10759861516E+04  0.00000000000E+00 0. -1.
         -1    1    3    3    0  502  0.12979885006E+02 -0.86617414944E+02  0.35056259083E+02  0.94339786343E+02  0.00000000000E+00 0.  1.
         13    1    5    5    0    0  0.32747626587E+02  0.51642730154E+03  0.48180552785E+02  0.51970273281E+03  0.00000000000E+00 0.  1.
        -13    1    5    5    0    0  0.56406743042E+02  0.51126205960E+03 -0.36980640940E+02  0.51569194491E+03  0.00000000000E+00 0. -1.
          3    1    6    6  503    0 -0.10392684022E+03 -0.11041792734E+02 -0.81916437730E+02  0.13278935226E+03  0.00000000000E+00 0. -1.
         -3    1    6    6    0  503 -0.23449779613E+03  0.11350763615E+03 -0.18508174218E+03  0.31957542324E+03  0.00000000000E+00 0.  1.
<mgrwt>
<rscale>  0 0.26559317E+04</rscale>
<asrwt>0</asrwt>
<pdfrwt beam="1">  1        2 0.21269729E+00 0.26559317E+04</pdfrwt>
<pdfrwt beam="2">  1       -2 0.19623893E+00 0.26559317E+04</pdfrwt>
<totfact> 0.18363241E+00</totfact>
</mgrwt>
</event>
<event>
12    3  0.4769008E-008  0.1357407E+04  0.7818608E-02  0.8985240E-01
         -2   -1    0    0    0  501 -0.00000000000E+00  0.00000000000E+00  0.81752010424E+03  0.81752010424E+03  0.00000000000E+00 0.  1.
          2   -1    0    0  501    0  0.00000000000E+00 -0.00000000000E+00 -0.56345819401E+03  0.56345819401E+03  0.00000000000E+00 0. -1.
         23    2    1    2    0    0  0.10094164930E+03 -0.27582111778E+03 -0.17652374324E+03  0.35436000054E+03  0.90243406806E+02 0.  0.
        254    2    1    2    0    0 -0.10094164930E+03  0.27582111778E+03  0.43058565346E+03  0.10266182977E+04  0.88446289841E+03 0.  0.
         23    2    4    4    0    0  0.32633081082E+03  0.11793178024E+03 -0.45608418613E+02  0.36151434130E+03  0.90624435093E+02 0.  0.
         23    2    4    4    0    0 -0.42727246012E+03  0.15788933754E+03  0.47619407208E+03  0.66510395642E+03  0.90064868119E+02 0.  0.
          3    1    3    3  502    0  0.93159753359E+02 -0.14116235711E+03 -0.72463715562E+02  0.18400146951E+03  0.00000000000E+00 0. -1.
         -3    1    3    3    0  502  0.77818959444E+01 -0.13465876068E+03 -0.10406002768E+03  0.17035853102E+03  0.00000000000E+00 0.  1.
         13    1    5    5    0    0  0.32698097257E+03  0.11517654507E+03 -0.32601139094E+02  0.34820256638E+03  0.00000000000E+00 0.  1.
        -13    1    5    5    0    0 -0.65016175529E+00  0.27552351741E+01 -0.13007279519E+02  0.13311774925E+02  0.00000000000E+00 0. -1.
          3    1    6    6  503    0 -0.15242019310E+03  0.83928875319E+02  0.23252003514E+03  0.29041614645E+03  0.00000000000E+00 0. -1.
         -3    1    6    6    0  503 -0.27485226702E+03  0.73960462223E+02  0.24367403693E+03  0.37468780996E+03  0.00000000000E+00 0.  1.
<mgrwt>
<rscale>  0 0.13574069E+04</rscale>
<asrwt>0</asrwt>
<pdfrwt beam="1">  1        2 0.86685876E-01 0.13574069E+04</pdfrwt>
<pdfrwt beam="2">  1       -2 0.12577232E+00 0.13574069E+04</pdfrwt>
<totfact> 0.24645008E+01</totfact>
</mgrwt>
</event>
<event>
12    3  0.4769008E-008  0.2921117E+04  0.7818608E-02  0.8266622E-01
          2   -1    0    0  501    0  0.00000000000E+00  0.00000000000E+00  0.13618061811E+04  0.13618061811E+04  0.00000000000E+00 0. -1.
         -2   -1    0    0    0  501 -0.00000000000E+00 -0.00000000000E+00 -0.15664717518E+04  0.15664717518E+04  0.00000000000E+00 0.  1.
         23    2    1    2    0    0  0.10395393202E+04  0.53247180601E+03 -0.71703683979E+03  0.13735801855E+04  0.91719540309E+02 0.  0.
        254    2    1    2    0    0 -0.10395393202E+04 -0.53247180601E+03  0.51237126908E+03  0.15546977474E+04  0.88904023876E+03 0.  0.
         23    2    4    4    0    0 -0.11011017475E+04 -0.60534521748E+03  0.28522903311E+03  0.12916869661E+04  0.90728861520E+02 0.  0.
         23    2    4    4    0    0  0.61562427318E+02  0.72873411463E+02  0.22714223597E+03  0.26301078138E+03  0.92090223173E+02 0.  0.
          2    1    3    3  502    0  0.12038572503E+03  0.53614706523E+02 -0.11559485487E+03  0.17529811755E+03  0.00000000000E+00 0. -1.
         -2    1    3    3    0  502  0.91915359516E+03  0.47885709949E+03 -0.60144198492E+03  0.11982820680E+04  0.00000000000E+00 0.  1.
         13    1    5    5    0    0 -0.90923070617E+03 -0.52544827487E+03  0.21202960641E+03  0.10713323110E+04  0.00000000000E+00 0.  1.
        -13    1    5    5    0    0 -0.19187104133E+03 -0.79896942604E+02  0.73199426706E+02  0.22035465506E+03  0.00000000000E+00 0. -1.
          3    1    6    6  503    0  0.56966284875E+02  0.94389011600E+02  0.19604024625E+03  0.22491380855E+03  0.00000000000E+00 0.  1.
         -3    1    6    6    0  503  0.45961424435E+01 -0.21515600138E+02  0.31101989714E+02  0.38096972830E+02  0.00000000000E+00 0. -1.
<mgrwt>
<rscale>  0 0.29211169E+04</rscale>
<asrwt>0</asrwt>
<pdfrwt beam="1">  1        2 0.20950864E+00 0.29211169E+04</pdfrwt>
<pdfrwt beam="2">  1       -2 0.24099565E+00 0.29211169E+04</pdfrwt>
<totfact> 0.95775478E-01</totfact>
</mgrwt>
</event>
<event>
12    3  0.4769008E-008  0.2851597E+04  0.7818608E-02  0.8287426E-01
          2   -1    0    0  501    0  0.00000000000E+00  0.00000000000E+00  0.32931484713E+04  0.32931484713E+04  0.00000000000E+00 0. -1.
         -2   -1    0    0    0  501 -0.00000000000E+00 -0.00000000000E+00 -0.61731238683E+03  0.61731238683E+03  0.00000000000E+00 0.  1.
         23    2    1    2    0    0 -0.11991965180E+04  0.32703470518E+03  0.16275017692E+04  0.20499883255E+04  0.93092098090E+02 0.  0.
        254    2    1    2    0    0  0.11991965180E+04 -0.32703470518E+03  0.10483343153E+04  0.18604725327E+04  0.90406262007E+03 0.  0.
         23    2    4    4    0    0  0.85946908147E+03 -0.37281139703E+03  0.11550991553E+04  0.14898842064E+04  0.88461574826E+02 0.  0.
         23    2    4    4    0    0  0.33972743653E+03  0.45776691848E+02 -0.10676483997E+03  0.37058832627E+03  0.91797275912E+02 0.  0.
          2    1    3    3  502    0 -0.62536791700E+03  0.14709605189E+03  0.77364273122E+03  0.10056069588E+04  0.00000000000E+00 0. -1.
         -2    1    3    3    0  502 -0.57382860100E+03  0.17993865329E+03  0.85385903796E+03  0.10443813666E+04  0.00000000000E+00 0.  1.
         13    1    5    5    0    0  0.39969451504E+03 -0.20058343963E+03  0.49304472296E+03  0.66564443995E+03  0.00000000000E+00 0.  1.
        -13    1    5    5    0    0  0.45977456644E+03 -0.17222795739E+03  0.66205443232E+03  0.82423976646E+03  0.00000000000E+00 0. -1.
          1    1    6    6  503    0  0.13240781732E+03  0.10613124676E+02  0.40528089876E+01  0.13289429545E+03  0.00000000000E+00 0. -1.
         -1    1    6    6    0  503  0.20731961921E+03  0.35163567172E+02 -0.11081764896E+03  0.23769403082E+03  0.00000000000E+00 0.  1.
<mgrwt>
<rscale>  0 0.28515970E+04</rscale>
<asrwt>0</asrwt>
<pdfrwt beam="1">  1        2 0.50663822E+00 0.28515970E+04</pdfrwt>
<pdfrwt beam="2">  1       -2 0.94971138E-01 0.28515970E+04</pdfrwt>
<totfact> 0.90927270E-01</totfact>
</mgrwt>
</event>
<event>
12    3  0.4769008E-008  0.3300725E+04  0.7818608E-02  0.8162711E-01
          2   -1    0    0  501    0  0.00000000000E+00  0.00000000000E+00  0.16032461982E+04  0.16032461982E+04  0.00000000000E+00 0. -1.
         -2   -1    0    0    0  501 -0.00000000000E+00 -0.00000000000E+00 -0.16988634351E+04  0.16988634351E+04  0.00000000000E+00 0.  1.
         23    2    1    2    0    0 -0.12990267721E+04 -0.37059316231E+03 -0.76044667133E+03  0.15529265406E+04  0.92151255763E+02 0.  0.
        254    2    1    2    0    0  0.12990267721E+04  0.37059316231E+03  0.66482943447E+03  0.17491830927E+04  0.89041196554E+03 0.  0.
         23    2    4    4    0    0  0.86047255031E+03  0.43185709094E+03  0.82343229198E+03  0.12699011762E+04  0.87719444528E+02 0.  0.
         23    2    4    4    0    0  0.43855422175E+03 -0.61263928631E+02 -0.15860285752E+03  0.47928191653E+03  0.92050066410E+02 0.  0.
          2    1    3    3  502    0 -0.49246977432E+02 -0.11219359871E+02 -0.99512743219E+01  0.51479769646E+02  0.00000000000E+00 0. -1.
         -2    1    3    3    0  502 -0.12497797946E+04 -0.35937380244E+03 -0.75049539701E+03  0.15014467709E+04  0.00000000000E+00 0.  1.
         13    1    5    5    0    0  0.54483518728E+03  0.24363518798E+03  0.55280853683E+03  0.81351137946E+03  0.00000000000E+00 0.  1.
        -13    1    5    5    0    0  0.31563736303E+03  0.18822190297E+03  0.27062375515E+03  0.45638979672E+03  0.00000000000E+00 0. -1.
          3    1    6    6  503    0  0.31196395607E+02 -0.25224708784E+02 -0.31589846353E+02  0.51062896753E+02  0.00000000000E+00 0. -1.
         -3    1    6    6    0  503  0.40735782615E+03 -0.36039219847E+02 -0.12701301116E+03  0.42821901977E+03  0.00000000000E+00 0.  1.
<mgrwt>
<rscale>  0 0.33007250E+04</rscale>
<asrwt>0</asrwt>
<pdfrwt beam="1">  1        2 0.24665326E+00 0.33007250E+04</pdfrwt>
<pdfrwt beam="2">  1       -2 0.26136361E+00 0.33007250E+04</pdfrwt>
<totfact> 0.50762259E-01</totfact>
</mgrwt>
</event>
<event>
12    3  0.4769008E-008  0.1146405E+04  0.7818608E-02  0.9161106E-01
          2   -1    0    0  501    0  0.00000000000E+00  0.00000000000E+00  0.83335206282E+03  0.83335206282E+03  0.00000000000E+00 0. -1.
         -2   -1    0    0    0  501 -0.00000000000E+00 -0.00000000000E+00 -0.39426471983E+03  0.39426471983E+03  0.00000000000E+00 0.  1.
         23    2    1    2    0    0  0.16095162097E+03  0.92837006418E+01 -0.41645072944E+02  0.19050734978E+03  0.92558775001E+02 0.  0.
        254    2    1    2    0    0 -0.16095162097E+03 -0.92837006418E+01  0.48073241594E+03  0.10371094329E+04  0.90471028989E+03 0.  0.
         23    2    4    4    0    0 -0.34342061718E+03 -0.21169958986E+03  0.59844235000E+03  0.72744692593E+03  0.91056834570E+02 0.  0.
         23    2    4    4    0    0  0.18246899621E+03  0.20241588922E+03 -0.11770993407E+03  0.30966250694E+03  0.88136898301E+02 0.  0.
          1    1    3    3  502    0  0.27470004993E+02  0.24014655594E+02  0.21242053676E+02  0.42220015419E+02  0.00000000000E+00 0. -1.
         -1    1    3    3    0  502  0.13348161598E+03 -0.14730954952E+02 -0.62887126620E+02  0.14828733436E+03  0.00000000000E+00 0.  1.
         13    1    5    5    0    0 -0.26229366796E+03 -0.19575297302E+03  0.43598422564E+03  0.54516001294E+03  0.00000000000E+00 0.  1.
        -13    1    5    5    0    0 -0.81126949217E+02 -0.15946616839E+02  0.16245812436E+03  0.18228691299E+03  0.00000000000E+00 0. -1.
          3    1    6    6  503    0  0.79359168169E+02  0.15202015319E+03 -0.65372585004E+02  0.18352541900E+03  0.00000000000E+00 0.  1.
         -3    1    6    6    0  503  0.10310982804E+03  0.50395736030E+02 -0.52337349062E+02  0.12613708794E+03  0.00000000000E+00 0. -1.
<mgrwt>
<rscale>  0 0.11464054E+04</rscale>
<asrwt>0</asrwt>
<pdfrwt beam="1">  1        2 0.12820801E+00 0.11464054E+04</pdfrwt>
<pdfrwt beam="2">  1       -2 0.60656111E-01 0.11464054E+04</pdfrwt>
<totfact> 0.81729158E+01</totfact>
</mgrwt>
</event>
<event>
12    3  0.4769008E-008  0.1646158E+04  0.7818608E-02  0.8792682E-01
         -2   -1    0    0    0  501 -0.00000000000E+00  0.00000000000E+00  0.85729200436E+03  0.85729200436E+03  0.00000000000E+00 0.  1.
          2   -1    0    0  501    0  0.00000000000E+00 -0.00000000000E+00 -0.79023185104E+03  0.79023185104E+03  0.00000000000E+00 0. -1.
         23    2    1    2    0    0  0.53762283256E+03  0.20656452731E+03  0.37650778133E+02  0.58420678203E+03  0.90403368563E+02 0.  0.
        254    2    1    2    0    0 -0.53762283256E+03 -0.20656452731E+03  0.29409375178E+02  0.10633170734E+04  0.89334823732E+03 0.  0.
         23    2    4    4    0    0 -0.25871955468E+03  0.73507363724E+01  0.43776551778E+03  0.51671634140E+03  0.91472879099E+02 0.  0.
         23    2    4    4    0    0 -0.27890327788E+03 -0.21391526368E+03 -0.40835614260E+03  0.54660073197E+03  0.92037180220E+02 0.  0.
          4    1    3    3  502    0  0.30334657395E+03  0.93058797429E+02  0.60006747256E+02  0.32292397468E+03  0.00000000000E+00 0. -1.
         -4    1    3    3    0  502  0.23427625861E+03  0.11350572988E+03 -0.22355969123E+02  0.26128280736E+03  0.00000000000E+00 0.  1.
         13    1    5    5    0    0 -0.24708267648E+03 -0.26735909048E+01  0.35495084563E+03  0.43248942174E+03  0.00000000000E+00 0.  1.
        -13    1    5    5    0    0 -0.11636878204E+02  0.10024327277E+02  0.82814672150E+02  0.84226919658E+02  0.00000000000E+00 0. -1.
          4    1    6    6  503    0 -0.77405647314E+02 -0.12442789590E+02 -0.88233485694E+02  0.11803222122E+03  0.00000000000E+00 0. -1.
         -4    1    6    6    0  503 -0.20149763056E+03 -0.20147247409E+03 -0.32012265691E+03  0.42856851075E+03  0.00000000000E+00 0.  1.
<mgrwt>
<rscale>  0 0.16461585E+04</rscale>
<asrwt>0</asrwt>
<pdfrwt beam="1">  1        2 0.12157413E+00 0.16461585E+04</pdfrwt>
<pdfrwt beam="2">  1       -2 0.13189108E+00 0.16461585E+04</pdfrwt>
<totfact> 0.14004131E+01</totfact>
</mgrwt>
</event>
<event>
12    3  0.4769008E-008  0.2571666E+04  0.7818608E-02  0.8377890E-01
         -2   -1    0    0    0  501 -0.00000000000E+00  0.00000000000E+00  0.81975066847E+03  0.81975066847E+03  0.00000000000E+00 0.  1.
          2   -1    0    0  501    0  0.00000000000E+00 -0.00000000000E+00 -0.20169142004E+04  0.20169142004E+04  0.00000000000E+00 0. -1.
         23    2    1    2    0    0  0.92219645329E+03  0.54357365348E+03 -0.13426428742E+03  0.10826822069E+04  0.90858390475E+02 0.  0.
        254    2    1    2    0    0 -0.92219645329E+03 -0.54357365348E+03 -0.10628992445E+04  0.17539826620E+04  0.89486410096E+03 0.  0.
         23    2    4    4    0    0 -0.81205411908E+03 -0.60268846500E+03 -0.42990108649E+03  0.11025743015E+04  0.90497889030E+02 0.  0.
         23    2    4    4    0    0 -0.11014233421E+03  0.59114811517E+02 -0.63299815805E+03  0.65140836050E+03  0.89556067934E+02 0.  0.
          3    1    3    3  502    0  0.15334087079E+03  0.56498196866E+02 -0.59420868306E+01  0.16352607529E+03  0.00000000000E+00 0. -1.
         -3    1    3    3    0  502  0.76885558250E+03  0.48707545662E+03 -0.12832220059E+03  0.91915613164E+03  0.00000000000E+00 0.  1.
         13    1    5    5    0    0 -0.70984201742E+03 -0.51262483643E+03 -0.40223609441E+03  0.96356306917E+03  0.00000000000E+00 0.  1.
        -13    1    5    5    0    0 -0.10221210166E+03 -0.90063628569E+02 -0.27664992084E+02  0.13901123229E+03  0.00000000000E+00 0. -1.
          1    1    6    6  503    0  0.43133503499E+01  0.22583539826E+02 -0.38102938852E+02  0.44502305688E+02  0.00000000000E+00 0. -1.
         -1    1    6    6    0  503 -0.11445568456E+03  0.36531271691E+02 -0.59489521920E+03  0.60690605481E+03  0.00000000000E+00 0.  1.
<mgrwt>
<rscale>  0 0.25716662E+04</rscale>
<asrwt>0</asrwt>
<pdfrwt beam="1">  1        2 0.31029449E+00 0.25716662E+04</pdfrwt>
<pdfrwt beam="2">  1       -2 0.12611549E+00 0.25716662E+04</pdfrwt>
<totfact> 0.27180335E+00</totfact>
</mgrwt>
</event>
<event>
12    3  0.4769008E-008  0.1237632E+04  0.7818608E-02  0.9080540E-01
         -2   -1    0    0    0  501 -0.00000000000E+00  0.00000000000E+00  0.12498856386E+03  0.12498856386E+03  0.00000000000E+00 0.  1.
          2   -1    0    0  501    0  0.00000000000E+00 -0.00000000000E+00 -0.30637461421E+04  0.30637461421E+04  0.00000000000E+00 0. -1.
         23    2    1    2    0    0  0.47834887948E+02 -0.16381647794E+03 -0.12413100035E+03  0.22996652194E+03  0.91389720526E+02 0.  0.
        254    2    1    2    0    0 -0.47834887948E+02  0.16381647794E+03 -0.28146265779E+04  0.29587681840E+04  0.89613747765E+03 0.  0.
         23    2    4    4    0    0  0.23603634737E+02  0.16113541127E+03 -0.54298167237E+02  0.19600721256E+03  0.94598013060E+02 0.  0.
         23    2    4    4    0    0 -0.71438522686E+02  0.26810666737E+01 -0.27603284106E+04  0.27627609714E+04  0.91239246460E+02 0.  0.
          2    1    3    3  502    0 -0.13999962763E+02 -0.43358351099E+02  0.10359852635E+01  0.45574322078E+02  0.00000000000E+00 0. -1.
         -2    1    3    3    0  502  0.61834850711E+02 -0.12045812684E+03 -0.12516698561E+03  0.18439219987E+03  0.00000000000E+00 0.  1.
         13    1    5    5    0    0  0.11469632084E+02  0.81848674285E+02  0.21765417442E+02  0.85466316983E+02  0.00000000000E+00 0. -1.
        -13    1    5    5    0    0  0.12134002654E+02  0.79286736982E+02 -0.76063584679E+02  0.11054089558E+03  0.00000000000E+00 0.  1.
          1    1    6    6  503    0 -0.59974616279E+02  0.20462354523E+02 -0.26270212752E+04  0.26277854637E+04  0.00000000000E+00 0. -1.
         -1    1    6    6    0  503 -0.11463906407E+02 -0.17781287850E+02 -0.13330713538E+03  0.13497550775E+03  0.00000000000E+00 0.  1.
<mgrwt>
<rscale>  0 0.12376320E+04</rscale>
<asrwt>0</asrwt>
<pdfrwt beam="1">  1        2 0.47134554E+00 0.12376320E+04</pdfrwt>
<pdfrwt beam="2">  1       -2 0.19229011E-01 0.12376320E+04</pdfrwt>
<totfact> 0.36295337E+01</totfact>
</mgrwt>
</event>
<event>
12    3  0.4769008E-008  0.1934502E+04  0.7818608E-02  0.8637871E-01
         -1   -1    0    0    0  501 -0.00000000000E+00  0.00000000000E+00  0.33834191660E+03  0.33834191660E+03  0.00000000000E+00 0.  1.
          1   -1    0    0  501    0  0.00000000000E+00 -0.00000000000E+00 -0.27651749040E+04  0.27651749040E+04  0.00000000000E+00 0. -1.
         23    2    1    2    0    0  0.25876421406E+03  0.12279904162E+03  0.17288508617E+03  0.34616127690E+03  0.88881120080E+02 0.  0.
        254    2    1    2    0    0 -0.25876421406E+03 -0.12279904162E+03 -0.25997180736E+04  0.27573555437E+04  0.87317639065E+03 0.  0.
         23    2    4    4    0    0  0.10144076960E+03 -0.40595098910E+03 -0.94792493814E+03  0.10402013876E+04  0.91492093674E+02 0.  0.
         23    2    4    4    0    0 -0.36020498366E+03  0.28315194748E+03 -0.16517931354E+04  0.17171541561E+04  0.10136655166E+03 0.  0.
          1    1    3    3  502    0  0.54248847789E+02  0.15831852067E+02 -0.20620813489E+01  0.56549422683E+02  0.00000000000E+00 0. -1.
         -1    1    3    3    0  502  0.20451536627E+03  0.10696718956E+03  0.17494716752E+03  0.28961185422E+03  0.00000000000E+00 0.  1.
         13    1    5    5    0    0  0.28036052329E+02 -0.15234418899E+03 -0.25108041490E+03  0.29501889244E+03  0.00000000000E+00 0. -1.
        -13    1    5    5    0    0  0.73404717276E+02 -0.25360680011E+03 -0.69684452324E+03  0.74518249520E+03  0.00000000000E+00 0.  1.
          3    1    6    6  503    0 -0.29439720876E+03  0.22210622243E+03 -0.14523987402E+04  0.14984869006E+04  0.00000000000E+00 0. -1.
         -3    1    6    6    0  503 -0.65807774903E+02  0.61045725050E+02 -0.19939439523E+03  0.21866725551E+03  0.00000000000E+00 0.  1.
<mgrwt>
<rscale>  0 0.19345021E+04</rscale>
<asrwt>0</asrwt>
<pdfrwt beam="1">  1        1 0.42541153E+00 0.19345021E+04</pdfrwt>
<pdfrwt beam="2">  1       -1 0.52052602E-01 0.19345021E+04</pdfrwt>
<totfact> 0.30632996E+00</totfact>
</mgrwt>
</event>
<event>
12    3  0.4769008E-008  0.1598573E+04  0.7818608E-02  0.8821425E-01
         -1   -1    0    0    0  501 -0.00000000000E+00  0.00000000000E+00  0.71007992353E+03  0.71007992353E+03  0.00000000000E+00 0.  1.
          1   -1    0    0  501    0  0.00000000000E+00 -0.00000000000E+00 -0.89969984108E+03  0.89969984108E+03  0.00000000000E+00 0. -1.
         23    2    1    2    0    0 -0.47198525895E+03  0.27323785378E+03 -0.75997892171E+02  0.55817860705E+03  0.91425753190E+02 0.  0.
        254    2    1    2    0    0  0.47198525895E+03 -0.27323785378E+03 -0.11362202537E+03  0.10516011576E+04  0.89192265389E+03 0.  0.
         23    2    4    4    0    0  0.30568812637E+03  0.24515957679E+03 -0.26105471487E+03  0.48086813976E+03  0.97653238461E+02 0.  0.
         23    2    4    4    0    0  0.16629713258E+03 -0.51839743057E+03  0.14743268950E+03  0.57073301780E+03  0.87230426781E+02 0.  0.
          2    1    3    3  502    0 -0.44733491603E+03  0.25957508239E+03 -0.92676157601E+02  0.52542993889E+03  0.00000000000E+00 0. -1.
         -2    1    3    3    0  502 -0.24650342922E+02  0.13662771386E+02  0.16678265430E+02  0.32748668154E+02  0.00000000000E+00 0.  1.
         13    1    5    5    0    0  0.18223064821E+03  0.83956513677E+02 -0.12321081891E+03  0.23545192977E+03  0.00000000000E+00 0. -1.
        -13    1    5    5    0    0  0.12345747816E+03  0.16120306311E+03 -0.13784389596E+03  0.24541620998E+03  0.00000000000E+00 0.  1.
          4    1    6    6  503    0  0.28118011036E+02 -0.23508886477E+02  0.18863973011E+01  0.36699438454E+02  0.00000000000E+00 0. -1.
         -4    1    6    6    0  503  0.13817912155E+03 -0.49488854409E+03  0.14554629219E+03  0.53403357935E+03  0.00000000000E+00 0.  1.
<mgrwt>
<rscale>  0 0.15985729E+04</rscale>
<asrwt>0</asrwt>
<pdfrwt beam="1">  1        1 0.13841536E+00 0.15985729E+04</pdfrwt>
<pdfrwt beam="2">  1       -1 0.10924306E+00 0.15985729E+04</pdfrwt>
<totfact> 0.13557747E+01</totfact>
</mgrwt>
</event>
<event>
12    3  0.4769008E-008  0.1897880E+04  0.7818608E-02  0.8655912E-01
          2   -1    0    0  501    0  0.00000000000E+00  0.00000000000E+00  0.29637117251E+04  0.29637117251E+04  0.00000000000E+00 0. -1.
         -2   -1    0    0    0  501 -0.00000000000E+00 -0.00000000000E+00 -0.30383774707E+03  0.30383774707E+03  0.00000000000E+00 0.  1.
         23    2    1    2    0    0 -0.90436587359E+02 -0.57955551660E+03  0.27125236055E+03  0.65260112866E+03  0.90813087578E+02 0.  0.
        254    2    1    2    0    0  0.90436587359E+02  0.57955551660E+03  0.23886216175E+04  0.26149483435E+04  0.88790665872E+03 0.  0.
         23    2    4    4    0    0 -0.14133533638E+03 -0.18064244612E+03  0.38167461715E+03  0.45400234219E+03  0.88516906241E+02 0.  0.
         23    2    4    4    0    0  0.23177192374E+03  0.76019796271E+03  0.20069470003E+04  0.21609460013E+04  0.10115429475E+03 0.  0.
          3    1    3    3  502    0 -0.16062563306E+02 -0.38320156577E+02 -0.23115294531E+01  0.41614703033E+02  0.00000000000E+00 0. -1.
         -3    1    3    3    0  502 -0.74374024053E+02 -0.54123536002E+03  0.27356389001E+03  0.61098642563E+03  0.00000000000E+00 0.  1.
         13    1    5    5    0    0 -0.32228527166E+02 -0.96667853319E+02  0.21417221156E+03  0.23717733457E+03  0.00000000000E+00 0. -1.
        -13    1    5    5    0    0 -0.10910680921E+03 -0.83974592798E+02  0.16750240559E+03  0.21682500762E+03  0.00000000000E+00 0.  1.
          2    1    6    6  503    0  0.75154785934E+02  0.40751545240E+03  0.10895777716E+04  0.11657172926E+04  0.00000000000E+00 0. -1.
         -2    1    6    6    0  503  0.15661713780E+03  0.35268251032E+03  0.91736922873E+03  0.99522870877E+03  0.00000000000E+00 0.  1.
<mgrwt>
<rscale>  0 0.18978804E+04</rscale>
<asrwt>0</asrwt>
<pdfrwt beam="1">  1        2 0.45595563E+00 0.18978804E+04</pdfrwt>
<pdfrwt beam="2">  1       -2 0.46744271E-01 0.18978804E+04</pdfrwt>
<totfact> 0.74769493E+00</totfact>
</mgrwt>
</event>
<event>
12    3  0.4769008E-008  0.2729000E+04  0.7818608E-02  0.8325656E-01
         -2   -1    0    0    0  501 -0.00000000000E+00  0.00000000000E+00  0.66858807806E+03  0.66858807806E+03  0.00000000000E+00 0.  1.
          2   -1    0    0  501    0  0.00000000000E+00 -0.00000000000E+00 -0.27847647898E+04  0.27847647898E+04  0.00000000000E+00 0. -1.
         23    2    1    2    0    0 -0.67379263482E+03 -0.65979883232E+03  0.24541019996E+02  0.94782328882E+03  0.91846128337E+02 0.  0.
        254    2    1    2    0    0  0.67379263482E+03  0.65979883232E+03 -0.21407177317E+04  0.25055295790E+04  0.89759403439E+03 0.  0.
         23    2    4    4    0    0  0.19236448540E+02  0.11638254352E+02  0.64301831170E+02  0.11412640625E+03  0.91567577209E+02 0.  0.
         23    2    4    4    0    0  0.65455618628E+03  0.64816057797E+03 -0.22050195629E+04  0.23914031728E+04  0.90232622411E+02 0.  0.
          4    1    3    3  502    0 -0.22478313051E+03 -0.23278832947E+03  0.51141347283E+02  0.32761761171E+03  0.00000000000E+00 0. -1.
         -4    1    3    3    0  502 -0.44900950431E+03 -0.42701050285E+03 -0.26600327287E+02  0.62020567711E+03  0.00000000000E+00 0.  1.
         13    1    5    5    0    0  0.22647320692E+02  0.29782301060E+02 -0.90441135023E+01  0.38492630204E+02  0.00000000000E+00 0. -1.
        -13    1    5    5    0    0 -0.34108721517E+01 -0.18144046708E+02  0.73345944672E+02  0.75633776050E+02  0.00000000000E+00 0.  1.
          4    1    6    6  503    0  0.13281243624E+02  0.23324847902E+02 -0.10710072121E+03  0.11041288170E+03  0.00000000000E+00 0. -1.
         -4    1    6    6    0  503  0.64127494266E+03  0.62483573007E+03 -0.20979188417E+04  0.22809902911E+04  0.00000000000E+00 0.  1.
<mgrwt>
<rscale>  0 0.27290002E+04</rscale>
<asrwt>0</asrwt>
<pdfrwt beam="1">  1        2 0.42842535E+00 0.27290002E+04</pdfrwt>
<pdfrwt beam="2">  1       -2 0.10285970E+00 0.27290002E+04</pdfrwt>
<totfact> 0.15960092E+00</totfact>
</mgrwt>
</event>
<event>
12    3  0.4769008E-008  0.1647341E+04  0.7818608E-02  0.8791981E-01
          1   -1    0    0  501    0  0.00000000000E+00  0.00000000000E+00  0.91199221161E+03  0.91199221161E+03  0.00000000000E+00 0. -1.
         -1   -1    0    0    0  501 -0.00000000000E+00 -0.00000000000E+00 -0.74390238306E+03  0.74390238306E+03  0.00000000000E+00 0.  1.
         23    2    1    2    0    0  0.97153974103E+01  0.25632997310E+03  0.57232706908E+03  0.63438746285E+03  0.95340101554E+02 0.  0.
        254    2    1    2    0    0 -0.97153974103E+01 -0.25632997310E+03 -0.40423724052E+03  0.10215071318E+04  0.90236889888E+03 0.  0.
         23    2    4    4    0    0 -0.96582897786E+01  0.13354515436E+03  0.22438401435E+03  0.27643496256E+03  0.90224784921E+02 0.  0.
         23    2    4    4    0    0 -0.57107631731E-01 -0.38987512746E+03 -0.62862125488E+03  0.74507216926E+03  0.89248176722E+02 0.  0.
          2    1    3    3  502    0 -0.28137735776E+02  0.20700705760E+03  0.47479893553E+03  0.51872698335E+03  0.00000000000E+00 0. -1.
         -2    1    3    3    0  502  0.37853133187E+02  0.49322915504E+02  0.97528133546E+02  0.11566047950E+03  0.00000000000E+00 0.  1.
         13    1    5    5    0    0 -0.71831756141E+01 -0.88908889375E+01  0.49849119241E+02  0.51142747355E+02  0.00000000000E+00 0. -1.
        -13    1    5    5    0    0 -0.24751141645E+01  0.14243604329E+03  0.17453489511E+03  0.22529221520E+03  0.00000000000E+00 0.  1.
          3    1    6    6  503    0  0.53655035160E+01 -0.39317999733E+03 -0.61384366693E+03  0.72898789178E+03  0.00000000000E+00 0.  1.
         -3    1    6    6    0  503 -0.54226111477E+01  0.33048698723E+01 -0.14777587947E+02  0.16084277481E+02  0.00000000000E+00 0. -1.
<mgrwt>
<rscale>  0 0.16473411E+04</rscale>
<asrwt>0</asrwt>
<pdfrwt beam="1">  1        1 0.14030649E+00 0.16473411E+04</pdfrwt>
<pdfrwt beam="2">  1       -1 0.11444652E+00 0.16473411E+04</pdfrwt>
<totfact> 0.11810041E+01</totfact>
</mgrwt>
</event>
<event>
12    3  0.4769008E-008  0.2162762E+04  0.7818608E-02  0.8534089E-01
         -2   -1    0    0    0  501 -0.00000000000E+00  0.00000000000E+00  0.69470755463E+03  0.69470755463E+03  0.00000000000E+00 0.  1.
          2   -1    0    0  501    0  0.00000000000E+00 -0.00000000000E+00 -0.16832765345E+04  0.16832765345E+04  0.00000000000E+00 0. -1.
         23    2    1    2    0    0 -0.95644211018E+02 -0.88769699629E+03 -0.41685978963E+03  0.98972271138E+03  0.92871895026E+02 0.  0.
        254    2    1    2    0    0  0.95644211018E+02  0.88769699629E+03 -0.57170919025E+03  0.13882613778E+04  0.89625023427E+03 0.  0.
         23    2    4    4    0    0 -0.36066736250E+03  0.54728506288E+03 -0.44687364039E+03  0.79848355735E+03  0.90983814253E+02 0.  0.
         23    2    4    4    0    0  0.45631157352E+03  0.34041193342E+03 -0.12483554986E+03  0.58977782041E+03  0.90296325525E+02 0.  0.
          2    1    3    3  502    0 -0.14356734408E+02 -0.16978460456E+03 -0.40776737855E+02  0.17520179827E+03  0.00000000000E+00 0. -1.
         -2    1    3    3    0  502 -0.81287476610E+02 -0.71791239173E+03 -0.37608305177E+03  0.81452091311E+03  0.00000000000E+00 0.  1.
         13    1    5    5    0    0 -0.22850537321E+03  0.26420807327E+03 -0.23504908441E+03  0.42103287716E+03  0.00000000000E+00 0.  1.
        -13    1    5    5    0    0 -0.13216198929E+03  0.28307698960E+03 -0.21182455598E+03  0.37745068019E+03  0.00000000000E+00 0. -1.
          2    1    6    6  503    0  0.54153373293E+02  0.89383674408E+01 -0.18173601628E+02  0.57816624319E+02  0.00000000000E+00 0. -1.
         -2    1    6    6    0  503  0.40215820023E+03  0.33147356598E+03 -0.10666194823E+03  0.53196119610E+03  0.00000000000E+00 0.  1.
<mgrwt>
<rscale>  0 0.21627621E+04</rscale>
<asrwt>0</asrwt>
<pdfrwt beam="1">  1        2 0.25896562E+00 0.21627621E+04</pdfrwt>
<pdfrwt beam="2">  1       -2 0.10687809E+00 0.21627621E+04</pdfrwt>
<totfact> 0.64710596E+00</totfact>
</mgrwt>
</event>
<event>
12    3  0.4769008E-008  0.2034454E+04  0.7818608E-02  0.8590680E-01
         -2   -1    0    0    0  501 -0.00000000000E+00  0.00000000000E+00  0.69493580888E+03  0.69493580888E+03  0.00000000000E+00 0.  1.
          2   -1    0    0  501    0  0.00000000000E+00 -0.00000000000E+00 -0.14889868399E+04  0.14889868399E+04  0.00000000000E+00 0. -1.
         23    2    1    2    0    0  0.50932419525E+03 -0.23119454338E+03 -0.94934732004E+03  0.11055714504E+04  0.90365065523E+02 0.  0.
        254    2    1    2    0    0 -0.50932419525E+03  0.23119454338E+03  0.15529628904E+03  0.10783511984E+04  0.90876967209E+03 0.  0.
         23    2    4    4    0    0 -0.61864140401E+03  0.43397522135E+03  0.26748233938E+03  0.80680955719E+03  0.91341010486E+02 0.  0.
         23    2    4    4    0    0  0.10931720876E+03 -0.20278067797E+03 -0.11218605034E+03  0.27154164119E+03  0.89882687553E+02 0.  0.
          1    1    3    3  502    0  0.45391617414E+03 -0.17920626572E+03 -0.85460493338E+03  0.98412619668E+03  0.00000000000E+00 0. -1.
         -1    1    3    3    0  502  0.55408021108E+02 -0.51988277661E+02 -0.94742386658E+02  0.12144525370E+03  0.00000000000E+00 0.  1.
         13    1    5    5    0    0 -0.15146033993E+03  0.74877278962E+02  0.30467428299E+02  0.17168315486E+03  0.00000000000E+00 0. -1.
        -13    1    5    5    0    0 -0.46718106408E+03  0.35909794239E+03  0.23701491108E+03  0.63512640233E+03  0.00000000000E+00 0.  1.
          4    1    6    6  503    0  0.52889305658E+02 -0.21651853751E+02 -0.19404360177E+02  0.60354043922E+02  0.00000000000E+00 0. -1.
         -4    1    6    6    0  503  0.56427903099E+02 -0.18112882422E+03 -0.92781690164E+02  0.21118759727E+03  0.00000000000E+00 0.  1.
<mgrwt>
<rscale>  0 0.20344535E+04</rscale>
<asrwt>0</asrwt>
<pdfrwt beam="1">  1        2 0.22907490E+00 0.20344535E+04</pdfrwt>
<pdfrwt beam="2">  1       -2 0.10691320E+00 0.20344535E+04</pdfrwt>
<totfact> 0.83979853E+00</totfact>
</mgrwt>
</event>
<event>
12    3  0.4769008E-008  0.1447001E+04  0.7818608E-02  0.8920482E-01
          1   -1    0    0  501    0  0.00000000000E+00  0.00000000000E+00  0.12914688154E+04  0.12914688154E+04  0.00000000000E+00 0. -1.
         -1   -1    0    0    0  501 -0.00000000000E+00 -0.00000000000E+00 -0.40531583288E+03  0.40531583288E+03  0.00000000000E+00 0.  1.
         23    2    1    2    0    0  0.26837657368E+03  0.30900839434E+03  0.10506272689E+03  0.43240001377E+03  0.91757409768E+02 0.  0.
        254    2    1    2    0    0 -0.26837657368E+03 -0.30900839434E+03  0.78109025559E+03  0.12643846345E+04  0.90612049057E+03 0.  0.
         23    2    4    4    0    0 -0.97300894860E+02  0.31205983753E+03  0.22385072422E+03  0.40772604419E+03  0.96346115827E+02 0.  0.
         23    2    4    4    0    0 -0.17107567882E+03 -0.62106823187E+03  0.55723953137E+03  0.85665859029E+03  0.91407923442E+02 0.  0.
          3    1    3    3  502    0  0.20871070454E+03  0.27318786215E+03  0.11408444393E+03  0.36222510483E+03  0.00000000000E+00 0. -1.
         -3    1    3    3    0  502  0.59665869142E+02  0.35820532188E+02 -0.90217170369E+01  0.70174908942E+02  0.00000000000E+00 0.  1.
         13    1    5    5    0    0 -0.68221157350E+02  0.29810007863E+03  0.18573203738E+03  0.35779068308E+03  0.00000000000E+00 0. -1.
        -13    1    5    5    0    0 -0.29079737510E+02  0.13959758895E+02  0.38118686843E+02  0.49935361105E+02  0.00000000000E+00 0.  1.
          1    1    6    6  503    0 -0.45539964920E+02 -0.12499869947E+03  0.16477531197E+03  0.21177692676E+03  0.00000000000E+00 0. -1.
         -1    1    6    6    0  503 -0.12553571390E+03 -0.49606953241E+03  0.39246421940E+03  0.64488166353E+03  0.00000000000E+00 0.  1.
<mgrwt>
<rscale>  0 0.14470007E+04</rscale>
<asrwt>0</asrwt>
<pdfrwt beam="1">  1        1 0.19868751E+00 0.14470007E+04</pdfrwt>
<pdfrwt beam="2">  1       -1 0.62356283E-01 0.14470007E+04</pdfrwt>
<totfact> 0.23246757E+01</totfact>
</mgrwt>
</event>
<event>
12    3  0.4769008E-008  0.3581856E+04  0.7818608E-02  0.8094661E-01
          1   -1    0    0  501    0  0.00000000000E+00  0.00000000000E+00  0.15184010886E+04  0.15184010886E+04  0.00000000000E+00 0. -1.
         -1   -1    0    0    0  501 -0.00000000000E+00 -0.00000000000E+00 -0.21123683892E+04  0.21123683892E+04  0.00000000000E+00 0.  1.
         23    2    1    2    0    0  0.42618695665E+03 -0.16131407934E+04 -0.43297811595E+03  0.17260292597E+04  0.88591280920E+02 0.  0.
        254    2    1    2    0    0 -0.42618695665E+03  0.16131407934E+04 -0.16098918466E+03  0.19047402181E+04  0.90457682898E+03 0.  0.
         23    2    4    4    0    0  0.10074700066E+03  0.12165157487E+04 -0.19202985771E+02  0.12242029394E+04  0.90794037368E+02 0.  0.
         23    2    4    4    0    0 -0.52693395731E+03  0.39662504475E+03 -0.14178619889E+03  0.68053727875E+03  0.89759902377E+02 0.  0.
          4    1    3    3  502    0  0.28387835138E+03 -0.10649479528E+04 -0.32908027181E+03  0.11502151476E+04  0.00000000000E+00 0. -1.
         -4    1    3    3    0  502  0.14230860528E+03 -0.54819284065E+03 -0.10389784413E+03  0.57581411210E+03  0.00000000000E+00 0.  1.
         13    1    5    5    0    0 -0.13904202089E+02  0.29419132126E+03 -0.11622655913E+02  0.29474895499E+03  0.00000000000E+00 0. -1.
        -13    1    5    5    0    0  0.11465120275E+03  0.92232442739E+03 -0.75803298584E+01  0.92945398437E+03  0.00000000000E+00 0.  1.
          1    1    6    6  503    0 -0.42432026288E+01  0.30155675874E-01 -0.10618318340E+02  0.11434787374E+02  0.00000000000E+00 0. -1.
         -1    1    6    6    0  503 -0.52269075468E+03  0.39659488908E+03 -0.13116788055E+03  0.66910249137E+03  0.00000000000E+00 0.  1.
<mgrwt>
<rscale>  0 0.35818556E+04</rscale>
<asrwt>0</asrwt>
<pdfrwt beam="1">  1        1 0.23360017E+00 0.35818556E+04</pdfrwt>
<pdfrwt beam="2">  1       -1 0.32497975E+00 0.35818556E+04</pdfrwt>
<totfact> 0.11684846E-01</totfact>
</mgrwt>
</event>
<event>
12    3  0.4769008E-008  0.2065193E+04  0.7818608E-02  0.8576733E-01
         -1   -1    0    0    0  501 -0.00000000000E+00  0.00000000000E+00  0.94209213605E+03  0.94209213605E+03  0.00000000000E+00 0.  1.
          1   -1    0    0  501    0  0.00000000000E+00 -0.00000000000E+00 -0.11317959059E+04  0.11317959059E+04  0.00000000000E+00 0. -1.
         23    2    1    2    0    0  0.63599341894E+03  0.16397509460E+03 -0.59659649149E+03  0.89168262348E+03  0.88289675399E+02 0.  0.
        254    2    1    2    0    0 -0.63599341894E+03 -0.16397509460E+03  0.40689272159E+03  0.11822054185E+04  0.89480305324E+03 0.  0.
         23    2    4    4    0    0 -0.42344816795E+03 -0.38794574674E+03 -0.91639554524E+02  0.58866585696E+03  0.91210908594E+02 0.  0.
         23    2    4    4    0    0 -0.21254525100E+03  0.22397065214E+03  0.49853227611E+03  0.59353956155E+03  0.91741179704E+02 0.  0.
          2    1    3    3  502    0  0.19684194940E+03  0.58154382424E+02 -0.24259942180E+03  0.31777848369E+03  0.00000000000E+00 0. -1.
         -2    1    3    3    0  502  0.43915146954E+03  0.10582071218E+03 -0.35399706969E+03  0.57390413980E+03  0.00000000000E+00 0.  1.
         13    1    5    5    0    0 -0.12783441958E+03 -0.64142449163E+02 -0.20560349449E+02  0.14449436177E+03  0.00000000000E+00 0.  1.
        -13    1    5    5    0    0 -0.29561374837E+03 -0.32380329758E+03 -0.71079205074E+02  0.44417149519E+03  0.00000000000E+00 0. -1.
          4    1    6    6  503    0 -0.12451454094E+03  0.91824837660E+02  0.17802593052E+03  0.23585780388E+03  0.00000000000E+00 0. -1.
         -4    1    6    6    0  503 -0.88030710058E+02  0.13214581448E+03  0.32050634560E+03  0.35768175766E+03  0.00000000000E+00 0.  1.
<mgrwt>
<rscale>  0 0.20651935E+04</rscale>
<asrwt>0</asrwt>
<pdfrwt beam="1">  1        1 0.17412245E+00 0.20651935E+04</pdfrwt>
<pdfrwt beam="2">  1       -1 0.14493725E+00 0.20651935E+04</pdfrwt>
<totfact> 0.42350409E+00</totfact>
</mgrwt>
</event>
<event>
12    3  0.4769008E-008  0.1750339E+04  0.7818608E-02  0.8733163E-01
         -1   -1    0    0    0  501 -0.00000000000E+00  0.00000000000E+00  0.75775623680E+03  0.75775623680E+03  0.00000000000E+00 0.  1.
          1   -1    0    0  501    0  0.00000000000E+00 -0.00000000000E+00 -0.10107763091E+04  0.10107763091E+04  0.00000000000E+00 0. -1.
         23    2    1    2    0    0  0.17381543193E+03  0.34051492055E+03 -0.61209456641E+03  0.72767810321E+03  0.93238662396E+02 0.  0.
        254    2    1    2    0    0 -0.17381543193E+03 -0.34051492055E+03  0.35907449414E+03  0.10408544427E+04  0.89904463903E+03 0.  0.
         23    2    4    4    0    0 -0.29068846091E+03 -0.12529651446E+03 -0.22667541645E+03  0.39949099592E+03  0.89511527523E+02 0.  0.
         23    2    4    4    0    0  0.11687302899E+03 -0.21521840609E+03  0.58574991059E+03  0.64136344673E+03  0.90916697166E+02 0.  0.
          2    1    3    3  502    0  0.18469099899E+03  0.31102678101E+03 -0.55426686333E+03  0.66186114813E+03  0.00000000000E+00 0. -1.
         -2    1    3    3    0  502 -0.10875567065E+02  0.29488139542E+02 -0.57827703083E+02  0.65816955084E+02  0.00000000000E+00 0.  1.
         13    1    5    5    0    0 -0.27056833666E+03 -0.13941300481E+03 -0.21019067568E+03  0.36989637853E+03  0.00000000000E+00 0. -1.
        -13    1    5    5    0    0 -0.20120124258E+02  0.14116490357E+02 -0.16484740769E+02  0.29594617389E+02  0.00000000000E+00 0.  1.
          3    1    6    6  503    0  0.69105970638E+02 -0.88084244671E+02  0.36871843881E+03  0.38534109106E+03  0.00000000000E+00 0. -1.
         -3    1    6    6    0  503  0.47767058351E+02 -0.12713416142E+03  0.21703147178E+03  0.25602235568E+03  0.00000000000E+00 0.  1.
<mgrwt>
<rscale>  0 0.17503395E+04</rscale>
<asrwt>0</asrwt>
<pdfrwt beam="1">  1        1 0.15550405E+00 0.17503395E+04</pdfrwt>
<pdfrwt beam="2">  1       -1 0.11657788E+00 0.17503395E+04</pdfrwt>
<totfact> 0.93427952E+00</totfact>
</mgrwt>
</event>
<event>
12    3  0.4769008E-008  0.2058069E+04  0.7818608E-02  0.8579943E-01
         -1   -1    0    0    0  501 -0.00000000000E+00  0.00000000000E+00  0.10367510490E+04  0.10367510490E+04  0.00000000000E+00 0.  1.
          1   -1    0    0  501    0  0.00000000000E+00 -0.00000000000E+00 -0.10213750671E+04  0.10213750671E+04  0.00000000000E+00 0. -1.
         23    2    1    2    0    0  0.38147599796E+03  0.55623360751E+02 -0.72598825102E+03  0.82692122299E+03  0.90121435420E+02 0.  0.
        254    2    1    2    0    0 -0.38147599796E+03 -0.55623360751E+02  0.74136423295E+03  0.12312048931E+04  0.90422711066E+03 0.  0.
         23    2    4    4    0    0 -0.46225770819E+03  0.31394863364E+03  0.57995100738E+03  0.81029064537E+03  0.89341063707E+02 0.  0.
         23    2    4    4    0    0  0.80781710225E+02 -0.36957199439E+03  0.16141322557E+03  0.42091424775E+03  0.89473073177E+02 0.  0.
          1    1    3    3  502    0  0.20583826303E+03  0.75042722175E+02 -0.41130448583E+03  0.46601736099E+03  0.00000000000E+00 0. -1.
         -1    1    3    3    0  502  0.17563773493E+03 -0.19419361424E+02 -0.31468376519E+03  0.36090386200E+03  0.00000000000E+00 0.  1.
         13    1    5    5    0    0 -0.41047261272E+03  0.24239642000E+03  0.50492733473E+03  0.69440291156E+03  0.00000000000E+00 0. -1.
        -13    1    5    5    0    0 -0.51785095464E+02  0.71552213642E+02  0.75023672653E+02  0.11588773381E+03  0.00000000000E+00 0.  1.
          4    1    6    6  503    0  0.41547897956E+02 -0.12881448858E+03  0.14419813496E+02  0.13611513992E+03  0.00000000000E+00 0. -1.
         -4    1    6    6    0  503  0.39233812269E+02 -0.24075750581E+03  0.14699341207E+03  0.28479910783E+03  0.00000000000E+00 0.  1.
<mgrwt>
<rscale>  0 0.20580687E+04</rscale>
<asrwt>0</asrwt>
<pdfrwt beam="1">  1        1 0.15713463E+00 0.20580687E+04</pdfrwt>
<pdfrwt beam="2">  1       -1 0.15950016E+00 0.20580687E+04</pdfrwt>
<totfact> 0.39625613E+00</totfact>
</mgrwt>
</event>
<event>
12    3  0.4769008E-008  0.2075471E+04  0.7818608E-02  0.8572126E-01
          2   -1    0    0  501    0  0.00000000000E+00  0.00000000000E+00  0.87478235418E+03  0.87478235418E+03  0.00000000000E+00 0. -1.
         -2   -1    0    0    0  501 -0.00000000000E+00 -0.00000000000E+00 -0.12310429597E+04  0.12310429597E+04  0.00000000000E+00 0.  1.
         23    2    1    2    0    0  0.13581133574E+03 -0.25865358998E+03 -0.92836585008E+03  0.97779540125E+03  0.94203485053E+02 0.  0.
        254    2    1    2    0    0 -0.13581133574E+03  0.25865358998E+03  0.57210524456E+03  0.11280299126E+04  0.92725437416E+03 0.  0.
         23    2    4    4    0    0 -0.10430065286E+03  0.55306332287E+03  0.12579707621E+03  0.58383193756E+03  0.90978907680E+02 0.  0.
         23    2    4    4    0    0 -0.31510682873E+02 -0.29440973289E+03  0.44630816835E+03  0.54419797506E+03  0.96386933630E+02 0.  0.
          1    1    3    3  502    0 -0.68497029347E+01 -0.62831761205E+01 -0.62967124892E+01  0.11226990720E+02  0.00000000000E+00 0. -1.
         -1    1    3    3    0  502  0.14266103867E+03 -0.25237041386E+03 -0.92206913759E+03  0.96656841053E+03  0.00000000000E+00 0.  1.
         13    1    5    5    0    0 -0.88646915021E+02  0.23712126430E+03  0.69667487442E+02  0.26256109447E+03  0.00000000000E+00 0.  1.
        -13    1    5    5    0    0 -0.15653737844E+02  0.31594205857E+03  0.56129588768E+02  0.32127084309E+03  0.00000000000E+00 0. -1.
          1    1    6    6  503    0 -0.45430748353E+02 -0.26375445722E+03  0.34009155397E+03  0.43277318734E+03  0.00000000000E+00 0. -1.
         -1    1    6    6    0  503  0.13920065480E+02 -0.30655275672E+02  0.10621661438E+03  0.11142478773E+03  0.00000000000E+00 0.  1.
<mgrwt>
<rscale>  0 0.20754707E+04</rscale>
<asrwt>0</asrwt>
<pdfrwt beam="1">  1        2 0.13458190E+00 0.20754707E+04</pdfrwt>
<pdfrwt beam="2">  1       -2 0.18939122E+00 0.20754707E+04</pdfrwt>
<totfact> 0.44059870E+00</totfact>
</mgrwt>
</event>
<event>
12    3  0.4769008E-008  0.3281971E+04  0.7818608E-02  0.8167498E-01
         -2   -1    0    0    0  501 -0.00000000000E+00  0.00000000000E+00  0.13006530026E+04  0.13006530026E+04  0.00000000000E+00 0. -1.
          2   -1    0    0  501    0  0.00000000000E+00 -0.00000000000E+00 -0.20703706536E+04  0.20703706536E+04  0.00000000000E+00 0.  1.
         23    2    1    2    0    0  0.81906468480E+02  0.11587627400E+04 -0.13560873599E+04  0.17879420319E+04  0.91236094297E+02 0.  0.
        254    2    1    2    0    0 -0.81906468480E+02 -0.11587627400E+04  0.58636970890E+03  0.15830816243E+04  0.90159760236E+03 0.  0.
         23    2    4    4    0    0 -0.10593918042E+03 -0.71742232592E+03 -0.12421389785E+03  0.74124818254E+03  0.90010399566E+02 0.  0.
         23    2    4    4    0    0  0.24032711940E+02 -0.44134041403E+03  0.71058360675E+03  0.84183344175E+03  0.91627229402E+02 0.  0.
          4    1    3    3  502    0 -0.13374364334E+02  0.38765635587E+03 -0.43037589754E+03  0.57937875095E+03  0.00000000000E+00 0. -1.
         -4    1    3    3    0  502  0.95280832814E+02  0.77110638408E+03 -0.92571146233E+03  0.12085632810E+04  0.00000000000E+00 0.  1.
         13    1    5    5    0    0  0.28847624341E+01 -0.26979225051E+03 -0.35805074872E+02  0.27217307669E+03  0.00000000000E+00 0. -1.
        -13    1    5    5    0    0 -0.10882394285E+03 -0.44763007541E+03 -0.88408822977E+02  0.46907510585E+03  0.00000000000E+00 0.  1.
          3    1    6    6  503    0  0.36767021633E+02 -0.64722776273E+02  0.12460308850E+03  0.14514400198E+03  0.00000000000E+00 0. -1.
         -3    1    6    6    0  503 -0.12734309693E+02 -0.37661763776E+03  0.58598051825E+03  0.69668943977E+03  0.00000000000E+00 0.  1.
<mgrwt>
<rscale>  0 0.32819712E+04</rscale>
<asrwt>0</asrwt>
<pdfrwt beam="1">  1        2 0.31851856E+00 0.32819712E+04</pdfrwt>
<pdfrwt beam="2">  1       -2 0.20010046E+00 0.32819712E+04</pdfrwt>
<totfact> 0.67807203E-01</totfact>
</mgrwt>
</event>
<event>
12    3  0.4769008E-008  0.1560610E+04  0.7818608E-02  0.8845119E-01
         -2   -1    0    0    0  501 -0.00000000000E+00  0.00000000000E+00  0.45102419877E+03  0.45102419877E+03  0.00000000000E+00 0.  1.
          2   -1    0    0  501    0  0.00000000000E+00 -0.00000000000E+00 -0.13499850400E+04  0.13499850400E+04  0.00000000000E+00 0. -1.
         23    2    1    2    0    0 -0.14809828890E+03 -0.10126304297E+03  0.25278495478E+03  0.32327699598E+03  0.91763150114E+02 0.  0.
        254    2    1    2    0    0  0.14809828890E+03  0.10126304297E+03 -0.11517457960E+04  0.14777322428E+04  0.90828789252E+03 0.  0.
         23    2    4    4    0    0  0.34577474428E+03  0.41213494938E+03 -0.71507001174E+03  0.89957005036E+03  0.92118204151E+02 0.  0.
         23    2    4    4    0    0 -0.19767645538E+03 -0.31087190640E+03 -0.43667578429E+03  0.57816219244E+03  0.88704323362E+02 0.  0.
          2    1    3    3  502    0 -0.62704616846E+02 -0.21831148391E+02  0.32274510726E+02  0.73824874240E+02  0.00000000000E+00 0. -1.
         -2    1    3    3    0  502 -0.85393672057E+02 -0.79431894582E+02  0.22051044405E+03  0.24945212174E+03  0.00000000000E+00 0.  1.
         13    1    5    5    0    0  0.31182066731E+03  0.35484435355E+03 -0.66744119789E+03  0.81769456183E+03  0.00000000000E+00 0. -1.
        -13    1    5    5    0    0  0.33954076971E+02  0.57290595827E+02 -0.47628813850E+02  0.81875488529E+02  0.00000000000E+00 0.  1.
          1    1    6    6  503    0 -0.16001241064E+03 -0.17353009464E+03 -0.28617957369E+03  0.37096551551E+03  0.00000000000E+00 0. -1.
         -1    1    6    6    0  503 -0.37664044739E+02 -0.13734181177E+03 -0.15049621060E+03  0.20719667693E+03  0.00000000000E+00 0.  1.
<mgrwt>
<rscale>  0 0.15606100E+04</rscale>
<asrwt>0</asrwt>
<pdfrwt beam="1">  1        2 0.20769000E+00 0.15606100E+04</pdfrwt>
<pdfrwt beam="2">  1       -2 0.69388339E-01 0.15606100E+04</pdfrwt>
<totfact> 0.28180063E+01</totfact>
</mgrwt>
</event>
<event>
12    3  0.4769008E-008  0.2095510E+04  0.7818608E-02  0.8563224E-01
          2   -1    0    0  501    0  0.00000000000E+00  0.00000000000E+00  0.97842030940E+03  0.97842030940E+03  0.00000000000E+00 0.  1.
         -2   -1    0    0    0  501 -0.00000000000E+00 -0.00000000000E+00 -0.11220027899E+04  0.11220027899E+04  0.00000000000E+00 0. -1.
         23    2    1    2    0    0  0.11575051649E+03 -0.36138174243E+03 -0.82180025017E+03  0.91049325772E+03  0.98221053530E+02 0.  0.
        254    2    1    2    0    0 -0.11575051649E+03  0.36138174243E+03  0.67821776968E+03  0.11899298416E+04  0.90108753121E+03 0.  0.
         23    2    4    4    0    0 -0.37988726076E+02 -0.98211884847E+02 -0.16830318104E+03  0.21916889715E+03  0.92845716625E+02 0.  0.
         23    2    4    4    0    0 -0.77761790411E+02  0.45959362728E+03  0.84652095073E+03  0.97076094441E+03  0.92227397747E+02 0.  0.
          1    1    3    3  502    0  0.12426617822E+03 -0.25769572914E+03 -0.56178789619E+03  0.63044017335E+03  0.00000000000E+00 0. -1.
         -1    1    3    3    0  502 -0.85156617366E+01 -0.10368601329E+03 -0.26001235397E+03  0.28005308437E+03  0.00000000000E+00 0.  1.
         13    1    5    5    0    0 -0.97750196617E+01  0.16184583007E+02 -0.44037384263E+02  0.47924763424E+02  0.00000000000E+00 0. -1.
        -13    1    5    5    0    0 -0.28213706415E+02 -0.11439646785E+03 -0.12426579678E+03  0.17124413373E+03  0.00000000000E+00 0.  1.
          1    1    6    6  503    0  0.12726704840E+02  0.23208785354E+02  0.77974422952E+02  0.82344564898E+02  0.00000000000E+00 0. -1.
         -1    1    6    6    0  503 -0.90488495251E+02  0.43638484192E+03  0.76854652777E+03  0.88841637951E+03  0.00000000000E+00 0.  1.
<mgrwt>
<rscale>  0 0.20955098E+04</rscale>
<asrwt>0</asrwt>
<pdfrwt beam="1">  1        2 0.15052620E+00 0.20955098E+04</pdfrwt>
<pdfrwt beam="2">  1       -2 0.17261581E+00 0.20955098E+04</pdfrwt>
<totfact> 0.48961191E+00</totfact>
</mgrwt>
</event>
<event>
12    3  0.4769008E-008  0.1820332E+04  0.7818608E-02  0.8695561E-01
          2   -1    0    0  501    0  0.00000000000E+00  0.00000000000E+00  0.11651653913E+04  0.11651653913E+04  0.00000000000E+00 0.  1.
         -2   -1    0    0    0  501 -0.00000000000E+00 -0.00000000000E+00 -0.71097413517E+03  0.71097413517E+03  0.00000000000E+00 0. -1.
         23    2    1    2    0    0 -0.28603346915E+03 -0.61433291704E+03  0.92703799614E+02  0.68996804054E+03  0.90784492474E+02 0.  0.
        254    2    1    2    0    0  0.28603346915E+03  0.61433291704E+03  0.36148745648E+03  0.11861714859E+04  0.90394111219E+03 0.  0.
         23    2    4    4    0    0  0.25879632262E+03 -0.79903851029E+02  0.39080284965E+03  0.48431722209E+03  0.92065967145E+02 0.  0.
         23    2    4    4    0    0  0.27237146530E+02  0.69423676807E+03 -0.29315393175E+02  0.70185426380E+03  0.95044531883E+02 0.  0.
          2    1    3    3  502    0 -0.15254918638E+02 -0.33065701591E+02  0.27070846217E+02  0.45374925666E+02  0.00000000000E+00 0. -1.
         -2    1    3    3    0  502 -0.27077855051E+03 -0.58126721545E+03  0.65632953397E+02  0.64459311487E+03  0.00000000000E+00 0.  1.
         13    1    5    5    0    0  0.87317121040E+02 -0.45136986108E+02  0.21440179678E+03  0.23585961419E+03  0.00000000000E+00 0.  1.
        -13    1    5    5    0    0  0.17147920158E+03 -0.34766864921E+02  0.17640105287E+03  0.24845760790E+03  0.00000000000E+00 0. -1.
          1    1    6    6  503    0  0.75055680016E+00  0.64607606464E+03 -0.31537818942E+02  0.64684579202E+03  0.00000000000E+00 0. -1.
         -1    1    6    6    0  503  0.26486589730E+02  0.48160703429E+02  0.22224257670E+01  0.55008471771E+02  0.00000000000E+00 0.  1.
<mgrwt>
<rscale>  0 0.18203323E+04</rscale>
<asrwt>0</asrwt>
<pdfrwt beam="1">  1        2 0.17925621E+00 0.18203323E+04</pdfrwt>
<pdfrwt beam="2">  1       -2 0.10938064E+00 0.18203323E+04</pdfrwt>
<totfact> 0.12480954E+01</totfact>
</mgrwt>
</event>
<event>
12    3  0.4769008E-008  0.1487134E+04  0.7818608E-02  0.8893054E-01
          1   -1    0    0  501    0  0.00000000000E+00  0.00000000000E+00  0.94247817475E+03  0.94247817475E+03  0.00000000000E+00 0. -1.
         -1   -1    0    0    0  501 -0.00000000000E+00 -0.00000000000E+00 -0.58663651713E+03  0.58663651713E+03  0.00000000000E+00 0.  1.
         23    2    1    2    0    0 -0.11033776401E+03  0.37759979015E+03 -0.14246011068E+03  0.42815965629E+03  0.90938355198E+02 0.  0.
        254    2    1    2    0    0  0.11033776401E+03 -0.37759979015E+03  0.49830176830E+03  0.11009550356E+04  0.89946723921E+03 0.  0.
         23    2    4    4    0    0  0.17053242983E+03  0.20869634731E+03  0.40574355903E+03  0.49723789023E+03  0.99911004338E+02 0.  0.
         23    2    4    4    0    0 -0.60194665815E+02 -0.58629613746E+03  0.92558209275E+02  0.60371714536E+03  0.92416507726E+02 0.  0.
          2    1    3    3  502    0 -0.20329061569E+02  0.58726009421E+01 -0.50396018297E+01  0.21752144094E+02  0.00000000000E+00 0. -1.
         -2    1    3    3    0  502 -0.90008702443E+02  0.37172718921E+03 -0.13742050885E+03  0.40640751219E+03  0.00000000000E+00 0.  1.
         13    1    5    5    0    0  0.11105029510E+03  0.73118853741E+02  0.24464019275E+03  0.27843735153E+03  0.00000000000E+00 0.  1.
        -13    1    5    5    0    0  0.59482134728E+02  0.13557749357E+03  0.16110336628E+03  0.21880053871E+03  0.00000000000E+00 0. -1.
          1    1    6    6  503    0  0.21135056484E+02 -0.15895388810E+03  0.42104686744E+02  0.16578852132E+03  0.00000000000E+00 0. -1.
         -1    1    6    6    0  503 -0.81329722300E+02 -0.42734224936E+03  0.50453522531E+02  0.43792862404E+03  0.00000000000E+00 0.  1.
<mgrwt>
<rscale>  0 0.14871343E+04</rscale>
<asrwt>0</asrwt>
<pdfrwt beam="1">  1        1 0.14499664E+00 0.14871343E+04</pdfrwt>
<pdfrwt beam="2">  1       -1 0.90251772E-01 0.14871343E+04</pdfrwt>
<totfact> 0.19543704E+01</totfact>
</mgrwt>
</event>
<event>
12    3  0.4769008E-008  0.1253887E+04  0.7818608E-02  0.9066954E-01
          2   -1    0    0  501    0  0.00000000000E+00  0.00000000000E+00  0.12041056053E+04  0.12041056053E+04  0.00000000000E+00 0. -1.
         -2   -1    0    0    0  501 -0.00000000000E+00 -0.00000000000E+00 -0.32643162281E+03  0.32643162281E+03  0.00000000000E+00 0.  1.
         23    2    1    2    0    0  0.45298917105E+02 -0.25416508493E+03  0.46071622199E+02  0.27753907328E+03  0.90848558244E+02 0.  0.
        254    2    1    2    0    0 -0.45298917105E+02  0.25416508493E+03  0.83160236027E+03  0.12529981548E+04  0.90099390013E+03 0.  0.
         23    2    4    4    0    0 -0.71233210698E+02 -0.17960219037E+02 -0.17234184163E+03  0.20859303391E+03  0.91720246633E+02 0.  0.
         23    2    4    4    0    0  0.25934293594E+02  0.27212530397E+03  0.10039442019E+04  0.10444051209E+04  0.90295777289E+02 0.  0.
          4    1    3    3  502    0  0.83856768497E+01 -0.13764696770E+03  0.67358685948E+02  0.15347377583E+03  0.00000000000E+00 0. -1.
         -4    1    3    3    0  502  0.36913240255E+02 -0.11651811723E+03 -0.21287063748E+02  0.12406529745E+03  0.00000000000E+00 0.  1.
         13    1    5    5    0    0 -0.83474445378E+02 -0.39592973916E+02 -0.12980764185E+03  0.15932862423E+03  0.00000000000E+00 0.  1.
        -13    1    5    5    0    0  0.12241234679E+02  0.21632754879E+02 -0.42534199778E+02  0.49264409677E+02  0.00000000000E+00 0. -1.
          2    1    6    6  503    0 -0.17242411796E+02  0.70669165350E+01  0.49207801630E+02  0.52617960956E+02  0.00000000000E+00 0.  1.
         -2    1    6    6    0  503  0.43176705389E+02  0.26505838743E+03  0.95473640028E+03  0.99178715995E+03  0.00000000000E+00 0. -1.
<mgrwt>
<rscale>  0 0.12538870E+04</rscale>
<asrwt>0</asrwt>
<pdfrwt beam="1">  1        2 0.18524701E+00 0.12538870E+04</pdfrwt>
<pdfrwt beam="2">  1       -2 0.50220250E-01 0.12538870E+04</pdfrwt>
<totfact> 0.69433885E+01</totfact>
</mgrwt>
</event>
<event>
12    3  0.4769008E-008  0.3322539E+04  0.7818608E-02  0.8157184E-01
          4   -1    0    0  501    0  0.00000000000E+00  0.00000000000E+00  0.31376831573E+04  0.31376831573E+04  0.00000000000E+00 0.  1.
         -4   -1    0    0    0  501 -0.00000000000E+00 -0.00000000000E+00 -0.87957165724E+03  0.87957165724E+03  0.00000000000E+00 0. -1.
         23    2    1    2    0    0  0.11170585129E+04  0.10185831915E+03  0.23271118473E+04  0.25849327497E+04  0.90735506719E+02 0.  0.
        254    2    1    2    0    0 -0.11170585129E+04 -0.10185831915E+03 -0.69000347233E+02  0.14323220649E+04  0.88802624468E+03 0.  0.
         23    2    4    4    0    0 -0.10440507127E+04  0.22244867534E+03 -0.13835563407E+03  0.10799191410E+04  0.86935411901E+02 0.  0.
         23    2    4    4    0    0 -0.73007800201E+02 -0.32430699449E+03  0.69355286841E+02  0.35240292387E+03  0.94193945512E+02 0.  0.
          2    1    3    3  502    0  0.13780608051E+03  0.40972592539E+02  0.27381354180E+03  0.30926222666E+03  0.00000000000E+00 0. -1.
         -2    1    3    3    0  502  0.97925243237E+03  0.60885726608E+02  0.20532983055E+04  0.22756705230E+04  0.00000000000E+00 0.  1.
         13    1    5    5    0    0 -0.73200739182E+03  0.11723149159E+03 -0.82515461910E+02  0.74591343047E+03  0.00000000000E+00 0. -1.
        -13    1    5    5    0    0 -0.31204332085E+03  0.10521718375E+03 -0.55840172163E+02  0.33400571054E+03  0.00000000000E+00 0.  1.
          2    1    6    6  503    0 -0.30773553297E+02 -0.28654788136E+03  0.65969291054E+02  0.29564953451E+03  0.00000000000E+00 0. -1.
         -2    1    6    6    0  503 -0.42234246904E+02 -0.37759113133E+02  0.33859957871E+01  0.56753389358E+02  0.00000000000E+00 0.  1.
<mgrwt>
<rscale>  0 0.33225395E+04</rscale>
<asrwt>0</asrwt>
<pdfrwt beam="1">  1        4 0.48272048E+00 0.33225395E+04</pdfrwt>
<pdfrwt beam="2">  1       -4 0.13531872E+00 0.33225395E+04</pdfrwt>
<totfact> 0.10647705E-03</totfact>
</mgrwt>
</event>
<event>
12    3  0.4769008E-008  0.1537912E+04  0.7818608E-02  0.8859626E-01
         -1   -1    0    0    0  501 -0.00000000000E+00  0.00000000000E+00  0.79142574203E+03  0.79142574203E+03  0.00000000000E+00 0.  1.
          1   -1    0    0  501    0  0.00000000000E+00 -0.00000000000E+00 -0.74712430296E+03  0.74712430296E+03  0.00000000000E+00 0. -1.
         23    2    1    2    0    0  0.17343747847E+02  0.14659811222E+03 -0.46508728990E+03  0.49622449717E+03  0.90226117469E+02 0.  0.
        254    2    1    2    0    0 -0.17343747847E+02 -0.14659811222E+03  0.50938872896E+03  0.10423255478E+04  0.89731480448E+03 0.  0.
         23    2    4    4    0    0  0.27857221736E+03 -0.39455825390E+03  0.39419518060E+03  0.62963492759E+03  0.88156710643E+02 0.  0.
         23    2    4    4    0    0 -0.29591596521E+03  0.24796014168E+03  0.11519354837E+03  0.41269062023E+03  0.89406398594E+02 0.  0.
          1    1    3    3  502    0 -0.18441088705E+02  0.89962942973E+02 -0.16582853007E+03  0.18955871451E+03  0.00000000000E+00 0. -1.
         -1    1    3    3    0  502  0.35784836552E+02  0.56635169244E+02 -0.29925875983E+03  0.30666578267E+03  0.00000000000E+00 0.  1.
         13    1    5    5    0    0  0.22522607686E+02 -0.39418775449E+01  0.27909631575E+02  0.36079825252E+02  0.00000000000E+00 0. -1.
        -13    1    5    5    0    0  0.25604960968E+03 -0.39061637635E+03  0.36628554902E+03  0.59355510234E+03  0.00000000000E+00 0.  1.
          3    1    6    6  503    0 -0.66929368672E+00 -0.48537441529E+01 -0.37853957957E+01  0.61916078421E+01  0.00000000000E+00 0. -1.
         -3    1    6    6    0  503 -0.29524667152E+03  0.25281388583E+03  0.11897894416E+03  0.40649901238E+03  0.00000000000E+00 0.  1.
<mgrwt>
<rscale>  0 0.15379121E+04</rscale>
<asrwt>0</asrwt>
<pdfrwt beam="1">  1        1 0.11494220E+00 0.15379121E+04</pdfrwt>
<pdfrwt beam="2">  1       -1 0.12175781E+00 0.15379121E+04</pdfrwt>
<totfact> 0.14197876E+01</totfact>
</mgrwt>
</event>
<event>
12    3  0.4769008E-008  0.1469607E+04  0.7818608E-02  0.8904919E-01
         -2   -1    0    0    0  501 -0.00000000000E+00  0.00000000000E+00  0.35583885915E+03  0.35583885915E+03  0.00000000000E+00 0.  1.
          2   -1    0    0  501    0  0.00000000000E+00 -0.00000000000E+00 -0.15173621397E+04  0.15173621397E+04  0.00000000000E+00 0. -1.
         23    2    1    2    0    0 -0.23122973049E+03  0.23393710586E+02 -0.86462845452E+03  0.90002352820E+03  0.91899581018E+02 0.  0.
        254    2    1    2    0    0  0.23122973049E+03 -0.23393710586E+02 -0.29689482603E+03  0.97317747065E+03  0.89716965938E+03 0.  0.
         23    2    4    4    0    0  0.25941441884E+03 -0.13279383120E+03  0.25787732176E+03  0.39974195129E+03  0.91448741021E+02 0.  0.
         23    2    4    4    0    0 -0.28184688354E+02  0.10940012061E+03 -0.55477214778E+03  0.57343551937E+03  0.91068083685E+02 0.  0.
          3    1    3    3  502    0 -0.13569437727E+03 -0.25475807687E+02 -0.56933871843E+03  0.58584004396E+03  0.00000000000E+00 0. -1.
         -3    1    3    3    0  502 -0.95535353223E+02  0.48869518273E+02 -0.29528973609E+03  0.31418348425E+03  0.00000000000E+00 0.  1.
         13    1    5    5    0    0  0.74325003802E+02 -0.46030649187E+01  0.32751890131E+02  0.81351586979E+02  0.00000000000E+00 0.  1.
        -13    1    5    5    0    0  0.18508941504E+03 -0.12819076628E+03  0.22512543163E+03  0.31839036431E+03  0.00000000000E+00 0. -1.
          2    1    6    6  503    0 -0.22006124011E+01  0.11762232719E+03 -0.43784332051E+03  0.45337250453E+03  0.00000000000E+00 0. -1.
         -2    1    6    6    0  503 -0.25984075953E+02 -0.82222065737E+01 -0.11692882728E+03  0.12006301484E+03  0.00000000000E+00 0.  1.
<mgrwt>
<rscale>  0 0.14696073E+04</rscale>
<asrwt>0</asrwt>
<pdfrwt beam="1">  1        2 0.23344032E+00 0.14696073E+04</pdfrwt>
<pdfrwt beam="2">  1       -2 0.54744441E-01 0.14696073E+04</pdfrwt>
<totfact> 0.37721067E+01</totfact>
</mgrwt>
</event>
<event>
12    3  0.4769008E-008  0.1488180E+04  0.7818608E-02  0.8892351E-01
         -1   -1    0    0    0  501 -0.00000000000E+00  0.00000000000E+00  0.65590456188E+03  0.65590456188E+03  0.00000000000E+00 0.  1.
          1   -1    0    0  501    0  0.00000000000E+00 -0.00000000000E+00 -0.84413159402E+03  0.84413159402E+03  0.00000000000E+00 0. -1.
         23    2    1    2    0    0  0.18668089546E+03 -0.39638365495E+03  0.89959857310E+02  0.45641512967E+03  0.90841818664E+02 0.  0.
        254    2    1    2    0    0 -0.18668089546E+03  0.39638365495E+03 -0.27818688944E+03  0.10436210262E+04  0.90542097518E+03 0.  0.
         23    2    4    4    0    0  0.33133878291E+03  0.22492912984E+03 -0.26650024913E+03  0.49012696116E+03  0.93933767925E+02 0.  0.
         23    2    4    4    0    0 -0.51801967837E+03  0.17145452511E+03 -0.11686640310E+02  0.55349406507E+03  0.92076387560E+02 0.  0.
          1    1    3    3  502    0  0.11818952000E+03 -0.33508499820E+03  0.65559437748E+02  0.36131531732E+03  0.00000000000E+00 0. -1.
         -1    1    3    3    0  502  0.68491375465E+02 -0.61298656752E+02  0.24400419562E+02  0.95099812342E+02  0.00000000000E+00 0.  1.
         13    1    5    5    0    0  0.21794858826E+02  0.13889272920E+02  0.64056060402E+01  0.26626294564E+02  0.00000000000E+00 0. -1.
        -13    1    5    5    0    0  0.30954392409E+03  0.21103985692E+03 -0.27290585517E+03  0.46350066660E+03  0.00000000000E+00 0.  1.
          3    1    6    6  503    0 -0.77551965853E+02  0.54394154522E+02  0.19345270738E+02  0.96681285437E+02  0.00000000000E+00 0. -1.
         -3    1    6    6    0  503 -0.44046771252E+03  0.11706037059E+03 -0.31031911048E+02  0.45681277964E+03  0.00000000000E+00 0.  1.
<mgrwt>
<rscale>  0 0.14881798E+04</rscale>
<asrwt>0</asrwt>
<pdfrwt beam="1">  1        1 0.12986640E+00 0.14881798E+04</pdfrwt>
<pdfrwt beam="2">  1       -1 0.10090839E+00 0.14881798E+04</pdfrwt>
<totfact> 0.18317889E+01</totfact>
</mgrwt>
</event>
<event>
12    3  0.4769008E-008  0.1701911E+04  0.7818608E-02  0.8760275E-01
         -1   -1    0    0    0  501 -0.00000000000E+00  0.00000000000E+00  0.88074697303E+03  0.88074697303E+03  0.00000000000E+00 0.  1.
          1   -1    0    0  501    0  0.00000000000E+00 -0.00000000000E+00 -0.82217198069E+03  0.82217198069E+03  0.00000000000E+00 0. -1.
         23    2    1    2    0    0 -0.29266955360E+03 -0.14531755582E+03 -0.48777006301E+03  0.59410777110E+03  0.90949159876E+02 0.  0.
        254    2    1    2    0    0  0.29266955360E+03  0.14531755582E+03  0.54634505535E+03  0.11088111826E+04  0.90785277417E+03 0.  0.
         23    2    4    4    0    0  0.33471490436E+03 -0.18581282711E+03  0.63885768346E+03  0.75038471239E+03  0.91529246428E+02 0.  0.
         23    2    4    4    0    0 -0.42045350766E+02  0.33113038293E+03 -0.92512628112E+02  0.35842647023E+03  0.92172697598E+02 0.  0.
          3    1    3    3  502    0 -0.12979830091E+03 -0.65221959005E+02 -0.29797100363E+03  0.33149392431E+03  0.00000000000E+00 0. -1.
         -3    1    3    3    0  502 -0.16287125269E+03 -0.80095596812E+02 -0.18979905938E+03  0.26261384679E+03  0.00000000000E+00 0.  1.
         13    1    5    5    0    0  0.24364461704E+03 -0.15294792700E+03  0.40045321127E+03  0.49307052457E+03  0.00000000000E+00 0. -1.
        -13    1    5    5    0    0  0.91070287321E+02 -0.32864900115E+02  0.23840447219E+03  0.25731418782E+03  0.00000000000E+00 0.  1.
          1    1    6    6  503    0 -0.63488800668E+02  0.26474821186E+03 -0.50218882091E+02  0.27684721348E+03  0.00000000000E+00 0. -1.
         -1    1    6    6    0  503  0.21443449901E+02  0.66382171068E+02 -0.42293746021E+02  0.81579256750E+02  0.00000000000E+00 0.  1.
<mgrwt>
<rscale>  0 0.17019113E+04</rscale>
<asrwt>0</asrwt>
<pdfrwt beam="1">  1        1 0.12648800E+00 0.17019113E+04</pdfrwt>
<pdfrwt beam="2">  1       -1 0.13549953E+00 0.17019113E+04</pdfrwt>
<totfact> 0.91846532E+00</totfact>
</mgrwt>
</event>
<event>
12    3  0.4769008E-008  0.1887875E+04  0.7818608E-02  0.8660915E-01
          2   -1    0    0  501    0  0.00000000000E+00  0.00000000000E+00  0.78625520333E+03  0.78625520333E+03  0.00000000000E+00 0. -1.
         -2   -1    0    0    0  501 -0.00000000000E+00 -0.00000000000E+00 -0.11332427488E+04  0.11332427488E+04  0.00000000000E+00 0.  1.
         23    2    1    2    0    0  0.16773699112E+03  0.25011995026E+03 -0.80232922993E+03  0.86185161216E+03  0.91434788041E+02 0.  0.
        254    2    1    2    0    0 -0.16773699112E+03 -0.25011995026E+03  0.45534168448E+03  0.10576463400E+04  0.90586094027E+03 0.  0.
         23    2    4    4    0    0 -0.17842068530E+03 -0.17987638226E+03 -0.23591121102E+03  0.35636396582E+03  0.84567859219E+02 0.  0.
         23    2    4    4    0    0  0.10683694176E+02 -0.70243568000E+02  0.69125289550E+03  0.70128237414E+03  0.94435706021E+02 0.  0.
          2    1    3    3  502    0  0.11477446457E+03  0.10873469570E+03 -0.49134255224E+03  0.51615299612E+03  0.00000000000E+00 0. -1.
         -2    1    3    3    0  502  0.52962526556E+02  0.14138525455E+03 -0.31098667770E+03  0.34569861604E+03  0.00000000000E+00 0.  1.
         13    1    5    5    0    0 -0.37769245087E+02 -0.77718355427E+02 -0.42446704187E+02  0.96272432923E+02  0.00000000000E+00 0. -1.
        -13    1    5    5    0    0 -0.14065144021E+03 -0.10215802683E+03 -0.19346450684E+03  0.26009153290E+03  0.00000000000E+00 0.  1.
          3    1    6    6  503    0  0.31367309803E+02 -0.83093706007E+02  0.61084614481E+03  0.61726937777E+03  0.00000000000E+00 0.  1.
         -3    1    6    6    0  503 -0.20683615627E+02  0.12850138007E+02  0.80406750691E+02  0.84012996369E+02  0.00000000000E+00 0. -1.
<mgrwt>
<rscale>  0 0.18878750E+04</rscale>
<asrwt>0</asrwt>
<pdfrwt beam="1">  1        2 0.12096234E+00 0.18878750E+04</pdfrwt>
<pdfrwt beam="2">  1       -2 0.17434504E+00 0.18878750E+04</pdfrwt>
<totfact> 0.65582346E+00</totfact>
</mgrwt>
</event>
<event>
12    3  0.4769008E-008  0.1366445E+04  0.7818608E-02  0.8978472E-01
         -1   -1    0    0    0  501 -0.00000000000E+00  0.00000000000E+00  0.24589735810E+03  0.24589735810E+03  0.00000000000E+00 0.  1.
          1   -1    0    0  501    0  0.00000000000E+00 -0.00000000000E+00 -0.18983259059E+04  0.18983259059E+04  0.00000000000E+00 0. -1.
         23    2    1    2    0    0  0.21820070711E+03 -0.53939700911E+02  0.27674502384E+01  0.24733223151E+03  0.10317235118E+03 0.  0.
        254    2    1    2    0    0 -0.21820070711E+03  0.53939700911E+02 -0.16551959980E+04  0.18968910325E+04  0.89888862339E+03 0.  0.
         23    2    4    4    0    0 -0.20746227192E+03 -0.31397863833E+03 -0.13675996027E+04  0.14209895457E+04  0.85202325145E+02 0.  0.
         23    2    4    4    0    0 -0.10738435187E+02  0.36791833925E+03 -0.28759639535E+03  0.47590148675E+03  0.91056686342E+02 0.  0.
          1    1    3    3  502    0  0.31626977967E+01  0.80644411769E+01 -0.20570447678E+02  0.22319972817E+02  0.00000000000E+00 0. -1.
         -1    1    3    3    0  502  0.21503800931E+03 -0.62004142088E+02  0.23337897917E+02  0.22501225870E+03  0.00000000000E+00 0.  1.
         13    1    5    5    0    0 -0.16332789707E+03 -0.28344263548E+03 -0.10812340953E+04  0.11296383927E+04  0.00000000000E+00 0.  1.
        -13    1    5    5    0    0 -0.44134374853E+02 -0.30536002850E+02 -0.28636550740E+03  0.29135115298E+03  0.00000000000E+00 0. -1.
          4    1    6    6  503    0  0.19196836109E+02  0.83042003054E+02 -0.10889710585E+03  0.13828619762E+03  0.00000000000E+00 0. -1.
         -4    1    6    6    0  503 -0.29935271296E+02  0.28487633619E+03 -0.17869928950E+03  0.33761528913E+03  0.00000000000E+00 0.  1.
<mgrwt>
<rscale>  0 0.13664455E+04</rscale>
<asrwt>0</asrwt>
<pdfrwt beam="1">  1        1 0.29205015E+00 0.13664455E+04</pdfrwt>
<pdfrwt beam="2">  1       -1 0.37830362E-01 0.13664455E+04</pdfrwt>
<totfact> 0.23043433E+01</totfact>
</mgrwt>
</event>
<event>
12    3  0.4769008E-008  0.1698441E+04  0.7818608E-02  0.8762254E-01
         -1   -1    0    0    0  501 -0.00000000000E+00  0.00000000000E+00  0.46317032716E+03  0.46317032716E+03  0.00000000000E+00 0.  1.
          1   -1    0    0  501    0  0.00000000000E+00 -0.00000000000E+00 -0.15570423518E+04  0.15570423518E+04  0.00000000000E+00 0. -1.
         23    2    1    2    0    0  0.67093429837E+02  0.11520055558E+03  0.31132892739E+03  0.35069790553E+03  0.91052861463E+02 0.  0.
        254    2    1    2    0    0 -0.67093429837E+02 -0.11520055558E+03 -0.14052009521E+04  0.16695147735E+04  0.89158127324E+03 0.  0.
         23    2    4    4    0    0  0.11718163536E+03 -0.44708115785E+03 -0.51487969290E+03  0.69791856246E+03  0.91521168609E+02 0.  0.
         23    2    4    4    0    0 -0.18427506519E+03  0.33188060227E+03 -0.89032125916E+03  0.97159621099E+03  0.85001287626E+02 0.  0.
          3    1    3    3  502    0  0.50399739072E+02  0.20788698086E+02  0.56895874635E+02  0.78800026758E+02  0.00000000000E+00 0. -1.
         -3    1    3    3    0  502  0.16693690765E+02  0.94411857494E+02  0.25443305275E+03  0.27189787877E+03  0.00000000000E+00 0.  1.
         13    1    5    5    0    0 -0.15014602427E+02 -0.35900651384E+02 -0.50112593087E+02  0.63447356460E+02  0.00000000000E+00 0.  1.
        -13    1    5    5    0    0  0.13219623778E+03 -0.41118050646E+03 -0.46476709981E+03  0.63447120600E+03  0.00000000000E+00 0. -1.
          2    1    6    6  503    0 -0.19004333779E+03  0.30687744090E+03 -0.85376558641E+03  0.92693360632E+03  0.00000000000E+00 0. -1.
         -2    1    6    6    0  503  0.57682725960E+01  0.25003161363E+02 -0.36555672742E+02  0.44662604676E+02  0.00000000000E+00 0.  1.
<mgrwt>
<rscale>  0 0.16984414E+04</rscale>
<asrwt>0</asrwt>
<pdfrwt beam="1">  1        1 0.23954498E+00 0.16984414E+04</pdfrwt>
<pdfrwt beam="2">  1       -1 0.71256974E-01 0.16984414E+04</pdfrwt>
<totfact> 0.11306496E+01</totfact>
</mgrwt>
</event>
<event>
12    3  0.4769008E-008  0.1952244E+04  0.7818608E-02  0.8629279E-01
         -1   -1    0    0    0  501 -0.00000000000E+00  0.00000000000E+00  0.94826563872E+03  0.94826563872E+03  0.00000000000E+00 0.  1.
          1   -1    0    0  501    0  0.00000000000E+00 -0.00000000000E+00 -0.10047967482E+04  0.10047967482E+04  0.00000000000E+00 0. -1.
         23    2    1    2    0    0 -0.65706416449E+03  0.35982338296E+03  0.12771693465E+03  0.76457755160E+03  0.84029958027E+02 0.  0.
        254    2    1    2    0    0  0.65706416449E+03 -0.35982338296E+03 -0.18424804410E+03  0.11884848353E+04  0.90407006297E+03 0.  0.
         23    2    4    4    0    0  0.29761140971E+03 -0.61760161764E+03 -0.24347654133E+03  0.73301245310E+03  0.89566293426E+02 0.  0.
         23    2    4    4    0    0  0.35945275478E+03  0.25777823468E+03  0.59228497226E+02  0.45547238218E+03  0.91055888625E+02 0.  0.
          3    1    3    3  502    0 -0.38670535833E+02  0.44798910604E+02  0.16109299043E+01  0.59202599842E+02  0.00000000000E+00 0. -1.
         -3    1    3    3    0  502 -0.61839362865E+03  0.31502447235E+03  0.12610600475E+03  0.70537495176E+03  0.00000000000E+00 0.  1.
         13    1    5    5    0    0  0.26353884141E+02 -0.99990406366E+02 -0.10629914331E+02  0.10395000555E+03  0.00000000000E+00 0.  1.
        -13    1    5    5    0    0  0.27125752557E+03 -0.51761121128E+03 -0.23284662700E+03  0.62906244755E+03  0.00000000000E+00 0. -1.
          2    1    6    6  503    0  0.32079239872E+03  0.25883636632E+03  0.61373017808E+02  0.41673813711E+03  0.00000000000E+00 0. -1.
         -2    1    6    6    0  503  0.38660356059E+02 -0.10581316318E+01 -0.21445205824E+01  0.38734245077E+02  0.00000000000E+00 0.  1.
<mgrwt>
<rscale>  0 0.19522441E+04</rscale>
<asrwt>0</asrwt>
<pdfrwt beam="1">  1        1 0.15458412E+00 0.19522441E+04</pdfrwt>
<pdfrwt beam="2">  1       -1 0.14588702E+00 0.19522441E+04</pdfrwt>
<totfact> 0.52531585E+00</totfact>
</mgrwt>
</event>
<event>
12    3  0.4769008E-008  0.1388316E+04  0.7818608E-02  0.8962320E-01
          2   -1    0    0  501    0  0.00000000000E+00  0.00000000000E+00  0.26579416993E+04  0.26579416993E+04  0.00000000000E+00 0. -1.
         -2   -1    0    0    0  501 -0.00000000000E+00 -0.00000000000E+00 -0.18128885830E+03  0.18128885830E+03  0.00000000000E+00 0.  1.
         23    2    1    2    0    0  0.89831663271E+02  0.14656441581E+03  0.51626344807E+01  0.19353808180E+03  0.88766438514E+02 0.  0.
        254    2    1    2    0    0 -0.89831663271E+02 -0.14656441581E+03  0.24714902065E+04  0.26456924758E+04  0.92837168196E+03 0.  0.
         23    2    4    4    0    0 -0.38926824614E+03 -0.31303203054E+03  0.19469564165E+04  0.20121862481E+04  0.93463305942E+02 0.  0.
         23    2    4    4    0    0  0.29943658287E+03  0.16646761474E+03  0.52453378997E+03  0.63350622768E+03  0.93918633801E+02 0.  0.
          1    1    3    3  502    0 -0.56579583975E+01 -0.66229294322E+01 -0.89323650121E+01  0.12476491181E+02  0.00000000000E+00 0. -1.
         -1    1    3    3    0  502  0.95489621668E+02  0.15318734524E+03  0.14094999493E+02  0.18106159062E+03  0.00000000000E+00 0.  1.
         13    1    5    5    0    0 -0.72222393491E+02 -0.28984352785E+02  0.21387628665E+03  0.22759444813E+03  0.00000000000E+00 0. -1.
        -13    1    5    5    0    0 -0.31704585265E+03 -0.28404767776E+03  0.17330801299E+04  0.17845918000E+04  0.00000000000E+00 0.  1.
          3    1    6    6  503    0  0.45855377322E+02  0.59099758018E+02  0.72326056818E+02  0.10405073533E+03  0.00000000000E+00 0. -1.
         -3    1    6    6    0  503  0.25358120555E+03  0.10736785672E+03  0.45220773315E+03  0.52945549235E+03  0.00000000000E+00 0.  1.
<mgrwt>
<rscale>  0 0.13883158E+04</rscale>
<asrwt>0</asrwt>
<pdfrwt beam="1">  1        2 0.40891408E+00 0.13883158E+04</pdfrwt>
<pdfrwt beam="2">  1       -2 0.27890596E-01 0.13883158E+04</pdfrwt>
<totfact> 0.32343552E+01</totfact>
</mgrwt>
</event>
<event>
12    3  0.4769008E-008  0.2759708E+04  0.7818608E-02  0.8315888E-01
         -2   -1    0    0    0  501 -0.00000000000E+00  0.00000000000E+00  0.53683578693E+03  0.53683578693E+03  0.00000000000E+00 0.  1.
          2   -1    0    0  501    0  0.00000000000E+00 -0.00000000000E+00 -0.35467027891E+04  0.35467027891E+04  0.00000000000E+00 0. -1.
         23    2    1    2    0    0 -0.58693460791E+03  0.10757183333E+04 -0.15641553795E+04  0.19891362052E+04  0.91753066667E+02 0.  0.
        254    2    1    2    0    0  0.58693460791E+03 -0.10757183333E+04 -0.14457116227E+04  0.20944023708E+04  0.89150267979E+03 0.  0.
         23    2    4    4    0    0  0.50793677165E+03 -0.12404338595E+03 -0.70476722249E+03  0.88222005282E+03  0.90713053653E+02 0.  0.
         23    2    4    4    0    0  0.78997836262E+02 -0.95167494740E+03 -0.74094440020E+03  0.12121823180E+04  0.91986434594E+02 0.  0.
          3    1    3    3  502    0 -0.57486315619E+03  0.10438437913E+04 -0.15406323607E+04  0.19477231784E+04  0.00000000000E+00 0. -1.
         -3    1    3    3    0  502 -0.12071451723E+02  0.31874542061E+02 -0.23523018764E+02  0.41413026816E+02  0.00000000000E+00 0.  1.
         13    1    5    5    0    0  0.27490876467E+03 -0.23609694376E+02 -0.39417410218E+03  0.48115015264E+03  0.00000000000E+00 0.  1.
        -13    1    5    5    0    0  0.23302800698E+03 -0.10043369157E+03 -0.31059312032E+03  0.40106990018E+03  0.00000000000E+00 0. -1.
          4    1    6    6  503    0  0.22075077270E+02 -0.69390555691E+03 -0.51012563048E+03  0.86152213542E+03  0.00000000000E+00 0. -1.
         -4    1    6    6    0  503  0.56922758993E+02 -0.25776939049E+03 -0.23081876972E+03  0.35066018254E+03  0.00000000000E+00 0.  1.
<mgrwt>
<rscale>  0 0.27597079E+04</rscale>
<asrwt>0</asrwt>
<pdfrwt beam="1">  1        2 0.54564658E+00 0.27597079E+04</pdfrwt>
<pdfrwt beam="2">  1       -2 0.82590122E-01 0.27597079E+04</pdfrwt>
<totfact> 0.84634635E-01</totfact>
</mgrwt>
</event>
<event>
12    3  0.4769008E-008  0.1974559E+04  0.7818608E-02  0.8618608E-01
         -2   -1    0    0    0  501 -0.00000000000E+00  0.00000000000E+00  0.51323035538E+03  0.51323035538E+03  0.00000000000E+00 0.  1.
          2   -1    0    0  501    0  0.00000000000E+00 -0.00000000000E+00 -0.18991882892E+04  0.18991882892E+04  0.00000000000E+00 0. -1.
         23    2    1    2    0    0  0.60486412611E+03 -0.31771999993E+03 -0.14893582446E+03  0.70531640493E+03  0.92101801530E+02 0.  0.
        254    2    1    2    0    0 -0.60486412611E+03  0.31771999993E+03 -0.12370221094E+04  0.17071022397E+04  0.95768875328E+03 0.  0.
         23    2    4    4    0    0 -0.69459706658E+03 -0.62890118348E+02 -0.48465379220E+03  0.85424096320E+03  0.91750057359E+02 0.  0.
         23    2    4    4    0    0  0.89732940472E+02  0.38061011828E+03 -0.75236831718E+03  0.85286127647E+03  0.91641745147E+02 0.  0.
          4    1    3    3  502    0  0.75673965062E+02 -0.34833069083E+02 -0.49999443699E+02  0.97158818746E+02  0.00000000000E+00 0. -1.
         -4    1    3    3    0  502  0.52919016105E+03 -0.28288693085E+03 -0.98936380757E+02  0.60815758618E+03  0.00000000000E+00 0.  1.
         13    1    5    5    0    0 -0.61466651798E+03 -0.36951244280E+02 -0.39615800712E+03  0.73220317494E+03  0.00000000000E+00 0. -1.
        -13    1    5    5    0    0 -0.79930548599E+02 -0.25938874068E+02 -0.88495785077E+02  0.12203778826E+03  0.00000000000E+00 0.  1.
          4    1    6    6  503    0  0.51415928866E+02  0.34653795971E+03 -0.65992299340E+03  0.74714825335E+03  0.00000000000E+00 0. -1.
         -4    1    6    6    0  503  0.38317011606E+02  0.34072158575E+02 -0.92445323777E+02  0.10571302312E+03  0.00000000000E+00 0.  1.
<mgrwt>
<rscale>  0 0.19745593E+04</rscale>
<asrwt>0</asrwt>
<pdfrwt beam="1">  1        2 0.29218281E+00 0.19745593E+04</pdfrwt>
<pdfrwt beam="2">  1       -2 0.78958516E-01 0.19745593E+04</pdfrwt>
<totfact> 0.10073552E+01</totfact>
</mgrwt>
</event>
<event>
12    3  0.4769008E-008  0.2052176E+04  0.7818608E-02  0.8582608E-01
          2   -1    0    0  501    0  0.00000000000E+00  0.00000000000E+00  0.20948550278E+04  0.20948550278E+04  0.00000000000E+00 0.  1.
         -2   -1    0    0    0  501 -0.00000000000E+00 -0.00000000000E+00 -0.50259157608E+03  0.50259157608E+03  0.00000000000E+00 0. -1.
         23    2    1    2    0    0 -0.34452929735E+03  0.23116312242E+03  0.15411931988E+04  0.15986318672E+04  0.90612056996E+02 0.  0.
        254    2    1    2    0    0  0.34452929735E+03 -0.23116312242E+03  0.51070252910E+02  0.99881473667E+03  0.90713057581E+03 0.  0.
         23    2    4    4    0    0  0.36179065553E+03 -0.38659919858E+03  0.35559049587E+03  0.64433267047E+03  0.91479892346E+02 0.  0.
         23    2    4    4    0    0 -0.17261358181E+02  0.15543607616E+03 -0.30452024296E+03  0.35448206621E+03  0.92014284942E+02 0.  0.
          1    1    3    3  502    0 -0.69056798240E+02  0.43939589442E+02  0.18790563448E+03  0.20495866991E+03  0.00000000000E+00 0. -1.
         -1    1    3    3    0  502 -0.27547249911E+03  0.18722353298E+03  0.13532875643E+04  0.13936731973E+04  0.00000000000E+00 0.  1.
         13    1    5    5    0    0  0.59509279003E+02 -0.25433927347E+02  0.27326594377E+02  0.70249424966E+02  0.00000000000E+00 0. -1.
        -13    1    5    5    0    0  0.30228137653E+03 -0.36116527123E+03  0.32826390149E+03  0.57408324550E+03  0.00000000000E+00 0.  1.
          1    1    6    6  503    0  0.32252493251E+02  0.42123241362E+02 -0.13164099188E+03  0.14192935400E+03  0.00000000000E+00 0. -1.
         -1    1    6    6    0  503 -0.49513851431E+02  0.11331283480E+03 -0.17287925108E+03  0.21255271220E+03  0.00000000000E+00 0.  1.
<mgrwt>
<rscale>  0 0.20521759E+04</rscale>
<asrwt>0</asrwt>
<pdfrwt beam="1">  1        2 0.32228538E+00 0.20521759E+04</pdfrwt>
<pdfrwt beam="2">  1       -2 0.77321782E-01 0.20521759E+04</pdfrwt>
<totfact> 0.81637844E+00</totfact>
</mgrwt>
</event>
<event>
12    3  0.4769008E-008  0.2057899E+04  0.7818608E-02  0.8580020E-01
         -2   -1    0    0    0  501 -0.00000000000E+00  0.00000000000E+00  0.89154114844E+03  0.89154114844E+03  0.00000000000E+00 0.  1.
          2   -1    0    0  501    0  0.00000000000E+00 -0.00000000000E+00 -0.11875352765E+04  0.11875352765E+04  0.00000000000E+00 0. -1.
         23    2    1    2    0    0  0.63178828943E+03  0.38306311549E+03 -0.50667140899E+03  0.90044851037E+03  0.90541758478E+02 0.  0.
        254    2    1    2    0    0 -0.63178828943E+03 -0.38306311549E+03  0.21067728093E+03  0.11786279146E+04  0.89380369836E+03 0.  0.
         23    2    4    4    0    0  0.11523155164E+03 -0.30259294134E+03  0.25301063640E+03  0.42073871092E+03  0.90365270395E+02 0.  0.
         23    2    4    4    0    0 -0.74701984107E+03 -0.80470174145E+02 -0.42333355474E+02  0.75788920364E+03  0.89943538611E+02 0.  0.
          4    1    3    3  502    0  0.22060980530E+02 -0.25296981340E+01 -0.86946276301E+01  0.23847070768E+02  0.00000000000E+00 0.  1.
         -4    1    3    3    0  502  0.60972730890E+03  0.38559281362E+03 -0.49797678136E+03  0.87660143960E+03  0.00000000000E+00 0. -1.
         13    1    5    5    0    0  0.11517180405E+03 -0.20524986579E+03  0.20538260492E+03  0.31236847834E+03  0.00000000000E+00 0. -1.
        -13    1    5    5    0    0  0.59747592658E-01 -0.97343075558E+02  0.47628031478E+02  0.10837023259E+03  0.00000000000E+00 0.  1.
          1    1    6    6  503    0 -0.70817889576E+03 -0.94889840209E+02 -0.32180575129E+02  0.71523214385E+03  0.00000000000E+00 0. -1.
         -1    1    6    6    0  503 -0.38840945305E+02  0.14419666065E+02 -0.10152780345E+02  0.42657059795E+02  0.00000000000E+00 0.  1.
<mgrwt>
<rscale>  0 0.20578985E+04</rscale>
<asrwt>0</asrwt>
<pdfrwt beam="1">  1        2 0.18269773E+00 0.20578985E+04</pdfrwt>
<pdfrwt beam="2">  1       -2 0.13716018E+00 0.20578985E+04</pdfrwt>
<totfact> 0.67498929E+00</totfact>
</mgrwt>
</event>
<event>
12    3  0.4769008E-008  0.1377443E+04  0.7818608E-02  0.8970310E-01
          2   -1    0    0  501    0  0.00000000000E+00  0.00000000000E+00  0.19055504894E+04  0.19055504894E+04  0.00000000000E+00 0. -1.
         -2   -1    0    0    0  501 -0.00000000000E+00 -0.00000000000E+00 -0.24892397305E+03  0.24892397305E+03  0.00000000000E+00 0.  1.
         23    2    1    2    0    0  0.18034681846E+02 -0.92513745491E+01 -0.12400020678E+03  0.15522570886E+03  0.91148953522E+02 0.  0.
        254    2    1    2    0    0 -0.18034681846E+02  0.92513745491E+01  0.17806267231E+04  0.19992487536E+04  0.90881968175E+03 0.  0.
         23    2    4    4    0    0 -0.23374097528E+03  0.37013235378E+03  0.64604167486E+03  0.78583758546E+03  0.92401635408E+02 0.  0.
         23    2    4    4    0    0  0.21570629344E+03 -0.36088097923E+03  0.11345850482E+04  0.12134111681E+04  0.91209347057E+02 0.  0.
          4    1    3    3  502    0  0.39056075466E+02 -0.37291393976E+02 -0.51127576003E+02  0.74364333678E+02  0.00000000000E+00 0. -1.
         -4    1    3    3    0  502 -0.21021393621E+02  0.28040019427E+02 -0.72872630780E+02  0.80861375181E+02  0.00000000000E+00 0.  1.
         13    1    5    5    0    0 -0.32290037691E+02  0.18885180720E+02  0.27020068943E+02  0.46145213301E+02  0.00000000000E+00 0.  1.
        -13    1    5    5    0    0 -0.20145093759E+03  0.35124717306E+03  0.61902160592E+03  0.73969237216E+03  0.00000000000E+00 0. -1.
          4    1    6    6  503    0  0.14806940489E+03 -0.22066755948E+03  0.59146231822E+03  0.64841837909E+03  0.00000000000E+00 0. -1.
         -4    1    6    6    0  503  0.67636888544E+02 -0.14021341976E+03  0.54312273001E+03  0.56499278900E+03  0.00000000000E+00 0.  1.
<mgrwt>
<rscale>  0 0.13774428E+04</rscale>
<asrwt>0</asrwt>
<pdfrwt beam="1">  1        2 0.29316160E+00 0.13774428E+04</pdfrwt>
<pdfrwt beam="2">  1       -2 0.38295997E-01 0.13774428E+04</pdfrwt>
<totfact> 0.47345150E+01</totfact>
</mgrwt>
</event>
<event>
12    3  0.4769008E-008  0.1661016E+04  0.7818608E-02  0.8783916E-01
          2   -1    0    0  501    0  0.00000000000E+00  0.00000000000E+00  0.16608223640E+04  0.16608223640E+04  0.00000000000E+00 0. -1.
         -2   -1    0    0    0  501 -0.00000000000E+00 -0.00000000000E+00 -0.41530227616E+03  0.41530227616E+03  0.00000000000E+00 0.  1.
         23    2    1    2    0    0  0.16507777710E+03  0.55332562205E+03  0.32015431880E+03  0.66643349249E+03  0.90636060978E+02 0.  0.
        254    2    1    2    0    0 -0.16507777710E+03 -0.55332562205E+03  0.92536576905E+03  0.14096911477E+04  0.89303270310E+03 0.  0.
         23    2    4    4    0    0  0.12598335612E+03 -0.30312563551E+03 -0.62562865695E+02  0.34573009947E+03  0.88646672787E+02 0.  0.
         23    2    4    4    0    0 -0.29106113322E+03 -0.25019998655E+03  0.98792863474E+03  0.10639610482E+04  0.93238984454E+02 0.  0.
          2    1    3    3  502    0  0.13328609198E+03  0.43274319897E+03  0.20634640810E+03  0.49760496250E+03  0.00000000000E+00 0.  1.
         -2    1    3    3    0  502  0.31791685114E+02  0.12058242308E+03  0.11380791070E+03  0.16882852998E+03  0.00000000000E+00 0. -1.
         13    1    5    5    0    0  0.24459370024E+02 -0.16584717955E+03 -0.14039663003E+02  0.16822799970E+03  0.00000000000E+00 0. -1.
        -13    1    5    5    0    0  0.10152398610E+03 -0.13727845595E+03 -0.48523202693E+02  0.17750209977E+03  0.00000000000E+00 0.  1.
          3    1    6    6  503    0 -0.29346150274E+03 -0.22719422028E+03  0.94357832775E+03  0.10139412843E+04  0.00000000000E+00 0. -1.
         -3    1    6    6    0  503  0.24003695218E+01 -0.23005766273E+02  0.44350306991E+02  0.50019763952E+02  0.00000000000E+00 0.  1.
<mgrwt>
<rscale>  0 0.16610157E+04</rscale>
<asrwt>0</asrwt>
<pdfrwt beam="1">  1        2 0.25551113E+00 0.16610157E+04</pdfrwt>
<pdfrwt beam="2">  1       -2 0.63892658E-01 0.16610157E+04</pdfrwt>
<totfact> 0.22293564E+01</totfact>
</mgrwt>
</event>
<event>
12    3  0.4769008E-008  0.1633531E+04  0.7818608E-02  0.8800209E-01
          2   -1    0    0  501    0  0.00000000000E+00  0.00000000000E+00  0.14320542383E+04  0.14320542383E+04  0.00000000000E+00 0. -1.
         -2   -1    0    0    0  501 -0.00000000000E+00 -0.00000000000E+00 -0.46583846085E+03  0.46583846085E+03  0.00000000000E+00 0.  1.
         23    2    1    2    0    0  0.27989287015E+03 -0.50600731005E+03  0.34167897145E+03  0.67791551009E+03  0.91877650730E+02 0.  0.
        254    2    1    2    0    0 -0.27989287015E+03  0.50600731005E+03  0.62453680595E+03  0.12199771890E+04  0.87402214109E+03 0.  0.
         23    2    4    4    0    0 -0.41257915932E+03  0.65798703101E+03  0.32276173500E+03  0.84591214306E+03  0.90684731441E+02 0.  0.
         23    2    4    4    0    0  0.13268628917E+03 -0.15197972095E+03  0.30177507095E+03  0.37406504595E+03  0.90293843858E+02 0.  0.
          4    1    3    3  502    0  0.16206049582E+03 -0.26584728959E+03  0.23429788649E+03  0.38965867795E+03  0.00000000000E+00 0. -1.
         -4    1    3    3    0  502  0.11783237434E+03 -0.24016002046E+03  0.10738108496E+03  0.28825683214E+03  0.00000000000E+00 0.  1.
         13    1    5    5    0    0 -0.28110298122E+02  0.14395234250E+02  0.20113468323E+02  0.37442799543E+02  0.00000000000E+00 0. -1.
        -13    1    5    5    0    0 -0.38446886120E+03  0.64359179676E+03  0.30264826667E+03  0.80846934352E+03  0.00000000000E+00 0.  1.
          3    1    6    6  503    0  0.93049541641E+01 -0.10982727966E+02  0.90684702472E+02  0.91820029122E+02  0.00000000000E+00 0. -1.
         -3    1    6    6    0  503  0.12338133500E+03 -0.14099699299E+03  0.21109036848E+03  0.28224501683E+03  0.00000000000E+00 0.  1.
<mgrwt>
<rscale>  0 0.16335311E+04</rscale>
<asrwt>0</asrwt>
<pdfrwt beam="1">  1        2 0.22031603E+00 0.16335311E+04</pdfrwt>
<pdfrwt beam="2">  1       -2 0.71667456E-01 0.16335311E+04</pdfrwt>
<totfact> 0.23424468E+01</totfact>
</mgrwt>
</event>
<event>
12    3  0.4769008E-008  0.1180868E+04  0.7818608E-02  0.9129769E-01
          2   -1    0    0  501    0  0.00000000000E+00  0.00000000000E+00  0.35335370419E+03  0.35335370419E+03  0.00000000000E+00 0. -1.
         -2   -1    0    0    0  501 -0.00000000000E+00 -0.00000000000E+00 -0.98658185143E+03  0.98658185143E+03  0.00000000000E+00 0.  1.
         23    2    1    2    0    0  0.13666016126E+03 -0.66783183465E+02 -0.34535516909E+03  0.38810084990E+03  0.90642614709E+02 0.  0.
        254    2    1    2    0    0 -0.13666016126E+03  0.66783183465E+02 -0.28787297814E+03  0.95183470572E+03  0.89441738702E+03 0.  0.
         23    2    4    4    0    0  0.72403410701E+02  0.23275248543E+03 -0.52317919194E+03  0.58424315872E+03  0.90595961730E+02 0.  0.
         23    2    4    4    0    0 -0.20906357196E+03 -0.16596930197E+03  0.23530621380E+03  0.36759154700E+03  0.92201653211E+02 0.  0.
          1    1    3    3  502    0  0.15931601847E+02 -0.63576053646E+01  0.15165460908E+00  0.17153952387E+02  0.00000000000E+00 0. -1.
         -1    1    3    3    0  502  0.12072855941E+03 -0.60425578100E+02 -0.34550682370E+03  0.37094689751E+03  0.00000000000E+00 0.  1.
         13    1    5    5    0    0  0.48371453460E+02  0.19890399875E+03 -0.34382653286E+03  0.40014907588E+03  0.00000000000E+00 0. -1.
        -13    1    5    5    0    0  0.24031957242E+02  0.33848486680E+02 -0.17935265908E+03  0.18409408284E+03  0.00000000000E+00 0.  1.
          4    1    6    6  503    0 -0.19984259880E+02 -0.62374949435E+02  0.70398347599E+02  0.96155771042E+02  0.00000000000E+00 0. -1.
         -4    1    6    6    0  503 -0.18907931208E+03 -0.10359435253E+03  0.16490786620E+03  0.27143577596E+03  0.00000000000E+00 0.  1.
<mgrwt>
<rscale>  0 0.11808681E+04</rscale>
<asrwt>0</asrwt>
<pdfrwt beam="1">  1        2 0.54362109E-01 0.11808681E+04</pdfrwt>
<pdfrwt beam="2">  1       -2 0.15178182E+00 0.11808681E+04</pdfrwt>
<totfact> 0.26197588E+01</totfact>
</mgrwt>
</event>
<event>
12    3  0.4769008E-008  0.2232603E+04  0.7818608E-02  0.8504979E-01
          2   -1    0    0  501    0  0.00000000000E+00  0.00000000000E+00  0.85432918340E+03  0.85432918340E+03  0.00000000000E+00 0.  1.
         -2   -1    0    0    0  501 -0.00000000000E+00 -0.00000000000E+00 -0.14586058155E+04  0.14586058155E+04  0.00000000000E+00 0. -1.
         23    2    1    2    0    0 -0.38390098276E+03 -0.64241049413E+03  0.32870077935E+03  0.82240626861E+03  0.90756050874E+02 0.  0.
        254    2    1    2    0    0  0.38390098276E+03  0.64241049413E+03 -0.93297741150E+03  0.14905287303E+04  0.88947053805E+03 0.  0.
         23    2    4    4    0    0  0.66429386896E+03  0.48634775826E+03 -0.64549464967E+03  0.10502060273E+04  0.91917739207E+02 0.  0.
         23    2    4    4    0    0 -0.28039288620E+03  0.15606273587E+03 -0.28748276183E+03  0.44032270301E+03  0.90895523966E+02 0.  0.
          1    1    3    3  502    0 -0.16755304659E+03 -0.22771257421E+03  0.86332950437E+02  0.29560178993E+03  0.00000000000E+00 0. -1.
         -1    1    3    3    0  502 -0.21634793617E+03 -0.41469791992E+03  0.24236782891E+03  0.52680447868E+03  0.00000000000E+00 0.  1.
         13    1    5    5    0    0  0.58280249390E+03  0.45587881715E+03 -0.55728489999E+03  0.92631026259E+03  0.00000000000E+00 0. -1.
        -13    1    5    5    0    0  0.81491375063E+02  0.30468941112E+02 -0.88209749680E+02  0.12389576474E+03  0.00000000000E+00 0.  1.
          3    1    6    6  503    0 -0.23182997359E+03  0.15814467504E+03 -0.26771871275E+03  0.38785072393E+03  0.00000000000E+00 0. -1.
         -3    1    6    6    0  503 -0.48562912613E+02 -0.20819391721E+01 -0.19764049076E+02  0.52471979075E+02  0.00000000000E+00 0.  1.
<mgrwt>
<rscale>  0 0.22326034E+04</rscale>
<asrwt>0</asrwt>
<pdfrwt beam="1">  1        2 0.13143526E+00 0.22326034E+04</pdfrwt>
<pdfrwt beam="2">  1       -2 0.22440090E+00 0.22326034E+04</pdfrwt>
<totfact> 0.26627889E+00</totfact>
</mgrwt>
</event>
<event>
12    3  0.4769008E-008  0.1659265E+04  0.7818608E-02  0.8784944E-01
         -2   -1    0    0    0  501 -0.00000000000E+00  0.00000000000E+00  0.15938344266E+04  0.15938344266E+04  0.00000000000E+00 0. -1.
          2   -1    0    0  501    0  0.00000000000E+00 -0.00000000000E+00 -0.43184533466E+03  0.43184533466E+03  0.00000000000E+00 0.  1.
         23    2    1    2    0    0 -0.23853432680E+03 -0.44934090979E+03  0.72807194760E+02  0.52164155549E+03  0.89460307014E+02 0.  0.
        254    2    1    2    0    0  0.23853432680E+03  0.44934090979E+03  0.10891818972E+04  0.15040382058E+04  0.90388486047E+03 0.  0.
         23    2    4    4    0    0  0.28279606989E+03  0.64685767394E+03  0.49025298715E+03  0.86428516161E+03  0.90787563474E+02 0.  0.
         23    2    4    4    0    0 -0.44261743088E+02 -0.19751676415E+03  0.59892891002E+03  0.63975304415E+03  0.97959911298E+02 0.  0.
          2    1    3    3  502    0 -0.21378694188E+03 -0.33197731820E+03  0.73781269470E+02  0.40169325616E+03  0.00000000000E+00 0. -1.
         -2    1    3    3    0  502 -0.24747384923E+02 -0.11736359159E+03 -0.97407470995E+00  0.11994829933E+03  0.00000000000E+00 0.  1.
         13    1    5    5    0    0  0.19707182929E+03  0.44702809329E+03  0.38865869296E+03  0.62428118801E+03  0.00000000000E+00 0. -1.
        -13    1    5    5    0    0  0.85724240603E+02  0.19982958065E+03  0.10159429419E+03  0.24000397360E+03  0.00000000000E+00 0.  1.
          3    1    6    6  503    0 -0.84236442679E+01  0.15511059802E+01  0.11024864707E+01  0.86359243241E+01  0.00000000000E+00 0. -1.
         -3    1    6    6    0  503 -0.35838098820E+02 -0.19906787013E+03  0.59782642355E+03  0.63111711982E+03  0.00000000000E+00 0.  1.
<mgrwt>
<rscale>  0 0.16592649E+04</rscale>
<asrwt>0</asrwt>
<pdfrwt beam="1">  1        2 0.66437745E-01 0.16592649E+04</pdfrwt>
<pdfrwt beam="2">  1       -2 0.24520529E+00 0.16592649E+04</pdfrwt>
<totfact> 0.47865250E+00</totfact>
</mgrwt>
</event>
<event>
12    3  0.4769008E-008  0.2833379E+04  0.7818608E-02  0.8292980E-01
         -1   -1    0    0    0  501 -0.00000000000E+00  0.00000000000E+00  0.99269581153E+03  0.99269581153E+03  0.00000000000E+00 0.  1.
          1   -1    0    0  501    0  0.00000000000E+00 -0.00000000000E+00 -0.20217761745E+04  0.20217761745E+04  0.00000000000E+00 0. -1.
         23    2    1    2    0    0 -0.45041220003E+03  0.11720534706E+04 -0.69668182469E+03  0.14388209615E+04  0.90882927163E+02 0.  0.
        254    2    1    2    0    0  0.45041220003E+03 -0.11720534706E+04 -0.33239853828E+03  0.15756510245E+04  0.89196797866E+03 0.  0.
         23    2    4    4    0    0  0.58678307071E+03 -0.56979904979E+03 -0.45364016228E+03  0.93965427254E+03  0.90418061499E+02 0.  0.
         23    2    4    4    0    0 -0.13637087068E+03 -0.60225442082E+03  0.12124162400E+03  0.63599675200E+03  0.92113709069E+02 0.  0.
          3    1    3    3  502    0 -0.26358405034E+02  0.57673918427E+02 -0.14215581133E+02  0.64985607096E+02  0.00000000000E+00 0. -1.
         -3    1    3    3    0  502 -0.42405379500E+03  0.11143795522E+04 -0.68246624356E+03  0.13738353544E+04  0.00000000000E+00 0.  1.
         13    1    5    5    0    0  0.12621711133E+03 -0.74681105940E+02 -0.77813432789E+02  0.16602095380E+03  0.00000000000E+00 0.  1.
        -13    1    5    5    0    0  0.46056595938E+03 -0.49511794385E+03 -0.37582672949E+03  0.77363331874E+03  0.00000000000E+00 0. -1.
          1    1    6    6  503    0 -0.10872997017E+03 -0.27422950555E+03  0.64208949587E+02  0.30190531187E+03  0.00000000000E+00 0. -1.
         -1    1    6    6    0  503 -0.27640900510E+02 -0.32802491527E+03  0.57032674408E+02  0.33409144013E+03  0.00000000000E+00 0.  1.
<mgrwt>
<rscale>  0 0.28333787E+04</rscale>
<asrwt>0</asrwt>
<pdfrwt beam="1">  1        1 0.31104248E+00 0.28333787E+04</pdfrwt>
<pdfrwt beam="2">  1       -1 0.15272243E+00 0.28333787E+04</pdfrwt>
<totfact> 0.82614368E-01</totfact>
</mgrwt>
</event>
<event>
12    3  0.4769008E-008  0.3463987E+04  0.7818608E-02  0.8122378E-01
          2   -1    0    0  501    0  0.00000000000E+00  0.00000000000E+00  0.24890051336E+04  0.24890051336E+04  0.00000000000E+00 0.  1.
         -2   -1    0    0    0  501 -0.00000000000E+00 -0.00000000000E+00 -0.12052211691E+04  0.12052211691E+04  0.00000000000E+00 0. -1.
         23    2    1    2    0    0 -0.14182470555E+04 -0.76714166833E+03  0.52530758230E+03  0.16985580930E+04  0.96023381081E+02 0.  0.
        254    2    1    2    0    0  0.14182470555E+04  0.76714166833E+03  0.75847638229E+03  0.19956682097E+04  0.89859564369E+03 0.  0.
         23    2    4    4    0    0 -0.87207714711E+02  0.89282595685E+02 -0.38776879718E+02  0.15998957926E+03  0.92284623165E+02 0.  0.
         23    2    4    4    0    0  0.15054547702E+04  0.67785907265E+03  0.79725326200E+03  0.18356786304E+04  0.90643713731E+02 0.  0.
          1    1    3    3  502    0 -0.13620259872E+04 -0.75091078432E+03  0.49223726348E+03  0.16313427964E+04  0.00000000000E+00 0. -1.
         -1    1    3    3    0  502 -0.56221068266E+02 -0.16230884013E+02  0.33070318813E+02  0.67215296617E+02  0.00000000000E+00 0.  1.
         13    1    5    5    0    0 -0.30763076487E+02  0.17354889656E+02 -0.56716365402E+02  0.66815456103E+02  0.00000000000E+00 0.  1.
        -13    1    5    5    0    0 -0.56444638224E+02  0.71927706029E+02  0.17939485683E+02  0.93174123154E+02  0.00000000000E+00 0. -1.
          1    1    6    6  503    0  0.10273253195E+03  0.26164876528E+02  0.65325807397E+02  0.12452323075E+03  0.00000000000E+00 0. -1.
         -1    1    6    6    0  503  0.14027222382E+04  0.65169419612E+03  0.73192745461E+03  0.17111553996E+04  0.00000000000E+00 0.  1.
<mgrwt>
<rscale>  0 0.34639871E+04</rscale>
<asrwt>0</asrwt>
<pdfrwt beam="1">  1        2 0.38292387E+00 0.34639871E+04</pdfrwt>
<pdfrwt beam="2">  1       -2 0.18541864E+00 0.34639871E+04</pdfrwt>
<totfact> 0.48454769E-01</totfact>
</mgrwt>
</event>
<event>
12    3  0.4769008E-008  0.1472741E+04  0.7818608E-02  0.8902785E-01
         -2   -1    0    0    0  501 -0.00000000000E+00  0.00000000000E+00  0.20316094559E+03  0.20316094559E+03  0.00000000000E+00 0.  1.
          2   -1    0    0  501    0  0.00000000000E+00 -0.00000000000E+00 -0.26690257086E+04  0.26690257086E+04  0.00000000000E+00 0. -1.
         23    2    1    2    0    0  0.25729364369E+03 -0.24158176614E+03 -0.21601452590E+03  0.42327934928E+03  0.89114327199E+02 0.  0.
        254    2    1    2    0    0 -0.25729364369E+03  0.24158176614E+03 -0.22498502371E+04  0.24489073049E+04  0.90042164001E+03 0.  0.
         23    2    4    4    0    0  0.20314695401E+02  0.30951728258E+03 -0.20661297527E+03  0.38374213709E+03  0.91408266414E+02 0.  0.
         23    2    4    4    0    0 -0.27760833909E+03 -0.67935516436E+02 -0.20432372618E+04  0.20651651678E+04  0.91689900466E+02 0.  0.
          4    1    3    3  502    0  0.23753450591E+03 -0.18390154134E+03 -0.15938913370E+03  0.34006957281E+03  0.00000000000E+00 0.  1.
         -4    1    3    3    0  502  0.19759137772E+02 -0.57680224800E+02 -0.56625392201E+02  0.83209776471E+02  0.00000000000E+00 0. -1.
         13    1    5    5    0    0  0.28461914766E+02  0.30773076523E+03 -0.21110936229E+03  0.37426657253E+03  0.00000000000E+00 0. -1.
        -13    1    5    5    0    0 -0.81472193653E+01  0.17865173432E+01  0.44963870233E+01  0.94755645672E+01  0.00000000000E+00 0.  1.
          3    1    6    6  503    0 -0.22733839230E+03 -0.41320235049E+02 -0.13530288486E+04  0.13726169063E+04  0.00000000000E+00 0. -1.
         -3    1    6    6    0  503 -0.50269946783E+02 -0.26615281386E+02 -0.69020841329E+03  0.69254826151E+03  0.00000000000E+00 0.  1.
<mgrwt>
<rscale>  0 0.14727414E+04</rscale>
<asrwt>0</asrwt>
<pdfrwt beam="1">  1        2 0.41061933E+00 0.14727414E+04</pdfrwt>
<pdfrwt beam="2">  1       -2 0.31255530E-01 0.14727414E+04</pdfrwt>
<totfact> 0.25583558E+01</totfact>
</mgrwt>
</event>
<event>
12    3  0.4769008E-008  0.1352941E+04  0.7818608E-02  0.8988605E-01
         -2   -1    0    0    0  501 -0.00000000000E+00  0.00000000000E+00  0.47886842374E+03  0.47886842374E+03  0.00000000000E+00 0.  1.
          2   -1    0    0  501    0  0.00000000000E+00 -0.00000000000E+00 -0.95561146842E+03  0.95561146842E+03  0.00000000000E+00 0. -1.
         23    2    1    2    0    0 -0.15352462435E+03  0.25899120477E+03 -0.35323730390E+03  0.47393805351E+03  0.95887597022E+02 0.  0.
        254    2    1    2    0    0  0.15352462435E+03 -0.25899120477E+03 -0.12350574078E+03  0.96054183865E+03  0.90373707535E+03 0.  0.
         23    2    4    4    0    0 -0.12587612296E+03  0.29039697224E+03 -0.26229599492E+02  0.32992817316E+03  0.89383486951E+02 0.  0.
         23    2    4    4    0    0  0.27940074731E+03 -0.54938817702E+03 -0.97276141288E+02  0.63061366549E+03  0.91207460212E+02 0.  0.
          3    1    3    3  502    0 -0.66344812398E+02  0.13298023611E+03 -0.24423013574E+03  0.28589112706E+03  0.00000000000E+00 0. -1.
         -3    1    3    3    0  502 -0.87179811951E+02  0.12601096867E+03 -0.10900716816E+03  0.18804692645E+03  0.00000000000E+00 0.  1.
         13    1    5    5    0    0  0.83645533313E+01  0.71420736761E+02 -0.95259767375E+01  0.72537105158E+02  0.00000000000E+00 0. -1.
        -13    1    5    5    0    0 -0.13424067629E+03  0.21897623548E+03 -0.16703622755E+02  0.25739106801E+03  0.00000000000E+00 0.  1.
          2    1    6    6  503    0  0.86630080231E+02 -0.17188762597E+03  0.12079536245E+02  0.19286275420E+03  0.00000000000E+00 0. -1.
         -2    1    6    6    0  503  0.19277066708E+03 -0.37750055105E+03 -0.10935567753E+03  0.43775091129E+03  0.00000000000E+00 0.  1.
<mgrwt>
<rscale>  0 0.13529407E+04</rscale>
<asrwt>0</asrwt>
<pdfrwt beam="1">  1        2 0.14701715E+00 0.13529407E+04</pdfrwt>
<pdfrwt beam="2">  1       -2 0.73672066E-01 0.13529407E+04</pdfrwt>
<totfact> 0.43686151E+01</totfact>
</mgrwt>
</event>
<event>
12    3  0.4769008E-008  0.1135019E+04  0.7818608E-02  0.9171716E-01
          2   -1    0    0  501    0  0.00000000000E+00  0.00000000000E+00  0.32697628228E+04  0.32697628228E+04  0.00000000000E+00 0. -1.
         -2   -1    0    0    0  501 -0.00000000000E+00 -0.00000000000E+00 -0.98498671886E+02  0.98498671886E+02  0.00000000000E+00 0.  1.
         23    2    1    2    0    0 -0.96219540532E+02  0.70748776356E+02  0.12945689046E+03  0.19835796537E+03  0.91231609662E+02 0.  0.
        254    2    1    2    0    0  0.96219540532E+02 -0.70748776356E+02  0.30418072605E+04  0.31699035293E+04  0.88398720924E+03 0.  0.
         23    2    4    4    0    0  0.47976290685E+03 -0.43856017525E+02  0.18905886623E+04  0.19527878552E+04  0.83421341713E+02 0.  0.
         23    2    4    4    0    0 -0.38354336632E+03 -0.26892758832E+02  0.11512185982E+04  0.12171156741E+04  0.90761055388E+02 0.  0.
          2    1    3    3  502    0 -0.11315056456E+02  0.53532728022E+02  0.18869979247E+02  0.57877971534E+02  0.00000000000E+00 0. -1.
         -2    1    3    3    0  502 -0.84904484075E+02  0.17216048335E+02  0.11058691121E+03  0.14047999383E+03  0.00000000000E+00 0.  1.
         13    1    5    5    0    0  0.30629850702E+03  0.10447220850E+02  0.11359221372E+04  0.11765402762E+04  0.00000000000E+00 0.  1.
        -13    1    5    5    0    0  0.17346439983E+03 -0.54303238375E+02  0.75466652512E+03  0.77624757896E+03  0.00000000000E+00 0. -1.
          3    1    6    6  503    0 -0.95150847378E+02 -0.36371923216E+02  0.38874252855E+03  0.40186733391E+03  0.00000000000E+00 0. -1.
         -3    1    6    6    0  503 -0.28839251894E+03  0.94791643843E+01  0.76247606961E+03  0.81524834024E+03  0.00000000000E+00 0.  1.
<mgrwt>
<rscale>  0 0.11350195E+04</rscale>
<asrwt>0</asrwt>
<pdfrwt beam="1">  1        2 0.50304035E+00 0.11350195E+04</pdfrwt>
<pdfrwt beam="2">  1       -2 0.15153644E-01 0.11350195E+04</pdfrwt>
<totfact> 0.40842232E+01</totfact>
</mgrwt>
</event>
<event>
12    3  0.4769008E-008  0.1723952E+04  0.7818608E-02  0.8747820E-01
          1   -1    0    0  501    0  0.00000000000E+00  0.00000000000E+00  0.12084806804E+04  0.12084806804E+04  0.00000000000E+00 0. -1.
         -1   -1    0    0    0  501 -0.00000000000E+00 -0.00000000000E+00 -0.61482372395E+03  0.61482372395E+03  0.00000000000E+00 0.  1.
         23    2    1    2    0    0  0.48550555784E+03 -0.33259739887E+03 -0.11448590620E+02  0.59536797067E+03  0.89416295205E+02 0.  0.
        254    2    1    2    0    0 -0.48550555784E+03  0.33259739887E+03  0.60510554711E+03  0.12279364337E+04  0.89181751814E+03 0.  0.
         23    2    4    4    0    0  0.18607800105E+03 -0.47218362779E+02 -0.41591407478E+02  0.21721898072E+03  0.92734266319E+02 0.  0.
         23    2    4    4    0    0 -0.67158355890E+03  0.37981576164E+03  0.64669695458E+03  0.10107174530E+04  0.89712481510E+02 0.  0.
          3    1    3    3  502    0  0.23019286156E+03 -0.12931404113E+03  0.32673692052E+02  0.26604218632E+03  0.00000000000E+00 0. -1.
         -3    1    3    3    0  502  0.25531269628E+03 -0.20328335773E+03 -0.44122282673E+02  0.32932578436E+03  0.00000000000E+00 0.  1.
         13    1    5    5    0    0  0.24215422327E+02  0.69584798661E+01 -0.39096880812E+02  0.46512075956E+02  0.00000000000E+00 0. -1.
        -13    1    5    5    0    0  0.16186257873E+03 -0.54176842645E+02 -0.24945266658E+01  0.17070690476E+03  0.00000000000E+00 0.  1.
          2    1    6    6  503    0 -0.45433870342E+03  0.27492442479E+03  0.49346920190E+03  0.72492685838E+03  0.00000000000E+00 0. -1.
         -2    1    6    6    0  503 -0.21724485547E+03  0.10489133685E+03  0.15322775269E+03  0.28579059461E+03  0.00000000000E+00 0.  1.
<mgrwt>
<rscale>  0 0.17239520E+04</rscale>
<asrwt>0</asrwt>
<pdfrwt beam="1">  1        1 0.18592010E+00 0.17239520E+04</pdfrwt>
<pdfrwt beam="2">  1       -1 0.94588265E-01 0.17239520E+04</pdfrwt>
<totfact> 0.10818373E+01</totfact>
</mgrwt>
</event>
<event>
12    3  0.4769008E-008  0.1732177E+04  0.7818608E-02  0.8743222E-01
          3   -1    0    0  501    0  0.00000000000E+00  0.00000000000E+00  0.37118760157E+03  0.37118760157E+03  0.00000000000E+00 0. -1.
         -3   -1    0    0    0  501 -0.00000000000E+00 -0.00000000000E+00 -0.20208362595E+04  0.20208362595E+04  0.00000000000E+00 0.  1.
         23    2    1    2    0    0  0.12311689735E+03  0.73382875836E+02  0.24124541832E+03  0.29504862980E+03  0.91167566646E+02 0.  0.
        254    2    1    2    0    0 -0.12311689735E+03 -0.73382875836E+02 -0.18908940762E+04  0.20969752312E+04  0.89514350583E+03 0.  0.
         23    2    4    4    0    0 -0.36926569013E+03 -0.20929507484E+03 -0.16761267276E+04  0.17313083202E+04  0.88691117712E+02 0.  0.
         23    2    4    4    0    0  0.24614879277E+03  0.13591219900E+03 -0.21476734863E+03  0.36566691104E+03  0.92335918088E+02 0.  0.
          1    1    3    3  502    0  0.10563142432E+03  0.12627269435E+02  0.14332683870E+03  0.17849377700E+03  0.00000000000E+00 0.  1.
         -1    1    3    3    0  502  0.17485473035E+02  0.60755606401E+02  0.97918579621E+02  0.11655485280E+03  0.00000000000E+00 0. -1.
         13    1    5    5    0    0 -0.11037610286E+03 -0.11025906904E+03 -0.56738779577E+03  0.58844613788E+03  0.00000000000E+00 0. -1.
        -13    1    5    5    0    0 -0.25888958726E+03 -0.99036005803E+02 -0.11087389318E+04  0.11428621823E+04  0.00000000000E+00 0.  1.
          3    1    6    6  503    0  0.13980926595E+03  0.30091078581E+02 -0.79252813804E+02  0.16350263714E+03  0.00000000000E+00 0. -1.
         -3    1    6    6    0  503  0.10633952683E+03  0.10582112042E+03 -0.13551453482E+03  0.20216427390E+03  0.00000000000E+00 0.  1.
<mgrwt>
<rscale>  0 0.17321771E+04</rscale>
<asrwt>0</asrwt>
<pdfrwt beam="1">  1        3 0.57105785E-01 0.17321771E+04</pdfrwt>
<pdfrwt beam="2">  1       -3 0.31089789E+00 0.17321771E+04</pdfrwt>
<totfact> 0.24788982E-01</totfact>
</mgrwt>
</event>
<event>
12    3  0.4769008E-008  0.1479651E+04  0.7818608E-02  0.8898099E-01
          2   -1    0    0  501    0  0.00000000000E+00  0.00000000000E+00  0.10730359531E+04  0.10730359531E+04  0.00000000000E+00 0. -1.
         -2   -1    0    0    0  501 -0.00000000000E+00 -0.00000000000E+00 -0.51008682079E+03  0.51008682079E+03  0.00000000000E+00 0.  1.
         23    2    1    2    0    0  0.76449047384E+01  0.47578172529E+02 -0.31251452915E+03  0.32974952456E+03  0.93526953038E+02 0.  0.
        254    2    1    2    0    0 -0.76449047384E+01 -0.47578172529E+02  0.87546366150E+03  0.12533732494E+04  0.89564823038E+03 0.  0.
         23    2    4    4    0    0 -0.14049503628E+03  0.31657458983E+03  0.75774389373E+03  0.83799813809E+03  0.90037463284E+02 0.  0.
         23    2    4    4    0    0  0.13285013154E+03 -0.36415276236E+03  0.11771976777E+03  0.41537511130E+03  0.91772259281E+02 0.  0.
          1    1    3    3  502    0  0.49441008187E+02  0.20272770892E+02 -0.13061087239E+03  0.14111909338E+03  0.00000000000E+00 0. -1.
         -1    1    3    3    0  502 -0.41796103449E+02  0.27305401637E+02 -0.18190365676E+03  0.18863043118E+03  0.00000000000E+00 0.  1.
         13    1    5    5    0    0 -0.12130490998E+03  0.29814025545E+03  0.73712216562E+03  0.80433300328E+03  0.00000000000E+00 0.  1.
        -13    1    5    5    0    0 -0.19190126295E+02  0.18434334385E+02  0.20621728110E+02  0.33665134809E+02  0.00000000000E+00 0. -1.
          2    1    6    6  503    0  0.12119577583E+02  0.20802649000E+01  0.39786682173E+00  0.12303250012E+02  0.00000000000E+00 0. -1.
         -2    1    6    6    0  503  0.12073055396E+03 -0.36623302726E+03  0.11732190095E+03  0.40307186128E+03  0.00000000000E+00 0.  1.
<mgrwt>
<rscale>  0 0.14796506E+04</rscale>
<asrwt>0</asrwt>
<pdfrwt beam="1">  1        2 0.16508245E+00 0.14796506E+04</pdfrwt>
<pdfrwt beam="2">  1       -2 0.78474896E-01 0.14796506E+04</pdfrwt>
<totfact> 0.31631361E+01</totfact>
</mgrwt>
</event>
<event>
12    3  0.4769008E-008  0.3095846E+04  0.7818608E-02  0.8216879E-01
          1   -1    0    0  501    0  0.00000000000E+00  0.00000000000E+00  0.34289167386E+04  0.34289167386E+04  0.00000000000E+00 0. -1.
         -1   -1    0    0    0  501 -0.00000000000E+00 -0.00000000000E+00 -0.69878197576E+03  0.69878197576E+03  0.00000000000E+00 0.  1.
         23    2    1    2    0    0 -0.10010997396E+04 -0.97560653899E+03  0.99366563077E+03  0.17187991887E+04  0.11353615207E+03 0.  0.
        254    2    1    2    0    0  0.10010997396E+04  0.97560653899E+03  0.17364691321E+04  0.24088995256E+04  0.91294198633E+03 0.  0.
         23    2    4    4    0    0 -0.10213872487E+03 -0.59452582338E+02  0.14069895236E+03  0.20786837665E+03  0.97191245238E+02 0.  0.
         23    2    4    4    0    0  0.11032384645E+04  0.10350591213E+04  0.15957701797E+04  0.22010311490E+04  0.97842517332E+02 0.  0.
          3    1    3    3  502    0 -0.94746989078E+03 -0.92921816400E+03  0.97091522867E+03  0.16443302501E+04  0.00000000000E+00 0. -1.
         -3    1    3    3    0  502 -0.53629848809E+02 -0.46388374995E+02  0.22750402097E+02  0.74468938582E+02  0.00000000000E+00 0.  1.
         13    1    5    5    0    0  0.43828496592E+01 -0.12766112311E+02 -0.10508796740E+02  0.17106075049E+02  0.00000000000E+00 0. -1.
        -13    1    5    5    0    0 -0.10652157453E+03 -0.46686470028E+02  0.15120774910E+03  0.19076230160E+03  0.00000000000E+00 0.  1.
          3    1    6    6  503    0  0.11665703514E+03  0.80742370889E+02  0.17880504428E+03  0.22825301348E+03  0.00000000000E+00 0. -1.
         -3    1    6    6    0  503  0.98658142932E+03  0.95431675044E+03  0.14169651354E+04  0.19727781355E+04  0.00000000000E+00 0.  1.
<mgrwt>
<rscale>  0 0.30958457E+04</rscale>
<asrwt>0</asrwt>
<pdfrwt beam="1">  1        1 0.52752564E+00 0.30958457E+04</pdfrwt>
<pdfrwt beam="2">  1       -1 0.10750492E+00 0.30958457E+04</pdfrwt>
<totfact> 0.19300372E-01</totfact>
</mgrwt>
</event>
<event>
12    3  0.4769008E-008  0.1233221E+04  0.7818608E-02  0.9084265E-01
         -2   -1    0    0    0  501 -0.00000000000E+00  0.00000000000E+00  0.12034195083E+03  0.12034195083E+03  0.00000000000E+00 0.  1.
          2   -1    0    0  501    0  0.00000000000E+00 -0.00000000000E+00 -0.31593999288E+04  0.31593999288E+04  0.00000000000E+00 0. -1.
         23    2    1    2    0    0  0.19428785306E+03 -0.14552366763E+03 -0.10928510962E+04  0.11229408640E+04  0.88021348268E+02 0.  0.
        254    2    1    2    0    0 -0.19428785306E+03  0.14552366763E+03 -0.19462068818E+04  0.21568010157E+04  0.89729843807E+03 0.  0.
         23    2    4    4    0    0 -0.52783199507E+03  0.20961476173E+02 -0.13966506727E+04  0.14955994484E+04  0.84490294741E+02 0.  0.
         23    2    4    4    0    0  0.33354414201E+03  0.12456219145E+03 -0.54955620905E+03  0.66120156730E+03  0.91695427866E+02 0.  0.
          3    1    3    3  502    0  0.17849679708E+03 -0.15773578833E+03 -0.10136751352E+04  0.10412871676E+04  0.00000000000E+00 0. -1.
         -3    1    3    3    0  502  0.15791055982E+02  0.12212120701E+02 -0.79175960964E+02  0.81653696399E+02  0.00000000000E+00 0.  1.
         13    1    5    5    0    0 -0.37984404352E+03  0.45349296910E+02 -0.93631352771E+03  0.10114450446E+04  0.00000000000E+00 0. -1.
        -13    1    5    5    0    0 -0.14798795155E+03 -0.24387820737E+02 -0.46033714503E+03  0.48415440378E+03  0.00000000000E+00 0.  1.
          4    1    6    6  503    0  0.17797073928E+03  0.17631823766E+02 -0.27235025167E+03  0.32582069430E+03  0.00000000000E+00 0. -1.
         -4    1    6    6    0  503  0.15557340274E+03  0.10693036769E+03 -0.27720595738E+03  0.33538087301E+03  0.00000000000E+00 0.  1.
<mgrwt>
<rscale>  0 0.12332207E+04</rscale>
<asrwt>0</asrwt>
<pdfrwt beam="1">  1        2 0.48606145E+00 0.12332207E+04</pdfrwt>
<pdfrwt beam="2">  1       -2 0.18514149E-01 0.12332207E+04</pdfrwt>
<totfact> 0.33746479E+01</totfact>
</mgrwt>
</event>
<event>
12    3  0.4769008E-008  0.2141709E+04  0.7818608E-02  0.8543089E-01
          1   -1    0    0  501    0  0.00000000000E+00  0.00000000000E+00  0.75283032369E+03  0.75283032369E+03  0.00000000000E+00 0. -1.
         -1   -1    0    0    0  501 -0.00000000000E+00 -0.00000000000E+00 -0.15232245505E+04  0.15232245505E+04  0.00000000000E+00 0.  1.
         23    2    1    2    0    0  0.72227149160E+03 -0.11135996916E+03 -0.82982301740E+03  0.11097575112E+04  0.94224960890E+02 0.  0.
        254    2    1    2    0    0 -0.72227149160E+03  0.11135996916E+03  0.59428790565E+02  0.11662973630E+04  0.90699537341E+03 0.  0.
         23    2    4    4    0    0 -0.42284187137E+03 -0.36689228053E+03  0.15190314334E+03  0.58723984704E+03  0.91492509496E+02 0.  0.
         23    2    4    4    0    0 -0.29942962023E+03  0.47825224970E+03 -0.92474352777E+02  0.57905751592E+03  0.91502945385E+02 0.  0.
          1    1    3    3  502    0  0.46113381644E+02 -0.76021436591E+01 -0.94584368261E+02  0.10550089703E+03  0.00000000000E+00 0. -1.
         -1    1    3    3    0  502  0.67615810996E+03 -0.10375782551E+03 -0.73523864914E+03  0.10042566142E+04  0.00000000000E+00 0.  1.
         13    1    5    5    0    0 -0.10915043923E+03 -0.13415121101E+03  0.77934001765E+02  0.18969468741E+03  0.00000000000E+00 0.  1.
        -13    1    5    5    0    0 -0.31369143214E+03 -0.23274106953E+03  0.73969141577E+02  0.39754515963E+03  0.00000000000E+00 0. -1.
          1    1    6    6  503    0 -0.13502029843E+03  0.29478668657E+03 -0.69780652427E+02  0.33166098809E+03  0.00000000000E+00 0. -1.
         -1    1    6    6    0  503 -0.16440932180E+03  0.18346556312E+03 -0.22693700350E+02  0.24739652783E+03  0.00000000000E+00 0.  1.
<mgrwt>
<rscale>  0 0.21417093E+04</rscale>
<asrwt>0</asrwt>
<pdfrwt beam="1">  1        1 0.11582005E+00 0.21417093E+04</pdfrwt>
<pdfrwt beam="2">  1       -1 0.23434224E+00 0.21417093E+04</pdfrwt>
<totfact> 0.19709498E+00</totfact>
</mgrwt>
</event>
<event>
12    3  0.4769008E-008  0.1512786E+04  0.7818608E-02  0.8875995E-01
         -1   -1    0    0    0  501 -0.00000000000E+00  0.00000000000E+00  0.93949234267E+03  0.93949234267E+03  0.00000000000E+00 0.  1.
          1   -1    0    0  501    0  0.00000000000E+00 -0.00000000000E+00 -0.60897785593E+03  0.60897785593E+03  0.00000000000E+00 0. -1.
         23    2    1    2    0    0  0.63473252852E+02  0.47911202641E+03  0.51241614796E+02  0.49445694763E+03  0.91020779463E+02 0.  0.
        254    2    1    2    0    0 -0.63473252852E+02 -0.47911202641E+03  0.27927287194E+03  0.10540132510E+04  0.89407684712E+03 0.  0.
         23    2    4    4    0    0  0.33150835012E+03 -0.38079735910E+03  0.36303022494E+03  0.62847453531E+03  0.91021329464E+02 0.  0.
         23    2    4    4    0    0 -0.39498160297E+03 -0.98314667304E+02 -0.83757353004E+02  0.42553871566E+03  0.91606025186E+02 0.  0.
          3    1    3    3  502    0  0.66516382147E+02  0.38650286608E+03  0.81538895749E+01  0.39226952532E+03  0.00000000000E+00 0. -1.
         -3    1    3    3    0  502 -0.30431292950E+01  0.92609160327E+02  0.43087725221E+02  0.10218742230E+03  0.00000000000E+00 0.  1.
         13    1    5    5    0    0  0.32999891786E+03 -0.35742177218E+03  0.32942897409E+03  0.58751430450E+03  0.00000000000E+00 0. -1.
        -13    1    5    5    0    0  0.15094322566E+01 -0.23375586918E+02  0.33601250850E+02  0.40960230812E+02  0.00000000000E+00 0.  1.
          3    1    6    6  503    0 -0.38108656595E+03 -0.79062214072E+02 -0.63539622353E+02  0.39435401361E+03  0.00000000000E+00 0. -1.
         -3    1    6    6    0  503 -0.13895037021E+02 -0.19252453232E+02 -0.20217730651E+02  0.31184702050E+02  0.00000000000E+00 0.  1.
<mgrwt>
<rscale>  0 0.15127856E+04</rscale>
<asrwt>0</asrwt>
<pdfrwt beam="1">  1        1 0.93688901E-01 0.15127856E+04</pdfrwt>
<pdfrwt beam="2">  1       -1 0.14453728E+00 0.15127856E+04</pdfrwt>
<totfact> 0.12482755E+01</totfact>
</mgrwt>
</event>
<event>
12    3  0.4769008E-008  0.1240868E+04  0.7818608E-02  0.9077818E-01
          1   -1    0    0  501    0  0.00000000000E+00  0.00000000000E+00  0.59049358553E+03  0.59049358553E+03  0.00000000000E+00 0. -1.
         -1   -1    0    0    0  501 -0.00000000000E+00 -0.00000000000E+00 -0.65189278747E+03  0.65189278747E+03  0.00000000000E+00 0.  1.
         23    2    1    2    0    0  0.84342101411E+02 -0.17549065968E+03  0.19533715081E+03  0.28927607678E+03  0.87255282961E+02 0.  0.
        254    2    1    2    0    0 -0.84342101411E+02  0.17549065968E+03 -0.25673635275E+03  0.95311029623E+03  0.89699226321E+03 0.  0.
         23    2    4    4    0    0  0.22874668913E+03  0.24727129962E+02  0.23701904933E+03  0.34252889248E+03  0.90617513168E+02 0.  0.
         23    2    4    4    0    0 -0.31308879054E+03  0.15076352972E+03 -0.49375540208E+03  0.61058140375E+03  0.90890158250E+02 0.  0.
          3    1    3    3  502    0  0.81450199135E+02 -0.11910609332E+03  0.18014598628E+03  0.23080938624E+03  0.00000000000E+00 0. -1.
         -3    1    3    3    0  502  0.28919022764E+01 -0.56384566364E+02  0.15191164532E+02  0.58466690539E+02  0.00000000000E+00 0.  1.
         13    1    5    5    0    0  0.60445886159E+02 -0.18084581770E+02  0.23553868920E+02  0.67346432663E+02  0.00000000000E+00 0. -1.
        -13    1    5    5    0    0  0.16830080297E+03  0.42811711732E+02  0.21346518041E+03  0.27518245982E+03  0.00000000000E+00 0.  1.
          3    1    6    6  503    0 -0.33796733273E+02  0.53512593577E+02 -0.80321338149E+02  0.10226110802E+03  0.00000000000E+00 0. -1.
         -3    1    6    6    0  503 -0.27929205727E+03  0.97250936140E+02 -0.41343406393E+03  0.50832029573E+03  0.00000000000E+00 0.  1.
<mgrwt>
<rscale>  0 0.12408683E+04</rscale>
<asrwt>0</asrwt>
<pdfrwt beam="1">  1        1 0.90845167E-01 0.12408683E+04</pdfrwt>
<pdfrwt beam="2">  1       -1 0.10029120E+00 0.12408683E+04</pdfrwt>
<totfact> 0.32763248E+01</totfact>
</mgrwt>
</event>
<event>
12    3  0.4769008E-008  0.2505611E+04  0.7818608E-02  0.8400989E-01
         -2   -1    0    0    0  501 -0.00000000000E+00  0.00000000000E+00  0.94059981307E+03  0.94059981307E+03  0.00000000000E+00 0.  1.
          2   -1    0    0  501    0  0.00000000000E+00 -0.00000000000E+00 -0.16686396309E+04  0.16686396309E+04  0.00000000000E+00 0. -1.
         23    2    1    2    0    0  0.42059924912E+03 -0.98457469926E+03 -0.51549233842E+03  0.11913687491E+04  0.85650911129E+02 0.  0.
        254    2    1    2    0    0 -0.42059924912E+03  0.98457469926E+03 -0.21254747939E+03  0.14178706949E+04  0.90492530606E+03 0.  0.
         23    2    4    4    0    0 -0.20725431778E+03  0.10516411469E+04 -0.36049560007E+03  0.11343056912E+04  0.88254570926E+02 0.  0.
         23    2    4    4    0    0 -0.21334493134E+03 -0.67066447683E+02  0.14794812068E+03  0.28356500363E+03  0.92230671358E+02 0.  0.
          3    1    3    3  502    0  0.34339584197E+03 -0.79233584433E+03 -0.45202993935E+03  0.97470398612E+03  0.00000000000E+00 0. -1.
         -3    1    3    3    0  502  0.77203407143E+02 -0.19223885493E+03 -0.63462399070E+02  0.21666476298E+03  0.00000000000E+00 0.  1.
         13    1    5    5    0    0 -0.22514728238E+02  0.48370233303E+02 -0.33686970838E+02  0.63098371308E+02  0.00000000000E+00 0.  1.
        -13    1    5    5    0    0 -0.18473958954E+03  0.10032709136E+04 -0.32680862923E+03  0.10712073199E+04  0.00000000000E+00 0. -1.
          3    1    6    6  503    0 -0.94638396078E+02  0.17395201213E+01  0.21691741870E+02  0.97108102689E+02  0.00000000000E+00 0. -1.
         -3    1    6    6    0  503 -0.11870653526E+03 -0.68805967804E+02  0.12625637881E+03  0.18645690094E+03  0.00000000000E+00 0.  1.
<mgrwt>
<rscale>  0 0.25056114E+04</rscale>
<asrwt>0</asrwt>
<pdfrwt beam="1">  1        2 0.25671378E+00 0.25056114E+04</pdfrwt>
<pdfrwt beam="2">  1       -2 0.14470767E+00 0.25056114E+04</pdfrwt>
<totfact> 0.29986565E+00</totfact>
</mgrwt>
</event>
<event>
12    3  0.4769008E-008  0.2641773E+04  0.7818608E-02  0.8354149E-01
          2   -1    0    0  501    0  0.00000000000E+00  0.00000000000E+00  0.91682575536E+03  0.91682575536E+03  0.00000000000E+00 0. -1.
         -2   -1    0    0    0  501 -0.00000000000E+00 -0.00000000000E+00 -0.19030232242E+04  0.19030232242E+04  0.00000000000E+00 0.  1.
         23    2    1    2    0    0  0.98665041021E+03  0.28772470418E+03  0.15027471663E+03  0.10426365833E+04  0.90796569378E+02 0.  0.
        254    2    1    2    0    0 -0.98665041021E+03 -0.28772470418E+03 -0.11364721855E+04  0.17772123962E+04  0.90036122512E+03 0.  0.
         23    2    4    4    0    0 -0.79511263529E+03  0.18162527057E+03 -0.50931273853E+03  0.96553459261E+03  0.87554224281E+02 0.  0.
         23    2    4    4    0    0 -0.19153777492E+03 -0.46934997475E+03 -0.62715944693E+03  0.81167780364E+03  0.92280913667E+02 0.  0.
          1    1    3    3  502    0  0.61885167850E+03  0.21558089654E+03  0.12360610017E+03  0.66688154191E+03  0.00000000000E+00 0. -1.
         -1    1    3    3    0  502  0.36779873171E+03  0.72143807644E+02  0.26668616457E+02  0.37575504139E+03  0.00000000000E+00 0.  1.
         13    1    5    5    0    0 -0.76631576574E+02 -0.49262242121E+01 -0.33184520482E+02  0.83653323979E+02  0.00000000000E+00 0.  1.
        -13    1    5    5    0    0 -0.71848105872E+03  0.18655149478E+03 -0.47612821804E+03  0.88188126863E+03  0.00000000000E+00 0. -1.
          3    1    6    6  503    0 -0.17537302920E+03 -0.34949004636E+03 -0.51589633718E+03  0.64733918666E+03  0.00000000000E+00 0. -1.
         -3    1    6    6    0  503 -0.16164745718E+02 -0.11985992839E+03 -0.11126310975E+03  0.16433861698E+03  0.00000000000E+00 0.  1.
<mgrwt>
<rscale>  0 0.26417727E+04</rscale>
<asrwt>0</asrwt>
<pdfrwt beam="1">  1        2 0.14105012E+00 0.26417727E+04</pdfrwt>
<pdfrwt beam="2">  1       -2 0.29277280E+00 0.26417727E+04</pdfrwt>
<totfact> 0.88612924E-01</totfact>
</mgrwt>
</event>
<event>
12    3  0.4769008E-008  0.1626547E+04  0.7818608E-02  0.8804403E-01
          1   -1    0    0  501    0  0.00000000000E+00  0.00000000000E+00  0.17562324287E+04  0.17562324287E+04  0.00000000000E+00 0. -1.
         -1   -1    0    0    0  501 -0.00000000000E+00 -0.00000000000E+00 -0.37660963192E+03  0.37660963192E+03  0.00000000000E+00 0.  1.
         23    2    1    2    0    0 -0.39884691145E+03 -0.18939616131E+03  0.96855771951E+03  0.10678250938E+04  0.84832836799E+02 0.  0.
        254    2    1    2    0    0  0.39884691145E+03  0.18939616131E+03  0.41106507731E+03  0.10650169669E+04  0.87768837138E+03 0.  0.
         23    2    4    4    0    0  0.35814296644E+03  0.48885373176E+03  0.43072601510E+03  0.74897188676E+03  0.90496583416E+02 0.  0.
         23    2    4    4    0    0  0.40703945003E+02 -0.29945757045E+03 -0.19660937789E+02  0.31604508011E+03  0.90367541451E+02 0.  0.
          1    1    3    3  502    0 -0.16265529709E+03 -0.10589911568E+03  0.50295369469E+03  0.53910461636E+03  0.00000000000E+00 0.  1.
         -1    1    3    3    0  502 -0.23619161436E+03 -0.83497045623E+02  0.46560402482E+03  0.52872047743E+03  0.00000000000E+00 0. -1.
         13    1    5    5    0    0  0.80439002177E+02  0.10207863812E+03  0.14029062664E+03  0.19123791819E+03  0.00000000000E+00 0. -1.
        -13    1    5    5    0    0  0.27770396427E+03  0.38677509363E+03  0.29043538847E+03  0.55773396857E+03  0.00000000000E+00 0.  1.
          3    1    6    6  503    0 -0.27417983247E+02 -0.79516579944E+02 -0.16832772603E+02  0.85778636762E+02  0.00000000000E+00 0. -1.
         -3    1    6    6    0  503  0.68121928250E+02 -0.21994099051E+03 -0.28281651866E+01  0.23026644335E+03  0.00000000000E+00 0.  1.
<mgrwt>
<rscale>  0 0.16265473E+04</rscale>
<asrwt>0</asrwt>
<pdfrwt beam="1">  1        1 0.27018960E+00 0.16265473E+04</pdfrwt>
<pdfrwt beam="2">  1       -1 0.57939944E-01 0.16265473E+04</pdfrwt>
<totfact> 0.12607282E+01</totfact>
</mgrwt>
</event>
<event>
12    3  0.4769008E-008  0.1246462E+04  0.7818608E-02  0.9073133E-01
          1   -1    0    0  501    0  0.00000000000E+00  0.00000000000E+00  0.18891318221E+04  0.18891318221E+04  0.00000000000E+00 0.  1.
         -1   -1    0    0    0  501 -0.00000000000E+00 -0.00000000000E+00 -0.20560606620E+03  0.20560606620E+03  0.00000000000E+00 0. -1.
         23    2    1    2    0    0  0.50781827712E+02 -0.10731920363E+03 -0.33003404660E+02  0.15384710855E+03  0.92105931376E+02 0.  0.
        254    2    1    2    0    0 -0.50781827712E+02  0.10731920363E+03  0.17165291605E+04  0.19408907797E+04  0.89804702237E+03 0.  0.
         23    2    4    4    0    0 -0.22301903460E+03 -0.23284606391E+03  0.13934544640E+04  0.14330288631E+04  0.88890944986E+02 0.  0.
         23    2    4    4    0    0  0.17223720689E+03  0.34016526754E+03  0.32307469656E+03  0.50786191661E+03  0.90379212777E+02 0.  0.
          2    1    3    3  502    0 -0.13413275666E+02  0.45787010884E+01  0.10572042628E+02  0.17681870746E+02  0.00000000000E+00 0.  1.
         -2    1    3    3    0  502  0.64195103378E+02 -0.11189790472E+03 -0.43575447287E+02  0.13616523780E+03  0.00000000000E+00 0. -1.
         13    1    5    5    0    0 -0.21433883041E+03 -0.18314544056E+03  0.11185253368E+04  0.11535086977E+04  0.00000000000E+00 0.  1.
        -13    1    5    5    0    0 -0.86802041925E+01 -0.49700623345E+02  0.27492912716E+03  0.27952016540E+03  0.00000000000E+00 0. -1.
          3    1    6    6  503    0  0.13862909348E+03  0.32475721625E+03  0.27702800410E+03  0.44880930262E+03  0.00000000000E+00 0.  1.
         -3    1    6    6    0  503  0.33608113415E+02  0.15408051292E+02  0.46046692457E+02  0.59052613982E+02  0.00000000000E+00 0. -1.
<mgrwt>
<rscale>  0 0.12464621E+04</rscale>
<asrwt>0</asrwt>
<pdfrwt beam="1">  1        1 0.29063565E+00 0.12464621E+04</pdfrwt>
<pdfrwt beam="2">  1       -1 0.31631704E-01 0.12464621E+04</pdfrwt>
<totfact> 0.32519706E+01</totfact>
</mgrwt>
</event>
<event>
12    3  0.4769008E-008  0.1255994E+04  0.7818608E-02  0.9065210E-01
          1   -1    0    0  501    0  0.00000000000E+00  0.00000000000E+00  0.81188901618E+03  0.81188901618E+03  0.00000000000E+00 0. -1.
         -1   -1    0    0    0  501 -0.00000000000E+00 -0.00000000000E+00 -0.48575595132E+03  0.48575595132E+03  0.00000000000E+00 0.  1.
         23    2    1    2    0    0  0.16346017884E+03 -0.15774154547E+03  0.27971905184E+03  0.37064348359E+03  0.86788355966E+02 0.  0.
        254    2    1    2    0    0 -0.16346017884E+03  0.15774154547E+03  0.46414013027E+02  0.92700148391E+03  0.89753878208E+03 0.  0.
         23    2    4    4    0    0 -0.75164317286E+02 -0.38831211824E+02 -0.40300586462E+03  0.42134405418E+03  0.89216296000E+02 0.  0.
         23    2    4    4    0    0 -0.88295861558E+02  0.19657275729E+03  0.44941987765E+03  0.50565742973E+03  0.85288930911E+02 0.  0.
          2    1    3    3  502    0  0.99781835293E+02 -0.14463730252E+03  0.22622984570E+03  0.28645472072E+03  0.00000000000E+00 0. -1.
         -2    1    3    3    0  502  0.63678343551E+02 -0.13104242944E+02  0.53489206136E+02  0.84188762870E+02  0.00000000000E+00 0.  1.
         13    1    5    5    0    0 -0.71947576280E+02 -0.43759027593E+02 -0.18505981666E+03  0.20331857262E+03  0.00000000000E+00 0. -1.
        -13    1    5    5    0    0 -0.32167410061E+01  0.49278157686E+01 -0.21794604796E+03  0.21802548156E+03  0.00000000000E+00 0.  1.
          1    1    6    6  503    0 -0.11113055032E+02  0.12800549409E+03  0.24520715820E+03  0.27683109822E+03  0.00000000000E+00 0. -1.
         -1    1    6    6    0  503 -0.77182806526E+02  0.68567263195E+02  0.20421271945E+03  0.22882633150E+03  0.00000000000E+00 0.  1.
<mgrwt>
<rscale>  0 0.12559935E+04</rscale>
<asrwt>0</asrwt>
<pdfrwt beam="1">  1        1 0.12490600E+00 0.12559935E+04</pdfrwt>
<pdfrwt beam="2">  1       -1 0.74731684E-01 0.12559935E+04</pdfrwt>
<totfact> 0.38348789E+01</totfact>
</mgrwt>
</event>
<event>
12    3  0.4769008E-008  0.1869868E+04  0.7818608E-02  0.8670002E-01
          2   -1    0    0  501    0  0.00000000000E+00  0.00000000000E+00  0.23964059121E+04  0.23964059121E+04  0.00000000000E+00 0. -1.
         -2   -1    0    0    0  501 -0.00000000000E+00 -0.00000000000E+00 -0.36475518837E+03  0.36475518837E+03  0.00000000000E+00 0.  1.
         23    2    1    2    0    0 -0.57420280439E+03 -0.40477401997E+02  0.16013619218E+03  0.60455908243E+03  0.92199801855E+02 0.  0.
        254    2    1    2    0    0  0.57420280439E+03  0.40477401997E+02  0.18715145315E+04  0.21566020180E+04  0.90389066914E+03 0.  0.
         23    2    4    4    0    0  0.24658246085E+03 -0.21257190230E+03  0.16384299586E+04  0.16729300301E+04  0.90842901384E+02 0.  0.
         23    2    4    4    0    0  0.32762034355E+03  0.25304930430E+03  0.23308457290E+03  0.48367198789E+03  0.90780690876E+02 0.  0.
          1    1    3    3  502    0 -0.58174008115E+02 -0.28349143866E+02  0.34423049851E+02  0.73299628507E+02  0.00000000000E+00 0. -1.
         -1    1    3    3    0  502 -0.51602879628E+03 -0.12128258131E+02  0.12571314233E+03  0.53125945393E+03  0.00000000000E+00 0.  1.
         13    1    5    5    0    0  0.12544986234E+03 -0.11701876420E+03  0.63752549629E+03  0.66020437559E+03  0.00000000000E+00 0. -1.
        -13    1    5    5    0    0  0.12113259851E+03 -0.95553138103E+02  0.10009044623E+04  0.10127256545E+04  0.00000000000E+00 0.  1.
          4    1    6    6  503    0  0.18314678541E+03  0.17488588229E+03  0.10000358593E+03  0.27226555793E+03  0.00000000000E+00 0. -1.
         -4    1    6    6    0  503  0.14447355813E+03  0.78163422009E+02  0.13308098697E+03  0.21140642997E+03  0.00000000000E+00 0.  1.
<mgrwt>
<rscale>  0 0.18698679E+04</rscale>
<asrwt>0</asrwt>
<pdfrwt beam="1">  1        2 0.36867782E+00 0.18698679E+04</pdfrwt>
<pdfrwt beam="2">  1       -2 0.56116184E-01 0.18698679E+04</pdfrwt>
<totfact> 0.11187051E+01</totfact>
</mgrwt>
</event>
<event>
12    3  0.4769008E-008  0.1168843E+04  0.7818608E-02  0.9140574E-01
          1   -1    0    0  501    0  0.00000000000E+00  0.00000000000E+00  0.72181612297E+03  0.72181612297E+03  0.00000000000E+00 0. -1.
         -1   -1    0    0    0  501 -0.00000000000E+00 -0.00000000000E+00 -0.47317934584E+03  0.47317934584E+03  0.00000000000E+00 0.  1.
         23    2    1    2    0    0 -0.66303111577E+02  0.76828693876E+02  0.25333772829E+03  0.28787465859E+03  0.91613665331E+02 0.  0.
        254    2    1    2    0    0  0.66303111577E+02 -0.76828693876E+02 -0.47009511568E+01  0.90712081023E+03  0.90141406391E+03 0.  0.
         23    2    4    4    0    0 -0.32317475069E+03 -0.25207289552E+03  0.14682899935E+03  0.44464318823E+03  0.90366728659E+02 0.  0.
         23    2    4    4    0    0  0.38947786226E+03  0.17524420165E+03 -0.15152995051E+03  0.46247762200E+03  0.92307581205E+02 0.  0.
          2    1    3    3  502    0 -0.57597058556E+02  0.88446364867E+02  0.14936718698E+03  0.18289542684E+03  0.00000000000E+00 0. -1.
         -2    1    3    3    0  502 -0.87060530212E+01 -0.11617670991E+02  0.10397054131E+03  0.10497923175E+03  0.00000000000E+00 0.  1.
         13    1    5    5    0    0 -0.13395297907E+03 -0.51878387257E+02  0.61525153143E+02  0.15626935763E+03  0.00000000000E+00 0. -1.
        -13    1    5    5    0    0 -0.18922177162E+03 -0.20019450827E+03  0.85303846209E+02  0.28837383060E+03  0.00000000000E+00 0.  1.
          3    1    6    6  503    0  0.23997738402E+03  0.75292731146E+02 -0.51625104311E+02  0.25675531464E+03  0.00000000000E+00 0. -1.
         -3    1    6    6    0  503  0.14950047825E+03  0.99951470501E+02 -0.99904846197E+02  0.20572230736E+03  0.00000000000E+00 0.  1.
<mgrwt>
<rscale>  0 0.11688430E+04</rscale>
<asrwt>0</asrwt>
<pdfrwt beam="1">  1        1 0.11104863E+00 0.11688430E+04</pdfrwt>
<pdfrwt beam="2">  1       -1 0.72796822E-01 0.11688430E+04</pdfrwt>
<totfact> 0.49074120E+01</totfact>
</mgrwt>
</event>
<event>
12    3  0.4769008E-008  0.3089219E+04  0.7818608E-02  0.8218703E-01
         -2   -1    0    0    0  501 -0.00000000000E+00  0.00000000000E+00  0.79128141071E+03  0.79128141071E+03  0.00000000000E+00 0.  1.
          2   -1    0    0  501    0  0.00000000000E+00 -0.00000000000E+00 -0.30151335737E+04  0.30151335737E+04  0.00000000000E+00 0. -1.
         23    2    1    2    0    0  0.27466996022E+03  0.60660796569E+03 -0.25496375826E+04  0.26367051423E+04  0.90251834261E+02 0.  0.
        254    2    1    2    0    0 -0.27466996022E+03 -0.60660796569E+03  0.32578541963E+03  0.11697098421E+04  0.90480283157E+03 0.  0.
         23    2    4    4    0    0 -0.35676344305E+03 -0.65911805517E+03 -0.63804020713E+02  0.75768447667E+03  0.91093623176E+02 0.  0.
         23    2    4    4    0    0  0.82093482836E+02  0.52510089473E+02  0.38958944035E+03  0.41202536545E+03  0.92132080859E+02 0.  0.
          3    1    3    3  502    0  0.23231072008E+03  0.51151553964E+03 -0.22648685516E+04  0.23335050834E+04  0.00000000000E+00 0. -1.
         -3    1    3    3    0  502  0.42359240140E+02  0.95092426051E+02 -0.28476903097E+03  0.30320005890E+03  0.00000000000E+00 0.  1.
         13    1    5    5    0    0 -0.23004295595E+03 -0.33039704066E+03 -0.40141484513E+02  0.40459029257E+03  0.00000000000E+00 0. -1.
        -13    1    5    5    0    0 -0.12672048710E+03 -0.32872101451E+03 -0.23662536199E+02  0.35309418410E+03  0.00000000000E+00 0.  1.
          1    1    6    6  503    0  0.80336879570E+02  0.76398857657E+01  0.31306515859E+03  0.32329889514E+03  0.00000000000E+00 0. -1.
         -1    1    6    6    0  503  0.17566032659E+01  0.44870203707E+02  0.76524281756E+02  0.88726470312E+02  0.00000000000E+00 0.  1.
<mgrwt>
<rscale>  0 0.30892194E+04</rscale>
<asrwt>0</asrwt>
<pdfrwt beam="1">  1        2 0.46386672E+00 0.30892194E+04</pdfrwt>
<pdfrwt beam="2">  1       -2 0.12173560E+00 0.30892194E+04</pdfrwt>
<totfact> 0.74112729E-01</totfact>
</mgrwt>
</event>
<event>
12    3  0.4769008E-008  0.1881262E+04  0.7818608E-02  0.8664240E-01
          2   -1    0    0  501    0  0.00000000000E+00  0.00000000000E+00  0.20030228973E+04  0.20030228973E+04  0.00000000000E+00 0. -1.
         -2   -1    0    0    0  501 -0.00000000000E+00 -0.00000000000E+00 -0.44172578501E+03  0.44172578501E+03  0.00000000000E+00 0.  1.
         23    2    1    2    0    0 -0.29410688882E+03 -0.22823582855E+03  0.14118718824E+04  0.14629745994E+04  0.91225055116E+02 0.  0.
        254    2    1    2    0    0  0.29410688882E+03  0.22823582855E+03  0.14942522990E+03  0.98177408293E+03  0.89608146677E+03 0.  0.
         23    2    4    4    0    0  0.42971725491E+03  0.49067581470E+03  0.88537067246E+02  0.66484178660E+03  0.93574113054E+02 0.  0.
         23    2    4    4    0    0 -0.13561036608E+03 -0.26243998616E+03  0.60888162657E+02  0.31693229633E+03  0.97333418618E+02 0.  0.
          1    1    3    3  502    0 -0.26447473495E+03 -0.22588789078E+03  0.13534439946E+04  0.13974200768E+04  0.00000000000E+00 0. -1.
         -1    1    3    3    0  502 -0.29632153869E+02 -0.23479377623E+01  0.58427887764E+02  0.65554522523E+02  0.00000000000E+00 0.  1.
         13    1    5    5    0    0  0.42967650160E+03  0.49445345820E+03  0.88806909697E+02  0.66105429850E+03  0.00000000000E+00 0. -1.
        -13    1    5    5    0    0  0.40753307155E-01 -0.37776434933E+01 -0.26984245112E+00  0.37874881047E+01  0.00000000000E+00 0.  1.
          1    1    6    6  503    0 -0.14343381126E+03 -0.23191072381E+03  0.74387619700E+02  0.28264705906E+03  0.00000000000E+00 0. -1.
         -1    1    6    6    0  503  0.78234451786E+01 -0.30529262349E+02 -0.13499457043E+02  0.34285237267E+02  0.00000000000E+00 0.  1.
<mgrwt>
<rscale>  0 0.18812622E+04</rscale>
<asrwt>0</asrwt>
<pdfrwt beam="1">  1        2 0.30815736E+00 0.18812622E+04</pdfrwt>
<pdfrwt beam="2">  1       -2 0.67957814E-01 0.18812622E+04</pdfrwt>
<totfact> 0.12377306E+01</totfact>
</mgrwt>
</event>
<event>
12    3  0.4769008E-008  0.1384278E+04  0.7818608E-02  0.8965279E-01
          1   -1    0    0  501    0  0.00000000000E+00  0.00000000000E+00  0.10572106065E+04  0.10572106065E+04  0.00000000000E+00 0. -1.
         -1   -1    0    0    0  501 -0.00000000000E+00 -0.00000000000E+00 -0.45313213065E+03  0.45313213065E+03  0.00000000000E+00 0.  1.
         23    2    1    2    0    0 -0.10935963635E+03 -0.34742981766E+03 -0.19953124487E+02  0.37584454455E+03  0.90520639797E+02 0.  0.
        254    2    1    2    0    0  0.10935963635E+03  0.34742981766E+03  0.62403160035E+03  0.11344981926E+04  0.87464490082E+03 0.  0.
         23    2    4    4    0    0 -0.35181912233E+03  0.30580276927E+03  0.32238001953E+03  0.57425768252E+03  0.92471511361E+02 0.  0.
         23    2    4    4    0    0  0.46117875869E+03  0.41627048389E+02  0.30165158082E+03  0.56024051008E+03  0.91962461389E+02 0.  0.
          1    1    3    3  502    0 -0.75873451756E+02 -0.17746181546E+03 -0.51514097987E+02  0.19975780065E+03  0.00000000000E+00 0. -1.
         -1    1    3    3    0  502 -0.33486184599E+02 -0.16996800220E+03  0.31560973500E+02  0.17608674390E+03  0.00000000000E+00 0.  1.
         13    1    5    5    0    0 -0.67254604988E+02  0.11290925280E+03  0.86407839499E+02  0.15728317134E+03  0.00000000000E+00 0. -1.
        -13    1    5    5    0    0 -0.28456451734E+03  0.19289351647E+03  0.23597218003E+03  0.41697451118E+03  0.00000000000E+00 0.  1.
          4    1    6    6  503    0  0.27744645434E+02  0.17670285276E+02  0.45695327751E+02  0.56303350791E+02  0.00000000000E+00 0. -1.
         -4    1    6    6    0  503  0.43343411325E+03  0.23956763113E+02  0.25595625307E+03  0.50393715929E+03  0.00000000000E+00 0.  1.
<mgrwt>
<rscale>  0 0.13842776E+04</rscale>
<asrwt>0</asrwt>
<pdfrwt beam="1">  1        1 0.16264779E+00 0.13842776E+04</pdfrwt>
<pdfrwt beam="2">  1       -1 0.69712636E-01 0.13842776E+04</pdfrwt>
<totfact> 0.27760290E+01</totfact>
</mgrwt>
</event>
<event>
12    3  0.4769008E-008  0.1852333E+04  0.7818608E-02  0.8678954E-01
          2   -1    0    0  501    0  0.00000000000E+00  0.00000000000E+00  0.13015315918E+04  0.13015315918E+04  0.00000000000E+00 0. -1.
         -2   -1    0    0    0  501 -0.00000000000E+00 -0.00000000000E+00 -0.65905757610E+03  0.65905757610E+03  0.00000000000E+00 0.  1.
         23    2    1    2    0    0  0.54032216076E+03  0.40203299338E+03  0.32531118694E+02  0.68120780259E+03  0.96990883318E+02 0.  0.
        254    2    1    2    0    0 -0.54032216076E+03 -0.40203299338E+03  0.60994289703E+03  0.12793813653E+04  0.90067073625E+03 0.  0.
         23    2    4    4    0    0 -0.11270573574E+03 -0.51977146030E+03  0.25261891478E+02  0.53997971281E+03  0.89860855045E+02 0.  0.
         23    2    4    4    0    0 -0.42761642501E+03  0.11773846692E+03  0.58468100555E+03  0.73940165252E+03  0.90248390345E+02 0.  0.
          1    1    3    3  502    0  0.70242740537E+02  0.23028046334E+02 -0.15268819010E+02  0.75481589478E+02  0.00000000000E+00 0. -1.
         -1    1    3    3    0  502  0.47007942022E+03  0.37900494705E+03  0.47799937704E+02  0.60572621311E+03  0.00000000000E+00 0.  1.
         13    1    5    5    0    0 -0.45596298731E+02 -0.63315270986E+02  0.39612023319E+01  0.78125137580E+02  0.00000000000E+00 0. -1.
        -13    1    5    5    0    0 -0.67109437014E+02 -0.45645618932E+03  0.21300689146E+02  0.46185457523E+03  0.00000000000E+00 0.  1.
          3    1    6    6  503    0 -0.23368564614E+03  0.29998334995E+02  0.25695779961E+03  0.34862041261E+03  0.00000000000E+00 0. -1.
         -3    1    6    6    0  503 -0.19393077888E+03  0.87740131928E+02  0.32772320594E+03  0.39078123990E+03  0.00000000000E+00 0.  1.
<mgrwt>
<rscale>  0 0.18523329E+04</rscale>
<asrwt>0</asrwt>
<pdfrwt beam="1">  1        2 0.20023563E+00 0.18523329E+04</pdfrwt>
<pdfrwt beam="2">  1       -2 0.10139347E+00 0.18523329E+04</pdfrwt>
<totfact> 0.12398014E+01</totfact>
</mgrwt>
</event>
<event>
12    3  0.4769008E-008  0.2375557E+04  0.7818608E-02  0.8448712E-01
         -1   -1    0    0    0  501 -0.00000000000E+00  0.00000000000E+00  0.86011393875E+03  0.86011393875E+03  0.00000000000E+00 0.  1.
          1   -1    0    0  501    0  0.00000000000E+00 -0.00000000000E+00 -0.16402689248E+04  0.16402689248E+04  0.00000000000E+00 0. -1.
         23    2    1    2    0    0  0.20682409215E+03 -0.12315291167E+03 -0.13446859308E+04  0.13691857652E+04  0.92447621027E+02 0.  0.
        254    2    1    2    0    0 -0.20682409215E+03  0.12315291167E+03  0.56453094471E+03  0.11311970983E+04  0.95024672739E+03 0.  0.
         23    2    4    4    0    0 -0.96424363016E+02  0.51015496026E+03  0.15258319753E+03  0.54850867790E+03  0.89578994742E+02 0.  0.
         23    2    4    4    0    0 -0.11039972913E+03 -0.38700204860E+03  0.41194774718E+03  0.58268842039E+03  0.88691392160E+02 0.  0.
          1    1    3    3  502    0  0.21053550394E+03 -0.12567692524E+03 -0.13413946569E+04  0.13636200033E+04  0.00000000000E+00 0. -1.
         -1    1    3    3    0  502 -0.37114117953E+01  0.25240135710E+01 -0.32912738699E+01  0.55657619162E+01  0.00000000000E+00 0.  1.
         13    1    5    5    0    0  0.15998766242E+02  0.10800059262E+03  0.36119266508E+02  0.11499865190E+03  0.00000000000E+00 0. -1.
        -13    1    5    5    0    0 -0.11242312926E+03  0.40215436765E+03  0.11646393102E+03  0.43351002600E+03  0.00000000000E+00 0.  1.
          1    1    6    6  503    0 -0.20775097428E+02 -0.23310994303E+02  0.65056161934E+02  0.72161702683E+02  0.00000000000E+00 0. -1.
         -1    1    6    6    0  503 -0.89624631702E+02 -0.36369105430E+03  0.34689158524E+03  0.51052671771E+03  0.00000000000E+00 0.  1.
<mgrwt>
<rscale>  0 0.23755573E+04</rscale>
<asrwt>0</asrwt>
<pdfrwt beam="1">  1        1 0.25234906E+00 0.23755573E+04</pdfrwt>
<pdfrwt beam="2">  1       -1 0.13232522E+00 0.23755573E+04</pdfrwt>
<totfact> 0.22796537E+00</totfact>
</mgrwt>
</event>
<event>
12    3  0.4769008E-008  0.1185285E+04  0.7818608E-02  0.9125835E-01
         -1   -1    0    0    0  501 -0.00000000000E+00  0.00000000000E+00  0.11111319778E+03  0.11111319778E+03  0.00000000000E+00 0.  1.
          1   -1    0    0  501    0  0.00000000000E+00 -0.00000000000E+00 -0.31609674338E+04  0.31609674338E+04  0.00000000000E+00 0. -1.
         23    2    1    2    0    0 -0.53629843168E+02  0.21438376280E+03 -0.41317882398E+03  0.47726807624E+03  0.90727714502E+02 0.  0.
        254    2    1    2    0    0  0.53629843168E+02 -0.21438376280E+03 -0.26366754120E+04  0.27948125553E+04  0.90004635060E+03 0.  0.
         23    2    4    4    0    0 -0.36553716482E+03 -0.29365019879E+03 -0.15999104371E+04  0.16696462171E+04  0.90317359632E+02 0.  0.
         23    2    4    4    0    0  0.41916700799E+03  0.79266435989E+02 -0.10367649749E+04  0.11251663382E+04  0.95569487669E+02 0.  0.
          2    1    3    3  502    0 -0.47928547907E+01  0.35479620674E+02 -0.15687497350E+03  0.16090845923E+03  0.00000000000E+00 0. -1.
         -2    1    3    3    0  502 -0.48836988377E+02  0.17890414212E+03 -0.25630385048E+03  0.31635961701E+03  0.00000000000E+00 0.  1.
         13    1    5    5    0    0 -0.27177712686E+03 -0.16443062968E+03 -0.10872883324E+04  0.11327383442E+04  0.00000000000E+00 0. -1.
        -13    1    5    5    0    0 -0.93760037963E+02 -0.12921956910E+03 -0.51262210476E+03  0.53690787296E+03  0.00000000000E+00 0.  1.
          4    1    6    6  503    0  0.30071386771E+03  0.23481687451E+02 -0.79366679965E+03  0.84905076924E+03  0.00000000000E+00 0. -1.
         -4    1    6    6    0  503  0.11845314028E+03  0.55784748537E+02 -0.24309817525E+03  0.27611556896E+03  0.00000000000E+00 0.  1.
<mgrwt>
<rscale>  0 0.11852851E+04</rscale>
<asrwt>0</asrwt>
<pdfrwt beam="1">  1        1 0.48630267E+00 0.11852851E+04</pdfrwt>
<pdfrwt beam="2">  1       -1 0.17094339E-01 0.11852851E+04</pdfrwt>
<totfact> 0.12161282E+01</totfact>
</mgrwt>
</event>
<event>
12    3  0.4769008E-008  0.1301666E+04  0.7818608E-02  0.9028245E-01
          3   -1    0    0  501    0  0.00000000000E+00  0.00000000000E+00  0.88471214128E+03  0.88471214128E+03  0.00000000000E+00 0. -1.
         -3   -1    0    0    0  501 -0.00000000000E+00 -0.00000000000E+00 -0.47878094892E+03  0.47878094892E+03  0.00000000000E+00 0.  1.
         23    2    1    2    0    0  0.25341632163E+03 -0.84548942965E+02  0.30069926682E+03  0.41282398180E+03  0.92925965463E+02 0.  0.
        254    2    1    2    0    0 -0.25341632163E+03  0.84548942965E+02  0.10523192554E+03  0.95066910840E+03  0.90627238713E+03 0.  0.
         23    2    4    4    0    0 -0.15717589830E+03  0.21639806164E+03 -0.35570629609E+03  0.45435134713E+03  0.91519361213E+02 0.  0.
         23    2    4    4    0    0 -0.96240423337E+02 -0.13184911867E+03  0.46093822163E+03  0.49631776126E+03  0.84975683632E+02 0.  0.
          2    1    3    3  502    0  0.18379483213E+03 -0.19310391315E+02  0.22407836753E+03  0.29045575623E+03  0.00000000000E+00 0. -1.
         -2    1    3    3    0  502  0.69621489503E+02 -0.65238551650E+02  0.76620899289E+02  0.12236822557E+03  0.00000000000E+00 0.  1.
         13    1    5    5    0    0 -0.61431202247E+02  0.15704194626E+03 -0.23503248271E+03  0.28926844526E+03  0.00000000000E+00 0. -1.
        -13    1    5    5    0    0 -0.95744696051E+02  0.59356115374E+02 -0.12067381338E+03  0.16508290187E+03  0.00000000000E+00 0.  1.
          3    1    6    6  503    0 -0.11088988279E+03 -0.12421041043E+03  0.40229856973E+03  0.43539514395E+03  0.00000000000E+00 0. -1.
         -3    1    6    6    0  503  0.14649459456E+02 -0.76387082403E+01  0.58639651896E+02  0.60922617314E+02  0.00000000000E+00 0.  1.
<mgrwt>
<rscale>  0 0.13016656E+04</rscale>
<asrwt>0</asrwt>
<pdfrwt beam="1">  1        3 0.13610956E+00 0.13016656E+04</pdfrwt>
<pdfrwt beam="2">  1       -3 0.73658607E-01 0.13016656E+04</pdfrwt>
<totfact> 0.18599370E+00</totfact>
</mgrwt>
</event>
<event>
12    3  0.4769008E-008  0.1449486E+04  0.7818608E-02  0.8918757E-01
          1   -1    0    0  501    0  0.00000000000E+00  0.00000000000E+00  0.33683119095E+03  0.33683119095E+03  0.00000000000E+00 0. -1.
         -1   -1    0    0    0  501 -0.00000000000E+00 -0.00000000000E+00 -0.15593928295E+04  0.15593928295E+04  0.00000000000E+00 0.  1.
         23    2    1    2    0    0  0.36129151744E+03  0.15507356739E+03 -0.63896114855E+03  0.75567571308E+03  0.90526582258E+02 0.  0.
        254    2    1    2    0    0 -0.36129151744E+03 -0.15507356739E+03 -0.58360048997E+03  0.11405483073E+04  0.89759764796E+03 0.  0.
         23    2    4    4    0    0  0.67397385613E+02  0.31014734988E+03 -0.12789597256E+03  0.35532974378E+03  0.95749991106E+02 0.  0.
         23    2    4    4    0    0 -0.42868890305E+03 -0.46522091727E+03 -0.45570451741E+03  0.78521856356E+03  0.93257213674E+02 0.  0.
          4    1    3    3  502    0  0.34883780371E+03  0.16120875386E+03 -0.63310860238E+03  0.74060959893E+03  0.00000000000E+00 0.  1.
         -4    1    3    3    0  502  0.12453713737E+02 -0.61351864681E+01 -0.58525461696E+01  0.15066114147E+02  0.00000000000E+00 0. -1.
         13    1    5    5    0    0  0.51878673593E+02  0.27198456727E+03 -0.72369815492E+02  0.28618943342E+03  0.00000000000E+00 0. -1.
        -13    1    5    5    0    0  0.15518712019E+02  0.38162782615E+02 -0.55526157064E+02  0.69140310369E+02  0.00000000000E+00 0.  1.
          4    1    6    6  503    0 -0.11244427415E+03 -0.12094531481E+03 -0.17171917481E+03  0.23824138802E+03  0.00000000000E+00 0. -1.
         -4    1    6    6    0  503 -0.31624462890E+03 -0.34427560246E+03 -0.28398534260E+03  0.54697717555E+03  0.00000000000E+00 0.  1.
<mgrwt>
<rscale>  0 0.14494856E+04</rscale>
<asrwt>0</asrwt>
<pdfrwt beam="1">  1        1 0.51820182E-01 0.14494856E+04</pdfrwt>
<pdfrwt beam="2">  1       -1 0.23990659E+00 0.14494856E+04</pdfrwt>
<totfact> 0.59432085E+00</totfact>
</mgrwt>
</event>
<event>
12    3  0.4769008E-008  0.1939720E+04  0.7818608E-02  0.8635334E-01
         -2   -1    0    0    0  501 -0.00000000000E+00  0.00000000000E+00  0.53975906374E+03  0.53975906374E+03  0.00000000000E+00 0.  1.
          2   -1    0    0  501    0  0.00000000000E+00 -0.00000000000E+00 -0.17426823846E+04  0.17426823846E+04  0.00000000000E+00 0. -1.
         23    2    1    2    0    0 -0.23072528376E+03  0.19521263725E+03  0.34300223298E+03  0.46596440287E+03  0.90167414336E+02 0.  0.
        254    2    1    2    0    0  0.23072528376E+03 -0.19521263725E+03 -0.15459255539E+04  0.18164770455E+04  0.90463302414E+03 0.  0.
         23    2    4    4    0    0  0.51935779430E+03 -0.19171429793E+03 -0.13265705037E+04  0.14403539686E+04  0.91342011022E+02 0.  0.
         23    2    4    4    0    0 -0.28863251054E+03 -0.34983393180E+01 -0.21935505019E+03  0.37612307693E+03  0.10015471250E+03 0.  0.
          4    1    3    3  502    0 -0.27850206079E+02  0.38331455163E+01  0.71108180472E+02  0.76463718934E+02  0.00000000000E+00 0. -1.
         -4    1    3    3    0  502 -0.20287507768E+03  0.19137949173E+03  0.27189405251E+03  0.38950068394E+03  0.00000000000E+00 0.  1.
         13    1    5    5    0    0  0.14649201091E+03 -0.98339178963E+02 -0.43869494955E+03  0.47284644668E+03  0.00000000000E+00 0.  1.
        -13    1    5    5    0    0  0.37286578339E+03 -0.93375118967E+02 -0.88787555412E+03  0.96750752187E+03  0.00000000000E+00 0. -1.
          1    1    6    6  503    0 -0.14594753866E+03 -0.21137250732E+02 -0.16778817575E+03  0.22338383856E+03  0.00000000000E+00 0. -1.
         -1    1    6    6    0  503 -0.14268497188E+03  0.17638911414E+02 -0.51566874436E+02  0.15273923836E+03  0.00000000000E+00 0.  1.
<mgrwt>
<rscale>  0 0.19397202E+04</rscale>
<asrwt>0</asrwt>
<pdfrwt beam="1">  1        2 0.26810499E+00 0.19397202E+04</pdfrwt>
<pdfrwt beam="2">  1       -2 0.83039854E-01 0.19397202E+04</pdfrwt>
<totfact> 0.11013113E+01</totfact>
</mgrwt>
</event>
<event>
12    3  0.4769008E-008  0.1409294E+04  0.7818608E-02  0.8947119E-01
         -1   -1    0    0    0  501 -0.00000000000E+00  0.00000000000E+00  0.13215939302E+04  0.13215939302E+04  0.00000000000E+00 0.  1.
          1   -1    0    0  501    0  0.00000000000E+00 -0.00000000000E+00 -0.37570329396E+03  0.37570329396E+03  0.00000000000E+00 0. -1.
         23    2    1    2    0    0  0.10765065574E+03 -0.37127729873E+03  0.46861119606E+03  0.61423671995E+03  0.90855923458E+02 0.  0.
        254    2    1    2    0    0 -0.10765065574E+03  0.37127729873E+03  0.47727944017E+03  0.10830605042E+04  0.89207000594E+03 0.  0.
         23    2    4    4    0    0 -0.38304099386E+03  0.44946479291E+03  0.50363819645E+03  0.78116295258E+03  0.88459722531E+02 0.  0.
         23    2    4    4    0    0  0.27539033812E+03 -0.78187494183E+02 -0.26358756288E+02  0.30189755161E+03  0.92164120226E+02 0.  0.
          3    1    3    3  502    0  0.32458026392E+02 -0.22113272326E+02  0.36449965999E+02  0.53582835979E+02  0.00000000000E+00 0. -1.
         -3    1    3    3    0  502  0.75192629347E+02 -0.34916402640E+03  0.43216123006E+03  0.56065388397E+03  0.00000000000E+00 0.  1.
         13    1    5    5    0    0 -0.21366117183E+03  0.19526990002E+03  0.21144414881E+03  0.35845509938E+03  0.00000000000E+00 0.  1.
        -13    1    5    5    0    0 -0.16937982203E+03  0.25419489289E+03  0.29219404764E+03  0.42270785320E+03  0.00000000000E+00 0. -1.
          3    1    6    6  503    0  0.21677359189E+03 -0.68554621730E+02 -0.57938804503E+02  0.23462189022E+03  0.00000000000E+00 0. -1.
         -3    1    6    6    0  503  0.58616746232E+02 -0.96328724530E+01  0.31580048216E+02  0.67275661392E+02  0.00000000000E+00 0.  1.
<mgrwt>
<rscale>  0 0.14092937E+04</rscale>
<asrwt>0</asrwt>
<pdfrwt beam="1">  1        1 0.57800507E-01 0.14092937E+04</pdfrwt>
<pdfrwt beam="2">  1       -1 0.20332214E+00 0.14092937E+04</pdfrwt>
<totfact> 0.90720019E+00</totfact>
</mgrwt>
</event>
<event>
12    3  0.4769008E-008  0.2117790E+04  0.7818608E-02  0.8553447E-01
          1   -1    0    0  501    0  0.00000000000E+00  0.00000000000E+00  0.61995847360E+03  0.61995847360E+03  0.00000000000E+00 0. -1.
         -1   -1    0    0    0  501 -0.00000000000E+00 -0.00000000000E+00 -0.18086030565E+04  0.18086030565E+04  0.00000000000E+00 0.  1.
         23    2    1    2    0    0  0.75116249525E+02 -0.50718966007E+03 -0.12956216301E+04  0.13963598086E+04  0.91112591580E+02 0.  0.
        254    2    1    2    0    0 -0.75116249525E+02  0.50718966007E+03  0.10697704725E+03  0.10322017215E+04  0.88944505340E+03 0.  0.
         23    2    4    4    0    0 -0.41487646574E+03  0.51862159993E+03  0.29084046723E+02  0.67098048247E+03  0.90983956500E+02 0.  0.
         23    2    4    4    0    0  0.33976021622E+03 -0.11431939866E+02  0.77893000523E+02  0.36122123903E+03  0.94051954923E+02 0.  0.
          4    1    3    3  502    0  0.77461399279E+02 -0.22088557635E+03 -0.60893653275E+03  0.65237597069E+03  0.00000000000E+00 0. -1.
         -4    1    3    3    0  502 -0.23451497547E+01 -0.28630408372E+03 -0.68668509735E+03  0.74398383787E+03  0.00000000000E+00 0.  1.
         13    1    5    5    0    0 -0.18791221296E+03  0.30589862210E+03  0.25173740824E+02  0.35988704340E+03  0.00000000000E+00 0.  1.
        -13    1    5    5    0    0 -0.22696425278E+03  0.21272297783E+03  0.39103058985E+01  0.31109343907E+03  0.00000000000E+00 0. -1.
          4    1    6    6  503    0  0.28255071826E+03 -0.27062009179E+02  0.95297034237E+02  0.29941407025E+03  0.00000000000E+00 0.  1.
         -4    1    6    6    0  503  0.57209497962E+02  0.15630069313E+02 -0.17404033714E+02  0.61807168786E+02  0.00000000000E+00 0. -1.
<mgrwt>
<rscale>  0 0.21177902E+04</rscale>
<asrwt>0</asrwt>
<pdfrwt beam="1">  1        1 0.95378228E-01 0.21177902E+04</pdfrwt>
<pdfrwt beam="2">  1       -1 0.27824662E+00 0.21177902E+04</pdfrwt>
<totfact> 0.13702381E+00</totfact>
</mgrwt>
</event>
<event>
12    3  0.4769008E-008  0.1288294E+04  0.7818608E-02  0.9038900E-01
          1   -1    0    0  501    0  0.00000000000E+00  0.00000000000E+00  0.22529967895E+04  0.22529967895E+04  0.00000000000E+00 0. -1.
         -1   -1    0    0    0  501 -0.00000000000E+00 -0.00000000000E+00 -0.18416595420E+03  0.18416595420E+03  0.00000000000E+00 0.  1.
         23    2    1    2    0    0 -0.90285046109E+02 -0.13107060423E+03  0.25333195487E+02  0.18476941804E+03  0.90371866225E+02 0.  0.
        254    2    1    2    0    0  0.90285046109E+02  0.13107060423E+03  0.20434976399E+04  0.22523933257E+04  0.93384270448E+03 0.  0.
         23    2    4    4    0    0 -0.15099593994E+03  0.43626837658E+03  0.15382907274E+04  0.16086545455E+04  0.91111001169E+02 0.  0.
         23    2    4    4    0    0  0.24128098605E+03 -0.30519777235E+03  0.50520691249E+03  0.64373878021E+03  0.88336845341E+02 0.  0.
          3    1    3    3  502    0 -0.13617238953E+02  0.74777715455E+01  0.21310286765E+02  0.26371852153E+02  0.00000000000E+00 0. -1.
         -3    1    3    3    0  502 -0.76667807156E+02 -0.13854837578E+03  0.40229087222E+01  0.15839756589E+03  0.00000000000E+00 0.  1.
         13    1    5    5    0    0 -0.12613605919E+03  0.40314564582E+03  0.13034253381E+04  0.13701658036E+04  0.00000000000E+00 0. -1.
        -13    1    5    5    0    0 -0.24859880755E+02  0.33122730755E+02  0.23486538922E+03  0.23848874191E+03  0.00000000000E+00 0.  1.
          3    1    6    6  503    0  0.17896341539E+03 -0.27836072719E+03  0.42632900981E+03  0.53969345290E+03  0.00000000000E+00 0. -1.
         -3    1    6    6    0  503  0.62317570656E+02 -0.26837045156E+02  0.78877902684E+02  0.10404532732E+03  0.00000000000E+00 0.  1.
<mgrwt>
<rscale>  0 0.12882939E+04</rscale>
<asrwt>0</asrwt>
<pdfrwt beam="1">  1        1 0.34661487E+00 0.12882939E+04</pdfrwt>
<pdfrwt beam="2">  1       -1 0.28333225E-01 0.12882939E+04</pdfrwt>
<totfact> 0.22293016E+01</totfact>
</mgrwt>
</event>
<event>
12    3  0.4769008E-008  0.1557196E+04  0.7818608E-02  0.8847285E-01
          1   -1    0    0  501    0  0.00000000000E+00  0.00000000000E+00  0.15670643821E+04  0.15670643821E+04  0.00000000000E+00 0. -1.
         -1   -1    0    0    0  501 -0.00000000000E+00 -0.00000000000E+00 -0.38684729464E+03  0.38684729464E+03  0.00000000000E+00 0.  1.
         23    2    1    2    0    0  0.52156113178E+02 -0.21543638197E+03 -0.17951597206E+03  0.29978697529E+03  0.92266741062E+02 0.  0.
        254    2    1    2    0    0 -0.52156113178E+02  0.21543638197E+03  0.13597330595E+04  0.16541247015E+04  0.91548972686E+03 0.  0.
         23    2    4    4    0    0 -0.40842206860E+03  0.18981803612E+03  0.34492544913E+03  0.57429059942E+03  0.89424013342E+02 0.  0.
         23    2    4    4    0    0  0.35626595542E+03  0.25618345851E+02  0.10148076104E+04  0.10798341020E+04  0.92873414773E+02 0.  0.
          4    1    3    3  502    0  0.20728628190E+02 -0.77243456134E+02 -0.12405410597E+03  0.14759962313E+03  0.00000000000E+00 0.  1.
         -4    1    3    3    0  502  0.31427484988E+02 -0.13819292584E+03 -0.55461866098E+02  0.15218735215E+03  0.00000000000E+00 0. -1.
         13    1    5    5    0    0 -0.32222784511E+03  0.18735852222E+03  0.28666855724E+03  0.47022639412E+03  0.00000000000E+00 0. -1.
        -13    1    5    5    0    0 -0.86194223488E+02  0.24595138973E+01  0.58256891887E+02  0.10406420530E+03  0.00000000000E+00 0.  1.
          4    1    6    6  503    0  0.16228718086E+03  0.57851956255E+02  0.48843168317E+03  0.51792807129E+03  0.00000000000E+00 0.  1.
         -4    1    6    6    0  503  0.19397877456E+03 -0.32233610404E+02  0.52637592724E+03  0.56190603075E+03  0.00000000000E+00 0. -1.
<mgrwt>
<rscale>  0 0.15571957E+04</rscale>
<asrwt>0</asrwt>
<pdfrwt beam="1">  1        1 0.24108683E+00 0.15571957E+04</pdfrwt>
<pdfrwt beam="2">  1       -1 0.59514969E-01 0.15571957E+04</pdfrwt>
<totfact> 0.16201868E+01</totfact>
</mgrwt>
</event>
<event>
12    3  0.4769008E-008  0.1549558E+04  0.7818608E-02  0.8852150E-01
          2   -1    0    0  501    0  0.00000000000E+00  0.00000000000E+00  0.10248400066E+04  0.10248400066E+04  0.00000000000E+00 0. -1.
         -2   -1    0    0    0  501 -0.00000000000E+00 -0.00000000000E+00 -0.58573264413E+03  0.58573264413E+03  0.00000000000E+00 0.  1.
         23    2    1    2    0    0  0.49993608227E+03 -0.15962054566E+03  0.26990202092E+03  0.59725940588E+03  0.91961361814E+02 0.  0.
        254    2    1    2    0    0 -0.49993608227E+03  0.15962054566E+03  0.16920534152E+03  0.10133132448E+04  0.85015203320E+03 0.  0.
         23    2    4    4    0    0 -0.69547637206E+02 -0.25288999574E+03 -0.16611732581E+03  0.32381800384E+03  0.92048410590E+02 0.  0.
         23    2    4    4    0    0 -0.43038844506E+03  0.41251054140E+03  0.33532266733E+03  0.68949524097E+03  0.86966865418E+02 0.  0.
          3    1    3    3  502    0  0.83139997210E+01  0.55427846392E+01 -0.39840912893E+01  0.10757231815E+02  0.00000000000E+00 0. -1.
         -3    1    3    3    0  502  0.49162208255E+03 -0.16516333030E+03  0.27388611221E+03  0.58650217407E+03  0.00000000000E+00 0.  1.
         13    1    5    5    0    0 -0.55327271574E+02 -0.12852632773E+03 -0.13587180378E+03  0.19504171595E+03  0.00000000000E+00 0.  1.
        -13    1    5    5    0    0 -0.14220365632E+02 -0.12436366801E+03 -0.30245522032E+02  0.12877628789E+03  0.00000000000E+00 0. -1.
          3    1    6    6  503    0 -0.36522667228E+03  0.35523443497E+03  0.31928461903E+03  0.60126923577E+03  0.00000000000E+00 0. -1.
         -3    1    6    6    0  503 -0.65161772788E+02  0.57276106429E+02  0.16038048304E+02  0.88226005202E+02  0.00000000000E+00 0.  1.
<mgrwt>
<rscale>  0 0.15495577E+04</rscale>
<asrwt>0</asrwt>
<pdfrwt beam="1">  1        2 0.15766769E+00 0.15495577E+04</pdfrwt>
<pdfrwt beam="2">  1       -2 0.90112715E-01 0.15495577E+04</pdfrwt>
<totfact> 0.24637150E+01</totfact>
</mgrwt>
</event>
<event>
12    3  0.4769008E-008  0.2890661E+04  0.7818608E-02  0.8275661E-01
         -2   -1    0    0    0  501 -0.00000000000E+00  0.00000000000E+00  0.67256096350E+03  0.67256096350E+03  0.00000000000E+00 0.  1.
          2   -1    0    0  501    0  0.00000000000E+00 -0.00000000000E+00 -0.31060096847E+04  0.31060096847E+04  0.00000000000E+00 0. -1.
         23    2    1    2    0    0  0.74479831439E+03 -0.97782687105E+03 -0.52205494859E+03  0.13386780802E+04  0.92993086533E+02 0.  0.
        254    2    1    2    0    0 -0.74479831439E+03  0.97782687105E+03 -0.19113937726E+04  0.24398925680E+04  0.88813268749E+03 0.  0.
         23    2    4    4    0    0 -0.98734814621E+02  0.17579361859E+02 -0.86926594857E+03  0.87998458736E+03  0.93230826739E+02 0.  0.
         23    2    4    4    0    0 -0.64606349976E+03  0.96024750920E+03 -0.10421278240E+04  0.15599079806E+04  0.88369575213E+02 0.  0.
          1    1    3    3  502    0  0.52082356128E+03 -0.63981474781E+03 -0.31206040141E+03  0.88204409619E+03  0.00000000000E+00 0. -1.
         -1    1    3    3    0  502  0.22397475311E+03 -0.33801212324E+03 -0.20999454718E+03  0.45663398399E+03  0.00000000000E+00 0.  1.
         13    1    5    5    0    0 -0.16210949949E+02  0.45373212602E+02 -0.37832727081E+03  0.38138307141E+03  0.00000000000E+00 0.  1.
        -13    1    5    5    0    0 -0.82523864671E+02 -0.27793850744E+02 -0.49093867776E+03  0.49860151595E+03  0.00000000000E+00 0. -1.
          3    1    6    6  503    0 -0.41104212255E+03  0.64368538728E+03 -0.73717444711E+03  0.10614672250E+04  0.00000000000E+00 0. -1.
         -3    1    6    6    0  503 -0.23502137721E+03  0.31656212192E+03 -0.30495337691E+03  0.49844075562E+03  0.00000000000E+00 0.  1.
<mgrwt>
<rscale>  0 0.28906614E+04</rscale>
<asrwt>0</asrwt>
<pdfrwt beam="1">  1        2 0.47784765E+00 0.28906614E+04</pdfrwt>
<pdfrwt beam="2">  1       -2 0.10347092E+00 0.28906614E+04</pdfrwt>
<totfact> 0.98041403E-01</totfact>
</mgrwt>
</event>
<event>
12    3  0.4769008E-008  0.3970458E+04  0.7818608E-02  0.8010533E-01
          2   -1    0    0  501    0  0.00000000000E+00  0.00000000000E+00  0.27649089051E+04  0.27649089051E+04  0.00000000000E+00 0. -1.
         -2   -1    0    0    0  501 -0.00000000000E+00 -0.00000000000E+00 -0.14254119255E+04  0.14254119255E+04  0.00000000000E+00 0.  1.
         23    2    1    2    0    0  0.16437349134E+04 -0.58330632946E+03 -0.11121910777E+03  0.17502422887E+04  0.94168145870E+02 0.  0.
        254    2    1    2    0    0 -0.16437349134E+04  0.58330632946E+03  0.14507160874E+04  0.24400785419E+04  0.89849617982E+03 0.  0.
         23    2    4    4    0    0 -0.57543836956E+03 -0.20651750750E+03  0.58750598664E+03  0.85304916559E+03  0.93545692073E+02 0.  0.
         23    2    4    4    0    0 -0.10682965438E+04  0.78982383696E+03  0.86321010071E+03  0.15870293763E+04  0.91931302483E+02 0.  0.
          3    1    3    3  502    0  0.30344276723E+03 -0.12639113915E+03  0.11381817342E+02  0.32890998587E+03  0.00000000000E+00 0. -1.
         -3    1    3    3    0  502  0.13402921461E+04 -0.45691519030E+03 -0.12260092511E+03  0.14213323028E+04  0.00000000000E+00 0.  1.
         13    1    5    5    0    0 -0.57006268126E+03 -0.20963060216E+03  0.58960404273E+03  0.84649239638E+03  0.00000000000E+00 0.  1.
        -13    1    5    5    0    0 -0.53756882960E+01  0.31130946603E+01 -0.20980560908E+01  0.65567692029E+01  0.00000000000E+00 0. -1.
          4    1    6    6  503    0 -0.35930401091E+03  0.24310887506E+03  0.23571473533E+03  0.49372333735E+03  0.00000000000E+00 0. -1.
         -4    1    6    6    0  503 -0.70899253289E+03  0.54671496190E+03  0.62749536538E+03  0.10933060390E+04  0.00000000000E+00 0.  1.
<mgrwt>
<rscale>  0 0.39704580E+04</rscale>
<asrwt>0</asrwt>
<pdfrwt beam="1">  1        2 0.42537060E+00 0.39704580E+04</pdfrwt>
<pdfrwt beam="2">  1       -2 0.21929414E+00 0.39704580E+04</pdfrwt>
<totfact> 0.19168450E-01</totfact>
</mgrwt>
</event>
<event>
12    3  0.4769008E-008  0.2586121E+04  0.7818608E-02  0.8372931E-01
         -1   -1    0    0    0  501 -0.00000000000E+00  0.00000000000E+00  0.14029795894E+04  0.14029795894E+04  0.00000000000E+00 0.  1.
          1   -1    0    0  501    0  0.00000000000E+00 -0.00000000000E+00 -0.11917531471E+04  0.11917531471E+04  0.00000000000E+00 0. -1.
         23    2    1    2    0    0 -0.10813687164E+04  0.79836319939E+02 -0.23389756844E+03  0.11130154906E+04  0.91450921550E+02 0.  0.
        254    2    1    2    0    0  0.10813687164E+04 -0.79836319939E+02  0.44512401077E+03  0.14817172459E+04  0.90643172562E+03 0.  0.
         23    2    4    4    0    0  0.85638219357E+03 -0.29245021192E+03  0.63198779708E+03  0.11073783038E+04  0.89221881267E+02 0.  0.
         23    2    4    4    0    0  0.22498652281E+03  0.21261389198E+03 -0.18686378632E+03  0.37433894216E+03  0.96891519119E+02 0.  0.
          3    1    3    3  502    0 -0.73179797254E+03  0.46250122796E+02 -0.20093817890E+03  0.76029171915E+03  0.00000000000E+00 0. -1.
         -3    1    3    3    0  502 -0.34957074383E+03  0.33586197143E+02 -0.32959389543E+02  0.35272377144E+03  0.00000000000E+00 0.  1.
         13    1    5    5    0    0  0.34122505528E+02 -0.21550513610E+01  0.43726898212E+02  0.55507037906E+02  0.00000000000E+00 0. -1.
        -13    1    5    5    0    0  0.82225968804E+03 -0.29029516056E+03  0.58826089887E+03  0.10518712659E+04  0.00000000000E+00 0.  1.
          1    1    6    6  503    0  0.94846132162E+01 -0.10471000061E+02 -0.66859273612E+01  0.15630142508E+02  0.00000000000E+00 0. -1.
         -1    1    6    6    0  503  0.21550190959E+03  0.22308489204E+03 -0.18017785895E+03  0.35870879966E+03  0.00000000000E+00 0.  1.
<mgrwt>
<rscale>  0 0.25861209E+04</rscale>
<asrwt>0</asrwt>
<pdfrwt beam="1">  1        1 0.18334664E+00 0.25861209E+04</pdfrwt>
<pdfrwt beam="2">  1       -1 0.21584301E+00 0.25861209E+04</pdfrwt>
<totfact> 0.11214049E+00</totfact>
</mgrwt>
</event>
<event>
12    3  0.4769008E-008  0.1690438E+04  0.7818608E-02  0.8766837E-01
          1   -1    0    0  501    0  0.00000000000E+00  0.00000000000E+00  0.71108930072E+03  0.71108930072E+03  0.00000000000E+00 0. -1.
         -1   -1    0    0    0  501 -0.00000000000E+00 -0.00000000000E+00 -0.10046489429E+04  0.10046489429E+04  0.00000000000E+00 0.  1.
         23    2    1    2    0    0 -0.31351250841E+03  0.43756361185E+03  0.16180540645E+03  0.56922491856E+03  0.89911128352E+02 0.  0.
        254    2    1    2    0    0  0.31351250841E+03 -0.43756361185E+03 -0.45536504863E+03  0.11465133251E+04  0.90409262229E+03 0.  0.
         23    2    4    4    0    0 -0.10495976942E+03  0.16507021940E+03 -0.33590812307E+03  0.39767160392E+03  0.83926794819E+02 0.  0.
         23    2    4    4    0    0  0.41847227783E+03 -0.60263383126E+03 -0.11945692555E+03  0.74884172114E+03  0.90594615562E+02 0.  0.
          2    1    3    3  502    0 -0.12436039774E+03  0.13072468849E+03  0.90225515773E+02  0.20173025654E+03  0.00000000000E+00 0. -1.
         -2    1    3    3    0  502 -0.18915211067E+03  0.30683892336E+03  0.71579890678E+02  0.36749466202E+03  0.00000000000E+00 0.  1.
         13    1    5    5    0    0 -0.11147425326E+03  0.13913045929E+03 -0.32065270981E+03  0.36688138975E+03  0.00000000000E+00 0.  1.
        -13    1    5    5    0    0  0.65144838407E+01  0.25939760116E+02 -0.15255413268E+02  0.30790214169E+02  0.00000000000E+00 0. -1.
          4    1    6    6  503    0  0.20216899757E+03 -0.31867839711E+03 -0.10438815356E+03  0.39156750499E+03  0.00000000000E+00 0. -1.
         -4    1    6    6    0  503  0.21630328026E+03 -0.28395543415E+03 -0.15068771988E+02  0.35727421615E+03  0.00000000000E+00 0.  1.
<mgrwt>
<rscale>  0 0.16904379E+04</rscale>
<asrwt>0</asrwt>
<pdfrwt beam="1">  1        1 0.10939835E+00 0.16904379E+04</pdfrwt>
<pdfrwt beam="2">  1       -1 0.15456138E+00 0.16904379E+04</pdfrwt>
<totfact> 0.81471116E+00</totfact>
</mgrwt>
</event>
<event>
12    3  0.4769008E-008  0.1596095E+04  0.7818608E-02  0.8822950E-01
          2   -1    0    0  501    0  0.00000000000E+00  0.00000000000E+00  0.16598617985E+04  0.16598617985E+04  0.00000000000E+00 0. -1.
         -2   -1    0    0    0  501 -0.00000000000E+00 -0.00000000000E+00 -0.38369460305E+03  0.38369460305E+03  0.00000000000E+00 0.  1.
         23    2    1    2    0    0 -0.42437305288E+03 -0.56237407993E+02  0.86227805496E+03  0.96695071278E+03  0.90637204358E+02 0.  0.
        254    2    1    2    0    0  0.42437305288E+03  0.56237407993E+02  0.41388914053E+03  0.10766056888E+04  0.89695064214E+03 0.  0.
         23    2    4    4    0    0  0.63704596491E+03 -0.17447821376E+03  0.26428620968E+03  0.71705688096E+03  0.89739408366E+02 0.  0.
         23    2    4    4    0    0 -0.21267291203E+03  0.23071562175E+03  0.14960293085E+03  0.35954880784E+03  0.91841399540E+02 0.  0.
          1    1    3    3  502    0 -0.42328345139E+03 -0.59224352467E+02  0.82136291453E+03  0.92591222128E+03  0.00000000000E+00 0. -1.
         -1    1    3    3    0  502 -0.10896014963E+01  0.29869444742E+01  0.40915140431E+02  0.41038491507E+02  0.00000000000E+00 0.  1.
         13    1    5    5    0    0  0.37175752406E+03 -0.62765931229E+02  0.17518677752E+03  0.41573263744E+03  0.00000000000E+00 0. -1.
        -13    1    5    5    0    0  0.26528844086E+03 -0.11171228253E+03  0.89099432163E+02  0.30132424352E+03  0.00000000000E+00 0.  1.
          3    1    6    6  503    0 -0.18434785153E+03  0.23407679090E+03  0.13089628427E+03  0.32543803041E+03  0.00000000000E+00 0. -1.
         -3    1    6    6    0  503 -0.28325060503E+02 -0.33611691513E+01  0.18706646585E+02  0.34110777432E+02  0.00000000000E+00 0.  1.
<mgrwt>
<rscale>  0 0.15960953E+04</rscale>
<asrwt>0</asrwt>
<pdfrwt beam="1">  1        2 0.25536335E+00 0.15960953E+04</pdfrwt>
<pdfrwt beam="2">  1       -2 0.59029940E-01 0.15960953E+04</pdfrwt>
<totfact> 0.26546850E+01</totfact>
</mgrwt>
</event>
<event>
12    3  0.4769008E-008  0.2306027E+04  0.7818608E-02  0.8475549E-01
         -2   -1    0    0    0  501 -0.00000000000E+00  0.00000000000E+00  0.47810870574E+03  0.47810870574E+03  0.00000000000E+00 0.  1.
          2   -1    0    0  501    0  0.00000000000E+00 -0.00000000000E+00 -0.27806222443E+04  0.27806222443E+04  0.00000000000E+00 0. -1.
         23    2    1    2    0    0 -0.33072731180E+03  0.57465307330E+03  0.27150919188E+02  0.66968373378E+03  0.90179939294E+02 0.  0.
        254    2    1    2    0    0  0.33072731180E+03 -0.57465307330E+03 -0.23296644578E+04  0.25890472163E+04  0.91445190846E+03 0.  0.
         23    2    4    4    0    0  0.63124202767E+03 -0.27264035082E+03 -0.14673777485E+04  0.16229252806E+04  0.88824270601E+02 0.  0.
         23    2    4    4    0    0 -0.30051471587E+03 -0.30201272248E+03 -0.86228670926E+03  0.96612193572E+03  0.91282236627E+02 0.  0.
          3    1    3    3  502    0 -0.83862613395E+02  0.15157753878E+03 -0.32437147457E+02  0.17624090536E+03  0.00000000000E+00 0. -1.
         -3    1    3    3    0  502 -0.24686469840E+03  0.42307553452E+03  0.59588066646E+02  0.49344282841E+03  0.00000000000E+00 0.  1.
         13    1    5    5    0    0  0.23879191826E+03 -0.14942379566E+03 -0.57352575343E+03  0.63896857574E+03  0.00000000000E+00 0. -1.
        -13    1    5    5    0    0  0.39245010940E+03 -0.12321655517E+03 -0.89385199511E+03  0.98395670484E+03  0.00000000000E+00 0.  1.
          3    1    6    6  503    0 -0.35017619639E+02 -0.31003164449E+02 -0.44225664711E+02  0.64368775895E+02  0.00000000000E+00 0. -1.
         -3    1    6    6    0  503 -0.26549709623E+03 -0.27100955803E+03 -0.81806104454E+03  0.90175315982E+03  0.00000000000E+00 0.  1.
<mgrwt>
<rscale>  0 0.23060266E+04</rscale>
<asrwt>0</asrwt>
<pdfrwt beam="1">  1        2 0.42778802E+00 0.23060266E+04</pdfrwt>
<pdfrwt beam="2">  1       -2 0.73555188E-01 0.23060266E+04</pdfrwt>
<totfact> 0.35899755E+00</totfact>
</mgrwt>
</event>
<event>
12    3  0.5642671E-008  0.1572928E+04  0.7818608E-02  0.8837354E-01
          2   -1    0    0  501    0  0.00000000000E+00  0.00000000000E+00  0.19837261341E+04  0.19837261341E+04  0.00000000000E+00 0. -1.
         -2   -1    0    0    0  501 -0.00000000000E+00 -0.00000000000E+00 -0.31179990264E+03  0.31179990264E+03  0.00000000000E+00 0.  1.
         23    2    1    2    0    0  0.47997339427E+02  0.48102475726E+03  0.20579695183E+03  0.53333437675E+03  0.91676661941E+02 0.  0.
        254    2    1    2    0    0 -0.47997339427E+02 -0.48102475726E+03  0.14661292796E+04  0.17621916600E+04  0.84976221398E+03 0.  0.
         23    2    4    4    0    0 -0.43678421491E+03 -0.19776322703E+03  0.75948007287E+03  0.90269844497E+03  0.90353511842E+02 0.  0.
         23    2    4    4    0    0  0.38878687548E+03 -0.28326153024E+03  0.70664920676E+03  0.85949321504E+03  0.89348509904E+02 0.  0.
          1    1    3    3  502    0  0.74795637329E+01  0.51828781954E+00  0.10891421236E+02  0.13222539561E+02  0.00000000000E+00 0. -1.
         -1    1    3    3    0  502  0.40517775694E+02  0.48050646944E+03  0.19490553060E+03  0.52011183719E+03  0.00000000000E+00 0.  1.
         13    1    5    5    0    0 -0.36914204908E+03 -0.14813455243E+03  0.67605029366E+03  0.78438109206E+03  0.00000000000E+00 0. -1.
        -13    1    5    5    0    0 -0.67642165830E+02 -0.49628674597E+02  0.83429779216E+02  0.11831735291E+03  0.00000000000E+00 0.  1.
          4    1    6    6  503    0  0.25103884160E+03 -0.18647311198E+03  0.38102131333E+03  0.49291983394E+03  0.00000000000E+00 0. -1.
         -4    1    6    6    0  503  0.13774803388E+03 -0.96788418254E+02  0.32562789343E+03  0.36657338110E+03  0.00000000000E+00 0.  1.
<mgrwt>
<rscale>  0 0.15729280E+04</rscale>
<asrwt>0</asrwt>
<pdfrwt beam="1">  1        2 0.30518863E+00 0.15729280E+04</pdfrwt>
<pdfrwt beam="2">  1       -2 0.47969217E-01 0.15729280E+04</pdfrwt>
<totfact> 0.26997176E+01</totfact>
</mgrwt>
</event>
<event>
12    3  0.4769008E-008  0.3601861E+04  0.7818608E-02  0.8090065E-01
          2   -1    0    0  501    0  0.00000000000E+00  0.00000000000E+00  0.17523054628E+04  0.17523054628E+04  0.00000000000E+00 0.  1.
         -2   -1    0    0    0  501 -0.00000000000E+00 -0.00000000000E+00 -0.18509052940E+04  0.18509052940E+04  0.00000000000E+00 0. -1.
         23    2    1    2    0    0  0.67136406580E+03  0.14988762549E+04  0.34920986033E+03  0.16815659155E+04  0.91414798070E+02 0.  0.
        254    2    1    2    0    0 -0.67136406580E+03 -0.14988762549E+04 -0.44780969154E+03  0.19216448414E+04  0.89152994356E+03 0.  0.
         23    2    4    4    0    0 -0.17389775599E+03 -0.58476700472E+03 -0.60741540290E+03  0.86567537708E+03  0.90815788609E+02 0.  0.
         23    2    4    4    0    0 -0.49746630981E+03 -0.91410925014E+03  0.15960571136E+03  0.10559694643E+04  0.80802696758E+02 0.  0.
          1    1    3    3  502    0  0.41159065293E+03  0.99110511276E+03  0.26062601877E+03  0.11043650356E+04  0.00000000000E+00 0. -1.
         -1    1    3    3    0  502  0.25977341288E+03  0.50777114209E+03  0.88583841565E+02  0.57720087991E+03  0.00000000000E+00 0.  1.
         13    1    5    5    0    0 -0.69567522406E+02 -0.37705269187E+03 -0.35479463405E+03  0.52238645175E+03  0.00000000000E+00 0. -1.
        -13    1    5    5    0    0 -0.10433023359E+03 -0.20771431285E+03 -0.25262076885E+03  0.34328892533E+03  0.00000000000E+00 0.  1.
          4    1    6    6  503    0 -0.10551924890E+03 -0.26684557207E+03  0.53162205597E+02  0.29183401331E+03  0.00000000000E+00 0.  1.
         -4    1    6    6    0  503 -0.39194706091E+03 -0.64726367806E+03  0.10644350576E+03  0.76413545096E+03  0.00000000000E+00 0. -1.
<mgrwt>
<rscale>  0 0.36018614E+04</rscale>
<asrwt>0</asrwt>
<pdfrwt beam="1">  1        2 0.26958546E+00 0.36018614E+04</pdfrwt>
<pdfrwt beam="2">  1       -2 0.28475466E+00 0.36018614E+04</pdfrwt>
<totfact> 0.29440589E-01</totfact>
</mgrwt>
</event>
<event>
12    3  0.4769008E-008  0.2143453E+04  0.7818608E-02  0.8542340E-01
         -2   -1    0    0    0  501 -0.00000000000E+00  0.00000000000E+00  0.14359632455E+04  0.14359632455E+04  0.00000000000E+00 0.  1.
          2   -1    0    0  501    0  0.00000000000E+00 -0.00000000000E+00 -0.79987972960E+03  0.79987972960E+03  0.00000000000E+00 0. -1.
         23    2    1    2    0    0 -0.61628210349E+02 -0.82531855158E+03  0.57362102772E+03  0.10108923178E+04  0.88957556212E+02 0.  0.
        254    2    1    2    0    0  0.61628210349E+02  0.82531855158E+03  0.62462488206E+02  0.12249506574E+04  0.90091831074E+03 0.  0.
         23    2    4    4    0    0 -0.10729984738E+03 -0.16154873040E+03 -0.14035026990E+02  0.21646727649E+03  0.95130700975E+02 0.  0.
         23    2    4    4    0    0  0.16892805773E+03  0.98686728198E+03  0.76497515195E+02  0.10084833809E+04  0.93504752350E+02 0.  0.
          3    1    3    3  502    0 -0.59702295438E+02 -0.57635667819E+03  0.35486164233E+03  0.67946903519E+03  0.00000000000E+00 0. -1.
         -3    1    3    3    0  502 -0.19259149110E+01 -0.24896187339E+03  0.21875938539E+03  0.33142328259E+03  0.00000000000E+00 0.  1.
         13    1    5    5    0    0 -0.15556591030E+02 -0.23005280390E+02  0.33616193964E+02  0.43603886833E+02  0.00000000000E+00 0. -1.
        -13    1    5    5    0    0 -0.91743256348E+02 -0.13854345001E+03 -0.47651220954E+02  0.17286338966E+03  0.00000000000E+00 0.  1.
          2    1    6    6  503    0 -0.18865099660E+01  0.75923513499E+02  0.26052339508E+02  0.80291115422E+02  0.00000000000E+00 0. -1.
         -2    1    6    6    0  503  0.17081456769E+03  0.91094376848E+03  0.50445175687E+02  0.92819226544E+03  0.00000000000E+00 0.  1.
<mgrwt>
<rscale>  0 0.21434532E+04</rscale>
<asrwt>0</asrwt>
<pdfrwt beam="1">  1        2 0.12305842E+00 0.21434532E+04</pdfrwt>
<pdfrwt beam="2">  1       -2 0.22091742E+00 0.21434532E+04</pdfrwt>
<totfact> 0.30840988E+00</totfact>
</mgrwt>
</event>
<event>
12    3  0.4769008E-008  0.2630650E+04  0.7818608E-02  0.8357864E-01
         -1   -1    0    0    0  501 -0.00000000000E+00  0.00000000000E+00  0.90876336927E+03  0.90876336927E+03  0.00000000000E+00 0.  1.
          1   -1    0    0  501    0  0.00000000000E+00 -0.00000000000E+00 -0.19037737600E+04  0.19037737600E+04  0.00000000000E+00 0. -1.
         23    2    1    2    0    0  0.10009579921E+04 -0.29824249810E+03  0.94030270051E+02  0.10525711941E+04  0.90547983855E+02 0.  0.
        254    2    1    2    0    0 -0.10009579921E+04  0.29824249810E+03 -0.10890406608E+04  0.17599659352E+04  0.90587253098E+03 0.  0.
         23    2    4    4    0    0 -0.11489305213E+04  0.16878226659E+03 -0.95090753459E+03  0.15036419689E+04  0.90472289315E+02 0.  0.
         23    2    4    4    0    0  0.14797252917E+03  0.12946023151E+03 -0.13813312621E+03  0.25632396623E+03  0.89249057005E+02 0.  0.
          1    1    3    3  502    0  0.74083598588E+03 -0.19251924013E+03  0.38941704588E+02  0.76643204014E+03  0.00000000000E+00 0. -1.
         -1    1    3    3    0  502  0.26012200623E+03 -0.10572325797E+03  0.55088565463E+02  0.28613915398E+03  0.00000000000E+00 0.  1.
         13    1    5    5    0    0 -0.61770839636E+03  0.91924657894E+02 -0.45295669121E+03  0.77148141246E+03  0.00000000000E+00 0. -1.
        -13    1    5    5    0    0 -0.53122212491E+03  0.76857608695E+02 -0.49795084338E+03  0.73216055646E+03  0.00000000000E+00 0.  1.
          4    1    6    6  503    0  0.12531149013E+03  0.99626541450E+02 -0.14752855621E+03  0.21769954574E+03  0.00000000000E+00 0. -1.
         -4    1    6    6    0  503  0.22661039038E+02  0.29833690061E+02  0.93954300006E+01  0.38624420486E+02  0.00000000000E+00 0.  1.
<mgrwt>
<rscale>  0 0.26306500E+04</rscale>
<asrwt>0</asrwt>
<pdfrwt beam="1">  1        1 0.29288827E+00 0.26306500E+04</pdfrwt>
<pdfrwt beam="2">  1       -1 0.13980975E+00 0.26306500E+04</pdfrwt>
<totfact> 0.12797041E+00</totfact>
</mgrwt>
</event>
<event>
12    3  0.4769008E-008  0.2377423E+04  0.7818608E-02  0.8448005E-01
          2   -1    0    0  501    0  0.00000000000E+00  0.00000000000E+00  0.91579189231E+03  0.91579189231E+03  0.00000000000E+00 0. -1.
         -2   -1    0    0    0  501 -0.00000000000E+00 -0.00000000000E+00 -0.15429648538E+04  0.15429648538E+04  0.00000000000E+00 0.  1.
         23    2    1    2    0    0 -0.13079444548E+03  0.27147716517E+03  0.73137115131E+03  0.79623915464E+03  0.91027425702E+02 0.  0.
        254    2    1    2    0    0  0.13079444548E+03 -0.27147716517E+03 -0.13585441128E+04  0.16625175915E+04  0.90967884297E+03 0.  0.
         23    2    4    4    0    0 -0.35160421908E+03 -0.55019296961E+02 -0.83759137861E+03  0.91480160367E+03  0.93005411958E+02 0.  0.
         23    2    4    4    0    0  0.48239866457E+03 -0.21645786821E+03 -0.52095273419E+03  0.74771598779E+03  0.90138598030E+02 0.  0.
          4    1    3    3  502    0 -0.28888386907E+01  0.56032881518E+01 -0.12617947200E+01  0.64291798083E+01  0.00000000000E+00 0.  1.
         -4    1    3    3    0  502 -0.12790560679E+03  0.26587387702E+03  0.73263294603E+03  0.78980997483E+03  0.00000000000E+00 0. -1.
         13    1    5    5    0    0 -0.23438390496E+03 -0.62002519697E+02 -0.46904171254E+03  0.52799645402E+03  0.00000000000E+00 0.  1.
        -13    1    5    5    0    0 -0.11722031413E+03  0.69832227369E+01 -0.36854966607E+03  0.38680514966E+03  0.00000000000E+00 0. -1.
          1    1    6    6  503    0  0.14809325086E+03 -0.35139279678E+02 -0.11003280740E+03  0.18781266898E+03  0.00000000000E+00 0. -1.
         -1    1    6    6    0  503  0.33430541371E+03 -0.18131858853E+03 -0.41091992679E+03  0.55990331881E+03  0.00000000000E+00 0.  1.
<mgrwt>
<rscale>  0 0.23774227E+04</rscale>
<asrwt>0</asrwt>
<pdfrwt beam="1">  1        2 0.14089106E+00 0.23774227E+04</pdfrwt>
<pdfrwt beam="2">  1       -2 0.23737920E+00 0.23774227E+04</pdfrwt>
<totfact> 0.19817567E+00</totfact>
</mgrwt>
</event>
<event>
12    3  0.4769008E-008  0.2235839E+04  0.7818608E-02  0.8503657E-01
         -2   -1    0    0    0  501 -0.00000000000E+00  0.00000000000E+00  0.31671993059E+03  0.31671993059E+03  0.00000000000E+00 0. -1.
          2   -1    0    0  501    0  0.00000000000E+00 -0.00000000000E+00 -0.39458963459E+04  0.39458963459E+04  0.00000000000E+00 0.  1.
         23    2    1    2    0    0 -0.17966997452E+03 -0.34088776494E+03 -0.31480288926E+04  0.31729780527E+04  0.96010658140E+02 0.  0.
        254    2    1    2    0    0  0.17966997452E+03  0.34088776494E+03 -0.48114752274E+03  0.10896382238E+04  0.89851140898E+03 0.  0.
         23    2    4    4    0    0 -0.26304961561E+03  0.23342737186E+03  0.68386834852E+02  0.37022887835E+03  0.93323228494E+02 0.  0.
         23    2    4    4    0    0  0.44271959013E+03  0.10746039308E+03 -0.54953435760E+03  0.71940934544E+03  0.89517733215E+02 0.  0.
          3    1    3    3  502    0 -0.51589018577E+02 -0.14318997172E+03 -0.15861464902E+04  0.15934319826E+04  0.00000000000E+00 0. -1.
         -3    1    3    3    0  502 -0.12808095594E+03 -0.19769779322E+03 -0.15618824024E+04  0.15795460702E+04  0.00000000000E+00 0.  1.
         13    1    5    5    0    0 -0.24682579933E+03  0.18158516403E+03  0.40262537860E+02  0.30905860118E+03  0.00000000000E+00 0. -1.
        -13    1    5    5    0    0 -0.16223816286E+02  0.51842207836E+02  0.28124296992E+02  0.61170277173E+02  0.00000000000E+00 0.  1.
          3    1    6    6  503    0  0.39969771520E+03  0.87237757313E+02 -0.52599483732E+03  0.66636270809E+03  0.00000000000E+00 0. -1.
         -3    1    6    6    0  503  0.43021874927E+02  0.20222635764E+02 -0.23539520273E+02  0.53046637350E+02  0.00000000000E+00 0.  1.
<mgrwt>
<rscale>  0 0.22358390E+04</rscale>
<asrwt>0</asrwt>
<pdfrwt beam="1">  1        2 0.60706102E+00 0.22358390E+04</pdfrwt>
<pdfrwt beam="2">  1       -2 0.48726140E-01 0.22358390E+04</pdfrwt>
<totfact> 0.13830916E+00</totfact>
</mgrwt>
</event>
<event>
12    3  0.4769008E-008  0.2675018E+04  0.7818608E-02  0.8343157E-01
         -1   -1    0    0    0  501 -0.00000000000E+00  0.00000000000E+00  0.34509656787E+04  0.34509656787E+04  0.00000000000E+00 0.  1.
          1   -1    0    0  501    0  0.00000000000E+00 -0.00000000000E+00 -0.51838535134E+03  0.51838535134E+03  0.00000000000E+00 0. -1.
         23    2    1    2    0    0  0.41765944548E+02 -0.20389364835E+03  0.30606660798E+04  0.30690283156E+04  0.89111928688E+02 0.  0.
        254    2    1    2    0    0 -0.41765944548E+02  0.20389364835E+03 -0.12808575243E+03  0.90032271446E+03  0.86652063809E+03 0.  0.
         23    2    4    4    0    0 -0.40575682133E+03  0.36460906425E+02  0.10125584213E+03  0.42979387230E+03  0.92206460460E+02 0.  0.
         23    2    4    4    0    0  0.36399087678E+03  0.16743274193E+03 -0.22934159456E+03  0.47052884216E+03  0.90976606095E+02 0.  0.
          2    1    3    3  502    0  0.26286856123E+02 -0.10886088753E+03  0.22281829253E+04  0.22309954819E+04  0.00000000000E+00 0.  1.
         -2    1    3    3    0  502  0.15479088425E+02 -0.95032760826E+02  0.83248315449E+03  0.83803283368E+03  0.00000000000E+00 0. -1.
         13    1    5    5    0    0 -0.29286472515E+03  0.12191552625E+02  0.11208135855E+03  0.31381620756E+03  0.00000000000E+00 0. -1.
        -13    1    5    5    0    0 -0.11289209618E+03  0.24269353801E+02 -0.10825516417E+02  0.11597766475E+03  0.00000000000E+00 0.  1.
          1    1    6    6  503    0  0.34856275463E+03  0.14614471723E+03 -0.18952835669E+03  0.42281824733E+03  0.00000000000E+00 0.  1.
         -1    1    6    6    0  503  0.15428122153E+02  0.21288024700E+02 -0.39813237870E+02  0.47710594825E+02  0.00000000000E+00 0. -1.
<mgrwt>
<rscale>  0 0.26750178E+04</rscale>
<asrwt>0</asrwt>
<pdfrwt beam="1">  1        1 0.79751595E-01 0.26750178E+04</pdfrwt>
<pdfrwt beam="2">  1       -1 0.53091778E+00 0.26750178E+04</pdfrwt>
<totfact> 0.35169565E-02</totfact>
</mgrwt>
</event>
<event>
12    3  0.4769008E-008  0.2413726E+04  0.7818608E-02  0.8434383E-01
          2   -1    0    0  501    0  0.00000000000E+00  0.00000000000E+00  0.17456827570E+04  0.17456827570E+04  0.00000000000E+00 0. -1.
         -2   -1    0    0    0  501 -0.00000000000E+00 -0.00000000000E+00 -0.83435460993E+03  0.83435460993E+03  0.00000000000E+00 0.  1.
         23    2    1    2    0    0  0.49678052682E+03 -0.74919162092E+03 -0.19071852168E+03  0.92454090423E+03  0.10160389954E+03 0.  0.
        254    2    1    2    0    0 -0.49678052682E+03  0.74919162092E+03  0.11020466687E+04  0.16554964627E+04  0.84739760514E+03 0.  0.
         23    2    4    4    0    0 -0.67020791497E+03  0.71995350077E+03  0.10700972956E+04  0.14562712444E+04  0.90033452399E+02 0.  0.
         23    2    4    4    0    0  0.17342738815E+03  0.29238120151E+02  0.31949373080E+02  0.19922521828E+03  0.87965894117E+02 0.  0.
          1    1    3    3  502    0  0.32759390568E+03 -0.42290340569E+03 -0.14439894325E+03  0.55409034678E+03  0.00000000000E+00 0. -1.
         -1    1    3    3    0  502  0.16918662114E+03 -0.32628821523E+03 -0.46319578434E+02  0.37045055745E+03  0.00000000000E+00 0.  1.
         13    1    5    5    0    0 -0.67057862541E+02  0.11287410465E+03  0.12455716526E+03  0.18097460553E+03  0.00000000000E+00 0. -1.
        -13    1    5    5    0    0 -0.60315005243E+03  0.60707939612E+03  0.94554013038E+03  0.12752966389E+04  0.00000000000E+00 0.  1.
          3    1    6    6  503    0  0.14196487466E+03  0.52456825604E+02  0.44326637636E+01  0.15141133610E+03  0.00000000000E+00 0.  1.
         -3    1    6    6    0  503  0.31462513487E+02 -0.23218705452E+02  0.27516709316E+02  0.47813882183E+02  0.00000000000E+00 0. -1.
<mgrwt>
<rscale>  0 0.24137261E+04</rscale>
<asrwt>0</asrwt>
<pdfrwt beam="1">  1        2 0.26856658E+00 0.24137261E+04</pdfrwt>
<pdfrwt beam="2">  1       -2 0.12836225E+00 0.24137261E+04</pdfrwt>
<totfact> 0.37263438E+00</totfact>
</mgrwt>
</event>
<event>
12    3  0.4769008E-008  0.2681285E+04  0.7818608E-02  0.8341103E-01
         -1   -1    0    0    0  501 -0.00000000000E+00  0.00000000000E+00  0.88657336311E+03  0.88657336311E+03  0.00000000000E+00 0.  1.
          1   -1    0    0  501    0  0.00000000000E+00 -0.00000000000E+00 -0.20272680321E+04  0.20272680321E+04  0.00000000000E+00 0. -1.
         23    2    1    2    0    0  0.71785341054E+03  0.81218196125E+03 -0.10475207320E+04  0.15100748262E+04  0.89851207761E+02 0.  0.
        254    2    1    2    0    0 -0.71785341054E+03 -0.81218196125E+03 -0.93173936944E+02  0.14037665690E+04  0.88708857532E+03 0.  0.
         23    2    4    4    0    0 -0.26904454661E+03  0.46547834619E+02  0.24050295339E+03  0.37493164445E+03  0.90445555188E+02 0.  0.
         23    2    4    4    0    0 -0.44880886393E+03 -0.85872979587E+03 -0.33367689033E+03  0.10288349245E+04  0.91185394337E+02 0.  0.
          2    1    3    3  502    0  0.28183818409E+03  0.27829131143E+03 -0.33579314925E+03  0.51926472547E+03  0.00000000000E+00 0.  1.
         -2    1    3    3    0  502  0.43601522645E+03  0.53389064982E+03 -0.71172758279E+03  0.99081010076E+03  0.00000000000E+00 0. -1.
         13    1    5    5    0    0 -0.25728698533E+03  0.59097077454E+02  0.24138961697E+03  0.35771218118E+03  0.00000000000E+00 0.  1.
        -13    1    5    5    0    0 -0.11757561282E+02 -0.12549242835E+02 -0.88666358272E+00  0.17219463271E+02  0.00000000000E+00 0. -1.
          3    1    6    6  503    0 -0.10007151335E+03 -0.15034552445E+03 -0.94481794452E+02  0.20382564605E+03  0.00000000000E+00 0. -1.
         -3    1    6    6    0  503 -0.34873735059E+03 -0.70838427142E+03 -0.23919509588E+03  0.82500927848E+03  0.00000000000E+00 0.  1.
<mgrwt>
<rscale>  0 0.26812846E+04</rscale>
<asrwt>0</asrwt>
<pdfrwt beam="1">  1        1 0.31188739E+00 0.26812846E+04</pdfrwt>
<pdfrwt beam="2">  1       -1 0.13639590E+00 0.26812846E+04</pdfrwt>
<totfact> 0.11201862E+00</totfact>
</mgrwt>
</event>
<event>
12    3  0.4769008E-008  0.2071819E+04  0.7818608E-02  0.8573760E-01
          1   -1    0    0  501    0  0.00000000000E+00  0.00000000000E+00  0.27691684796E+04  0.27691684796E+04  0.00000000000E+00 0. -1.
         -1   -1    0    0    0  501 -0.00000000000E+00 -0.00000000000E+00 -0.38752000663E+03  0.38752000663E+03  0.00000000000E+00 0.  1.
         23    2    1    2    0    0 -0.31376234721E+03 -0.77646477224E+03  0.94216338808E+03  0.12637559036E+04  0.89792989478E+02 0.  0.
        254    2    1    2    0    0  0.31376234721E+03  0.77646477224E+03  0.14394850849E+04  0.18929325827E+04  0.89985115423E+03 0.  0.
         23    2    4    4    0    0 -0.14514278315E+03  0.81215902296E+02 -0.43229998536E+02  0.18980590750E+03  0.80591559492E+02 0.  0.
         23    2    4    4    0    0  0.45890513036E+03  0.69524886994E+03  0.14827150835E+04  0.17031266752E+04  0.90727852106E+02 0.  0.
          2    1    3    3  502    0 -0.17740864688E+03 -0.33920502670E+03  0.46585072454E+03  0.60295171919E+03  0.00000000000E+00 0. -1.
         -2    1    3    3    0  502 -0.13635370033E+03 -0.43725974553E+03  0.47631266354E+03  0.66080418439E+03  0.00000000000E+00 0.  1.
         13    1    5    5    0    0 -0.12785931398E+03  0.42233486474E+02 -0.86969941772E+01  0.13493446283E+03  0.00000000000E+00 0. -1.
        -13    1    5    5    0    0 -0.17283469169E+02  0.38982415823E+02 -0.34533004359E+02  0.54871444668E+02  0.00000000000E+00 0.  1.
          4    1    6    6  503    0  0.40554750206E+03  0.56106132944E+03  0.12609246465E+04  0.14384677806E+04  0.00000000000E+00 0. -1.
         -4    1    6    6    0  503  0.53357628299E+02  0.13418754050E+03  0.22179043696E+03  0.26465889453E+03  0.00000000000E+00 0.  1.
<mgrwt>
<rscale>  0 0.20718187E+04</rscale>
<asrwt>0</asrwt>
<pdfrwt beam="1">  1        1 0.42602591E+00 0.20718187E+04</pdfrwt>
<pdfrwt beam="2">  1       -1 0.59618464E-01 0.20718187E+04</pdfrwt>
<totfact> 0.23071754E+00</totfact>
</mgrwt>
</event>
<event>
12    3  0.4769008E-008  0.1630795E+04  0.7818608E-02  0.8801850E-01
          3   -1    0    0  501    0  0.00000000000E+00  0.00000000000E+00  0.86678729198E+03  0.86678729198E+03  0.00000000000E+00 0. -1.
         -3   -1    0    0    0  501 -0.00000000000E+00 -0.00000000000E+00 -0.76705450995E+03  0.76705450995E+03  0.00000000000E+00 0.  1.
         23    2    1    2    0    0 -0.19640360932E+02  0.15072350700E+03  0.58104934492E+03  0.60739983090E+03  0.90625018662E+02 0.  0.
        254    2    1    2    0    0  0.19640360932E+02 -0.15072350700E+03 -0.48131656288E+03  0.10264419710E+04  0.89376404429E+03 0.  0.
         23    2    4    4    0    0 -0.24152825378E+03 -0.39901866493E+03 -0.86819148036E+02  0.48335125059E+03  0.92407113640E+02 0.  0.
         23    2    4    4    0    0  0.26116861471E+03  0.24829515793E+03 -0.39449741484E+03  0.54309072044E+03  0.97261449458E+02 0.  0.
          4    1    3    3  502    0 -0.46173596421E+02  0.77442580222E+02  0.40427945377E+03  0.41421157755E+03  0.00000000000E+00 0. -1.
         -4    1    3    3    0  502  0.26533235489E+02  0.73280926779E+02  0.17676989115E+03  0.19318825335E+03  0.00000000000E+00 0.  1.
         13    1    5    5    0    0 -0.23845491967E+03 -0.40429829611E+03 -0.85601346273E+02  0.47712205088E+03  0.00000000000E+00 0.  1.
        -13    1    5    5    0    0 -0.30733341090E+01  0.52796311814E+01 -0.12178017637E+01  0.62291997152E+01  0.00000000000E+00 0. -1.
          1    1    6    6  503    0  0.95621718820E+01  0.10416361151E+02 -0.60039767283E+02  0.61682326205E+02  0.00000000000E+00 0. -1.
         -1    1    6    6    0  503  0.25160644283E+03  0.23787879678E+03 -0.33445764756E+03  0.48140839423E+03  0.00000000000E+00 0.  1.
<mgrwt>
<rscale>  0 0.16307950E+04</rscale>
<asrwt>0</asrwt>
<pdfrwt beam="1">  1        3 0.13335189E+00 0.16307950E+04</pdfrwt>
<pdfrwt beam="2">  1       -3 0.11800839E+00 0.16307950E+04</pdfrwt>
<totfact> 0.64396146E-01</totfact>
</mgrwt>
</event>
<event>
12    3  0.4769008E-008  0.1645512E+04  0.7818608E-02  0.8793066E-01
         -2   -1    0    0    0  501 -0.00000000000E+00  0.00000000000E+00  0.55256511350E+03  0.55256511350E+03  0.00000000000E+00 0.  1.
          2   -1    0    0  501    0  0.00000000000E+00 -0.00000000000E+00 -0.12250633331E+04  0.12250633331E+04  0.00000000000E+00 0. -1.
         23    2    1    2    0    0  0.18574030622E+03  0.42269614476E+03  0.13016303408E+03  0.48814267448E+03  0.90384528864E+02 0.  0.
        254    2    1    2    0    0 -0.18574030622E+03 -0.42269614476E+03 -0.80266125364E+03  0.12894857721E+04  0.89740569207E+03 0.  0.
         23    2    4    4    0    0 -0.15457400794E+03 -0.91119004353E+02  0.16635992646E+03  0.26102288274E+03  0.90892922146E+02 0.  0.
         23    2    4    4    0    0 -0.31166298288E+02 -0.33157714041E+03 -0.96902118010E+03  0.10284628894E+04  0.88425839523E+02 0.  0.
          3    1    3    3  502    0  0.80121554280E+02  0.23835636275E+03  0.29947278362E+02  0.25323913324E+03  0.00000000000E+00 0. -1.
         -3    1    3    3    0  502  0.10561875194E+03  0.18433978202E+03  0.10021575571E+03  0.23490354125E+03  0.00000000000E+00 0.  1.
         13    1    5    5    0    0 -0.29748991336E+02 -0.67252036202E+02  0.70095671372E+02  0.10159351359E+03  0.00000000000E+00 0.  1.
        -13    1    5    5    0    0 -0.12482501660E+03 -0.23866968150E+02  0.96264255087E+02  0.15942936914E+03  0.00000000000E+00 0. -1.
          4    1    6    6  503    0 -0.16743982577E+02 -0.54850755319E+01 -0.63867534312E+02  0.66253369313E+02  0.00000000000E+00 0.  1.
         -4    1    6    6    0  503 -0.14422315710E+02 -0.32609206488E+03 -0.90515364579E+03  0.96220952004E+03  0.00000000000E+00 0. -1.
<mgrwt>
<rscale>  0 0.16455118E+04</rscale>
<asrwt>0</asrwt>
<pdfrwt beam="1">  1        2 0.18847128E+00 0.16455118E+04</pdfrwt>
<pdfrwt beam="2">  1       -2 0.85010018E-01 0.16455118E+04</pdfrwt>
<totfact> 0.21067603E+01</totfact>
</mgrwt>
</event>
<event>
12    3  0.4769008E-008  0.1349566E+04  0.7818608E-02  0.8991157E-01
         -2   -1    0    0    0  501 -0.00000000000E+00  0.00000000000E+00  0.75965830057E+03  0.75965830057E+03  0.00000000000E+00 0.  1.
          2   -1    0    0  501    0  0.00000000000E+00 -0.00000000000E+00 -0.59939085822E+03  0.59939085822E+03  0.00000000000E+00 0. -1.
         23    2    1    2    0    0 -0.13730586884E+03 -0.29755384779E+03 -0.11611229781E+03  0.35938712461E+03  0.91026620733E+02 0.  0.
        254    2    1    2    0    0  0.13730586884E+03  0.29755384779E+03  0.27637974016E+03  0.99966203418E+03  0.90307653488E+03 0.  0.
         23    2    4    4    0    0  0.25855104510E+03  0.48675791899E+03  0.43666680612E+03  0.70897370905E+03  0.90464943155E+02 0.  0.
         23    2    4    4    0    0 -0.12124517626E+03 -0.18920407119E+03 -0.16028706596E+03  0.29068832513E+03  0.91154734002E+02 0.  0.
          4    1    3    3  502    0 -0.94464761235E+02 -0.10957815598E+03 -0.27776322979E+02  0.14731764152E+03  0.00000000000E+00 0. -1.
         -4    1    3    3    0  502 -0.42841107604E+02 -0.18797569181E+03 -0.88335974830E+02  0.21206948310E+03  0.00000000000E+00 0.  1.
         13    1    5    5    0    0  0.11621885196E+03  0.26289708715E+03  0.17589886221E+03  0.33698977686E+03  0.00000000000E+00 0. -1.
        -13    1    5    5    0    0  0.14233219313E+03  0.22386083183E+03  0.26076794391E+03  0.37198393218E+03  0.00000000000E+00 0.  1.
          1    1    6    6  503    0 -0.45970083622E+02 -0.15142820940E+03 -0.10247061387E+03  0.18853110592E+03  0.00000000000E+00 0. -1.
         -1    1    6    6    0  503 -0.75275092634E+02 -0.37775861790E+02 -0.57816452089E+02  0.10215721921E+03  0.00000000000E+00 0.  1.
<mgrwt>
<rscale>  0 0.13495662E+04</rscale>
<asrwt>0</asrwt>
<pdfrwt beam="1">  1        2 0.92213978E-01 0.13495662E+04</pdfrwt>
<pdfrwt beam="2">  1       -2 0.11687051E+00 0.13495662E+04</pdfrwt>
<totfact> 0.27489892E+01</totfact>
</mgrwt>
</event>
<event>
12    3  0.4769008E-008  0.1666759E+04  0.7818608E-02  0.8780553E-01
         -1   -1    0    0    0  501 -0.00000000000E+00  0.00000000000E+00  0.54338626346E+03  0.54338626346E+03  0.00000000000E+00 0.  1.
          1   -1    0    0  501    0  0.00000000000E+00 -0.00000000000E+00 -0.12781361762E+04  0.12781361762E+04  0.00000000000E+00 0. -1.
         23    2    1    2    0    0 -0.24699285619E+03 -0.46242227649E+03  0.28239629175E+02  0.52840816162E+03  0.59815347595E+02 0.  0.
        254    2    1    2    0    0  0.24699285619E+03  0.46242227649E+03 -0.76298954191E+03  0.12931142780E+04  0.90285749826E+03 0.  0.
         23    2    4    4    0    0  0.21823597832E+03  0.22587491082E+03  0.13911023615E+03  0.35571412848E+03  0.92382172671E+02 0.  0.
         23    2    4    4    0    0  0.28756877871E+02  0.23654736567E+03 -0.90209977806E+03  0.93740014955E+03  0.90296271076E+02 0.  0.
          1    1    3    3  502    0 -0.12898237303E+03 -0.22107447858E+03  0.42133240955E+02  0.25939465612E+03  0.00000000000E+00 0. -1.
         -1    1    3    3    0  502 -0.11801048316E+03 -0.24134779791E+03 -0.13893611780E+02  0.26901350550E+03  0.00000000000E+00 0.  1.
         13    1    5    5    0    0  0.38049202637E+02  0.23925857561E+02 -0.10932972504E+02  0.46257089933E+02  0.00000000000E+00 0. -1.
        -13    1    5    5    0    0  0.18018677568E+03  0.20194905325E+03  0.15004320865E+03  0.30945703854E+03  0.00000000000E+00 0.  1.
          3    1    6    6  503    0  0.48877154799E+02  0.94227768535E+02 -0.47663678407E+03  0.48831390780E+03  0.00000000000E+00 0. -1.
         -3    1    6    6    0  503 -0.20120276927E+02  0.14231959714E+03 -0.42546299399E+03  0.44908624175E+03  0.00000000000E+00 0.  1.
<mgrwt>
<rscale>  0 0.16667593E+04</rscale>
<asrwt>0</asrwt>
<pdfrwt beam="1">  1        1 0.19663633E+00 0.16667593E+04</pdfrwt>
<pdfrwt beam="2">  1       -1 0.83597888E-01 0.16667593E+04</pdfrwt>
<totfact> 0.12702595E+01</totfact>
</mgrwt>
</event>
<event>
12    3  0.4769008E-008  0.1066060E+04  0.7818608E-02  0.9238918E-01
         -1   -1    0    0    0  501 -0.00000000000E+00  0.00000000000E+00  0.41706786773E+03  0.41706786773E+03  0.00000000000E+00 0.  1.
          1   -1    0    0  501    0  0.00000000000E+00 -0.00000000000E+00 -0.68123503734E+03  0.68123503734E+03  0.00000000000E+00 0. -1.
         23    2    1    2    0    0  0.91728453753E+02  0.66295315630E+02 -0.78665364072E+01  0.15110127536E+03  0.99802479514E+02 0.  0.
        254    2    1    2    0    0 -0.91728453753E+02 -0.66295315630E+02 -0.25630063320E+03  0.94720162971E+03  0.90481585676E+03 0.  0.
         23    2    4    4    0    0 -0.35657740883E+03 -0.31901209386E+03 -0.29285749762E+03  0.56842477468E+03  0.91788049533E+02 0.  0.
         23    2    4    4    0    0  0.26484895508E+03  0.25271677823E+03  0.36556864424E+02  0.37877685504E+03  0.90137464854E+02 0.  0.
          3    1    3    3  502    0  0.32312422180E+01 -0.23333180510E+02  0.62100851498E+01  0.24360693679E+02  0.00000000000E+00 0. -1.
         -3    1    3    3    0  502  0.88497211535E+02  0.89628496139E+02 -0.14076621557E+02  0.12674058168E+03  0.00000000000E+00 0.  1.
         13    1    5    5    0    0 -0.28999782166E+03 -0.30146884709E+03 -0.25306345934E+03  0.48890010921E+03  0.00000000000E+00 0.  1.
        -13    1    5    5    0    0 -0.66579587169E+02 -0.17543246771E+02 -0.39794038286E+02  0.79524665469E+02  0.00000000000E+00 0. -1.
          3    1    6    6  503    0  0.13942223413E+03  0.77463030229E+02 -0.36865018187E+01  0.15953893167E+03  0.00000000000E+00 0. -1.
         -3    1    6    6    0  503  0.12542672094E+03  0.17525374800E+03  0.40243366243E+02  0.21923792336E+03  0.00000000000E+00 0.  1.
<mgrwt>
<rscale>  0 0.10660605E+04</rscale>
<asrwt>0</asrwt>
<pdfrwt beam="1">  1        1 0.10480539E+00 0.10660605E+04</pdfrwt>
<pdfrwt beam="2">  1       -1 0.64164287E-01 0.10660605E+04</pdfrwt>
<totfact> 0.69851511E+01</totfact>
</mgrwt>
</event>
<event>
12    3  0.4769008E-008  0.2347469E+04  0.7818608E-02  0.8459436E-01
          1   -1    0    0  501    0  0.00000000000E+00  0.00000000000E+00  0.24853527310E+04  0.24853527310E+04  0.00000000000E+00 0. -1.
         -1   -1    0    0    0  501 -0.00000000000E+00 -0.00000000000E+00 -0.55430892484E+03  0.55430892484E+03  0.00000000000E+00 0.  1.
         23    2    1    2    0    0  0.98133746510E+03  0.30875113137E+03  0.80957478420E+03  0.13122813957E+04  0.91217589893E+02 0.  0.
        254    2    1    2    0    0 -0.98133746510E+03 -0.30875113137E+03  0.11214690219E+04  0.17273802601E+04  0.81718988882E+03 0.  0.
         23    2    4    4    0    0 -0.59078007278E+03 -0.37286830077E+03  0.21910419551E+03  0.73787414535E+03  0.91650105128E+02 0.  0.
         23    2    4    4    0    0 -0.39055739231E+03  0.64117169401E+02  0.90236482642E+03  0.98950611477E+03  0.90631027287E+02 0.  0.
          4    1    3    3  502    0  0.16945165082E+03  0.73072349984E+02  0.10898548967E+03  0.21431581196E+03  0.00000000000E+00 0. -1.
         -4    1    3    3    0  502  0.81188581428E+03  0.23567878139E+03  0.70058929452E+03  0.10979655837E+04  0.00000000000E+00 0.  1.
         13    1    5    5    0    0 -0.12551056705E+03 -0.76651690345E+02  0.86420018829E+02  0.17057785240E+03  0.00000000000E+00 0.  1.
        -13    1    5    5    0    0 -0.46526950573E+03 -0.29621661043E+03  0.13268417668E+03  0.56729629295E+03  0.00000000000E+00 0. -1.
          1    1    6    6  503    0 -0.52441883486E+02 -0.34803065222E+01  0.62782798253E+02  0.81877612529E+02  0.00000000000E+00 0. -1.
         -1    1    6    6    0  503 -0.33811550883E+03  0.67597475923E+02  0.83958202816E+03  0.90762850224E+03  0.00000000000E+00 0.  1.
<mgrwt>
<rscale>  0 0.23474694E+04</rscale>
<asrwt>0</asrwt>
<pdfrwt beam="1">  1        1 0.38236195E+00 0.23474694E+04</pdfrwt>
<pdfrwt beam="2">  1       -1 0.85278298E-01 0.23474694E+04</pdfrwt>
<totfact> 0.16967904E+00</totfact>
</mgrwt>
</event>
<event>
12    3  0.4769008E-008  0.1980633E+04  0.7818608E-02  0.8615729E-01
          2   -1    0    0  501    0  0.00000000000E+00  0.00000000000E+00  0.15538120561E+04  0.15538120561E+04  0.00000000000E+00 0. -1.
         -2   -1    0    0    0  501 -0.00000000000E+00 -0.00000000000E+00 -0.63117467449E+03  0.63117467449E+03  0.00000000000E+00 0.  1.
         23    2    1    2    0    0 -0.63661308669E+03  0.40599475808E+03  0.13367879278E+03  0.77204495213E+03  0.89863355863E+02 0.  0.
        254    2    1    2    0    0  0.63661308669E+03 -0.40599475808E+03  0.78895858882E+03  0.14129417784E+04  0.89657171976E+03 0.  0.
         23    2    4    4    0    0  0.41306801230E+03  0.10295026332E+03  0.72370177594E+03  0.84488800958E+03  0.94167662829E+02 0.  0.
         23    2    4    4    0    0  0.22354507439E+03 -0.50894502140E+03  0.65256812878E+02  0.56805376887E+03  0.97104055557E+02 0.  0.
          2    1    3    3  502    0 -0.99854582625E+02  0.36957825722E+02 -0.28344666158E+01  0.10651221880E+03  0.00000000000E+00 0. -1.
         -2    1    3    3    0  502 -0.53675850406E+03  0.36903693236E+03  0.13651325939E+03  0.66553273332E+03  0.00000000000E+00 0.  1.
         13    1    5    5    0    0  0.28511094152E+03  0.94884780153E+02  0.57314447379E+03  0.64713673849E+03  0.00000000000E+00 0. -1.
        -13    1    5    5    0    0  0.12795707079E+03  0.80654831633E+01  0.15055730216E+03  0.19775127108E+03  0.00000000000E+00 0.  1.
          2    1    6    6  503    0  0.19291849686E+03 -0.32920765276E+03  0.34192382136E+02  0.38309834777E+03  0.00000000000E+00 0. -1.
         -2    1    6    6    0  503  0.30626577528E+02 -0.17973736864E+03  0.31064430741E+02  0.18495542110E+03  0.00000000000E+00 0.  1.
<mgrwt>
<rscale>  0 0.19806330E+04</rscale>
<asrwt>0</asrwt>
<pdfrwt beam="1">  1        2 0.23904801E+00 0.19806330E+04</pdfrwt>
<pdfrwt beam="2">  1       -2 0.97103797E-01 0.19806330E+04</pdfrwt>
<totfact> 0.97527749E+00</totfact>
</mgrwt>
</event>
<event>
12    3  0.4769008E-008  0.1793961E+04  0.7818608E-02  0.8709518E-01
          1   -1    0    0  501    0  0.00000000000E+00  0.00000000000E+00  0.19148779719E+04  0.19148779719E+04  0.00000000000E+00 0. -1.
         -1   -1    0    0    0  501 -0.00000000000E+00 -0.00000000000E+00 -0.42016980161E+03  0.42016980161E+03  0.00000000000E+00 0.  1.
         23    2    1    2    0    0 -0.28911743015E+03  0.17200887137E+02  0.13488803032E+04  0.13829508840E+04  0.95866137463E+02 0.  0.
        254    2    1    2    0    0  0.28911743015E+03 -0.17200887137E+02  0.14582786704E+03  0.95209688944E+03  0.89517482156E+03 0.  0.
         23    2    4    4    0    0  0.33745031642E+03 -0.40205657553E+03  0.14990277261E+03  0.55285179878E+03  0.87476077859E+02 0.  0.
         23    2    4    4    0    0 -0.48332886268E+02  0.38485568839E+03 -0.40749055704E+01  0.39924509067E+03  0.94499041194E+02 0.  0.
          2    1    3    3  502    0 -0.28847100399E+03  0.29327327527E+02  0.12427555165E+04  0.12761335691E+04  0.00000000000E+00 0. -1.
         -2    1    3    3    0  502 -0.64642615767E+00 -0.12126440390E+02  0.10612478672E+03  0.10681731498E+03  0.00000000000E+00 0.  1.
         13    1    5    5    0    0  0.45654516538E+00  0.41350782877E+01 -0.11174938513E+00  0.41617056430E+01  0.00000000000E+00 0.  1.
        -13    1    5    5    0    0  0.33699377125E+03 -0.40619165381E+03  0.15001452200E+03  0.54869009313E+03  0.00000000000E+00 0. -1.
          2    1    6    6  503    0 -0.60496091469E+02  0.20247381196E+03 -0.33964535315E+02  0.21403039801E+03  0.00000000000E+00 0. -1.
         -2    1    6    6    0  503  0.12163205201E+02  0.18238187643E+03  0.29889629744E+02  0.18521469266E+03  0.00000000000E+00 0.  1.
<mgrwt>
<rscale>  0 0.17939609E+04</rscale>
<asrwt>0</asrwt>
<pdfrwt beam="1">  1        1 0.29459661E+00 0.17939609E+04</pdfrwt>
<pdfrwt beam="2">  1       -1 0.64641509E-01 0.17939609E+04</pdfrwt>
<totfact> 0.77987980E+00</totfact>
</mgrwt>
</event>
<event>
12    3  0.4769008E-008  0.2563625E+04  0.7818608E-02  0.8380663E-01
          1   -1    0    0  501    0  0.00000000000E+00  0.00000000000E+00  0.28421896184E+04  0.28421896184E+04  0.00000000000E+00 0. -1.
         -1   -1    0    0    0  501 -0.00000000000E+00 -0.00000000000E+00 -0.57809060195E+03  0.57809060195E+03  0.00000000000E+00 0.  1.
         23    2    1    2    0    0 -0.64731717885E+03 -0.17943641016E+03 -0.21421658146E+03  0.71111149650E+03  0.92595147564E+02 0.  0.
        254    2    1    2    0    0  0.64731717885E+03  0.17943641016E+03  0.24783155979E+04  0.27091687238E+04  0.86390393916E+03 0.  0.
         23    2    4    4    0    0 -0.78653281278E+02 -0.22599842902E+03  0.64161921119E+03  0.69088453197E+03  0.91567438365E+02 0.  0.
         23    2    4    4    0    0  0.72597046013E+03  0.40543483918E+03  0.18366963867E+04  0.20182841919E+04  0.92773619023E+02 0.  0.
          4    1    3    3  502    0 -0.62180639218E+03 -0.18795380839E+03 -0.19560043036E+03  0.67840205764E+03  0.00000000000E+00 0.  1.
         -4    1    3    3    0  502 -0.25510786671E+02  0.85173982289E+01 -0.18616151095E+02  0.32709438863E+02  0.00000000000E+00 0. -1.
         13    1    5    5    0    0 -0.90685270063E+02 -0.14982419730E+03  0.49756547205E+03  0.52748697357E+03  0.00000000000E+00 0.  1.
        -13    1    5    5    0    0  0.12031988785E+02 -0.76174231718E+02  0.14405373914E+03  0.16339755840E+03  0.00000000000E+00 0. -1.
          1    1    6    6  503    0  0.25972770974E+03  0.19355077136E+03  0.74995069096E+03  0.81691273902E+03  0.00000000000E+00 0. -1.
         -1    1    6    6    0  503  0.46624275039E+03  0.21188406782E+03  0.10867456958E+04  0.12013714529E+04  0.00000000000E+00 0.  1.
<mgrwt>
<rscale>  0 0.25636249E+04</rscale>
<asrwt>0</asrwt>
<pdfrwt beam="1">  1        1 0.43725994E+00 0.25636249E+04</pdfrwt>
<pdfrwt beam="2">  1       -1 0.88937017E-01 0.25636249E+04</pdfrwt>
<totfact> 0.85152618E-01</totfact>
</mgrwt>
</event>
<event>
12    3  0.4769008E-008  0.1481197E+04  0.7818608E-02  0.8897054E-01
         -2   -1    0    0    0  501 -0.00000000000E+00  0.00000000000E+00  0.28671410703E+03  0.28671410703E+03  0.00000000000E+00 0.  1.
          2   -1    0    0  501    0  0.00000000000E+00 -0.00000000000E+00 -0.19130069050E+04  0.19130069050E+04  0.00000000000E+00 0. -1.
         23    2    1    2    0    0  0.59016971927E+02  0.22733599567E+03  0.69673941467E+02  0.26129615054E+03  0.90865627510E+02 0.  0.
        254    2    1    2    0    0 -0.59016971927E+02 -0.22733599567E+03 -0.16959667394E+04  0.19384248615E+04  0.90885813221E+03 0.  0.
         23    2    4    4    0    0  0.51282476365E+02 -0.54404349359E+03 -0.12911635649E+04  0.14049511977E+04  0.90395249266E+02 0.  0.
         23    2    4    4    0    0 -0.11029944829E+03  0.31670749792E+03 -0.40480317446E+03  0.53347366380E+03  0.90878668478E+02 0.  0.
          3    1    3    3  502    0  0.50532366771E+01 -0.49230015818E+01 -0.78598044044E+01  0.10561613076E+02  0.00000000000E+00 0. -1.
         -3    1    3    3    0  502  0.53963735250E+02  0.23225899725E+03  0.77533745871E+02  0.25073453746E+03  0.00000000000E+00 0.  1.
         13    1    5    5    0    0  0.77418284595E+00 -0.10850274105E+03 -0.17691657597E+03  0.20754016244E+03  0.00000000000E+00 0.  1.
        -13    1    5    5    0    0  0.50508293519E+02 -0.43554075254E+03 -0.11142469890E+04  0.11974110352E+04  0.00000000000E+00 0. -1.
          4    1    6    6  503    0 -0.11540094025E+03  0.26117128276E+03 -0.29635995869E+03  0.41153012170E+03  0.00000000000E+00 0. -1.
         -4    1    6    6    0  503  0.51014919555E+01  0.55536215156E+02 -0.10844321577E+03  0.12194354210E+03  0.00000000000E+00 0.  1.
<mgrwt>
<rscale>  0 0.14811969E+04</rscale>
<asrwt>0</asrwt>
<pdfrwt beam="1">  1        2 0.29430875E+00 0.14811969E+04</pdfrwt>
<pdfrwt beam="2">  1       -2 0.44109863E-01 0.14811969E+04</pdfrwt>
<totfact> 0.35225789E+01</totfact>
</mgrwt>
</event>
<event>
12    3  0.4769008E-008  0.2116564E+04  0.7818608E-02  0.8553982E-01
          2   -1    0    0  501    0  0.00000000000E+00  0.00000000000E+00  0.31092553720E+04  0.31092553720E+04  0.00000000000E+00 0.  1.
         -2   -1    0    0    0  501 -0.00000000000E+00 -0.00000000000E+00 -0.36020220036E+03  0.36020220036E+03  0.00000000000E+00 0. -1.
         23    2    1    2    0    0  0.67017972779E+03  0.34528149416E+03  0.18217792889E+04  0.19737859699E+04  0.92688184497E+02 0.  0.
        254    2    1    2    0    0 -0.67017972779E+03 -0.34528149416E+03  0.92727388270E+03  0.14956716025E+04  0.89935338503E+03 0.  0.
         23    2    4    4    0    0 -0.82269727383E+02 -0.32310422237E+03 -0.52317579682E+02  0.34939442180E+03  0.90413971710E+02 0.  0.
         23    2    4    4    0    0 -0.58791000041E+03 -0.22177271789E+02  0.97959146238E+03  0.11462771807E+04  0.90674923847E+02 0.  0.
          4    1    3    3  502    0  0.27951432517E+03  0.12911721701E+03  0.85912791600E+03  0.91263371062E+03  0.00000000000E+00 0. -1.
         -4    1    3    3    0  502  0.39066540263E+03  0.21616427715E+03  0.96265137291E+03  0.10611522592E+04  0.00000000000E+00 0.  1.
         13    1    5    5    0    0  0.13567365804E+02 -0.56849494738E+02  0.10869050424E+02  0.59448084275E+02  0.00000000000E+00 0. -1.
        -13    1    5    5    0    0 -0.95837093187E+02 -0.26625472763E+03 -0.63186630106E+02  0.28994633752E+03  0.00000000000E+00 0.  1.
          2    1    6    6  503    0 -0.73285104220E+02  0.10851726291E+02  0.77650042083E+02  0.10732192460E+03  0.00000000000E+00 0. -1.
         -2    1    6    6    0  503 -0.51462489619E+03 -0.33028998080E+02  0.90194142030E+03  0.10389552561E+04  0.00000000000E+00 0.  1.
<mgrwt>
<rscale>  0 0.21165638E+04</rscale>
<asrwt>0</asrwt>
<pdfrwt beam="1">  1        2 0.47834696E+00 0.21165638E+04</pdfrwt>
<pdfrwt beam="2">  1       -2 0.55415725E-01 0.21165638E+04</pdfrwt>
<totfact> 0.41902787E+00</totfact>
</mgrwt>
</event>
<event>
12    3  0.4769008E-008  0.1181960E+04  0.7818608E-02  0.9128795E-01
         -1   -1    0    0    0  501 -0.00000000000E+00  0.00000000000E+00  0.15146781731E+03  0.15146781731E+03  0.00000000000E+00 0.  1.
          1   -1    0    0  501    0  0.00000000000E+00 -0.00000000000E+00 -0.23058200356E+04  0.23058200356E+04  0.00000000000E+00 0. -1.
         23    2    1    2    0    0 -0.20558492128E+03  0.14394860666E+03 -0.57055692565E+03  0.62980085281E+03  0.90152912216E+02 0.  0.
        254    2    1    2    0    0  0.20558492128E+03 -0.14394860666E+03 -0.15837952927E+04  0.18274870001E+04  0.87653570681E+03 0.  0.
         23    2    4    4    0    0 -0.10633898276E+03  0.19057316638E+03 -0.11986286681E+04  0.12219890733E+04  0.94448400378E+02 0.  0.
         23    2    4    4    0    0  0.31192390404E+03 -0.33452177304E+03 -0.38516662458E+03  0.60549792681E+03  0.95252675192E+02 0.  0.
          1    1    3    3  502    0 -0.13614728770E+03  0.93762865478E+02 -0.46701311502E+03  0.49540771945E+03  0.00000000000E+00 0. -1.
         -1    1    3    3    0  502 -0.69437633583E+02  0.50185741185E+02 -0.10354381063E+03  0.13439313337E+03  0.00000000000E+00 0.  1.
         13    1    5    5    0    0 -0.87611242725E+02  0.63449766277E+02 -0.60750938689E+03  0.61706503535E+03  0.00000000000E+00 0.  1.
        -13    1    5    5    0    0 -0.18727740035E+02  0.12712340010E+03 -0.59111928120E+03  0.60492403797E+03  0.00000000000E+00 0. -1.
          2    1    6    6  503    0  0.10996056581E+03 -0.18704848052E+03 -0.17135224368E+03  0.27647794037E+03  0.00000000000E+00 0. -1.
         -2    1    6    6    0  503  0.20196333823E+03 -0.14747329252E+03 -0.21381438090E+03  0.32901998644E+03  0.00000000000E+00 0.  1.
<mgrwt>
<rscale>  0 0.11819603E+04</rscale>
<asrwt>0</asrwt>
<pdfrwt beam="1">  1        1 0.35474151E+00 0.11819603E+04</pdfrwt>
<pdfrwt beam="2">  1       -1 0.23302743E-01 0.11819603E+04</pdfrwt>
<totfact> 0.29004900E+01</totfact>
</mgrwt>
</event>
<event>
12    3  0.4769008E-008  0.1958244E+04  0.7818608E-02  0.8626395E-01
         -1   -1    0    0    0  501 -0.00000000000E+00  0.00000000000E+00  0.56313160810E+03  0.56313160810E+03  0.00000000000E+00 0.  1.
          1   -1    0    0  501    0  0.00000000000E+00 -0.00000000000E+00 -0.17024091092E+04  0.17024091092E+04  0.00000000000E+00 0. -1.
         23    2    1    2    0    0  0.33722313884E+03 -0.51105553227E+03  0.82585848837E+02  0.62560633506E+03  0.98314096731E+02 0.  0.
        254    2    1    2    0    0 -0.33722313884E+03  0.51105553227E+03 -0.12218633499E+04  0.16399343822E+04  0.90638707495E+03 0.  0.
         23    2    4    4    0    0 -0.44048420333E+03  0.71716427306E+03 -0.94696965311E+03  0.12701145304E+04  0.89935913289E+02 0.  0.
         23    2    4    4    0    0  0.10326106450E+03 -0.20610874079E+03 -0.27489369680E+03  0.36981985179E+03  0.89758106979E+02 0.  0.
          3    1    3    3  502    0  0.92890308407E+02 -0.18442348221E+03 -0.12117581806E+02  0.20685131369E+03  0.00000000000E+00 0. -1.
         -3    1    3    3    0  502  0.24433283043E+03 -0.32663205006E+03  0.94703430643E+02  0.41875502137E+03  0.00000000000E+00 0.  1.
         13    1    5    5    0    0 -0.10103704830E+00  0.15597619438E+01  0.20458242216E+01  0.25745800730E+01  0.00000000000E+00 0. -1.
        -13    1    5    5    0    0 -0.44038316629E+03  0.71560451112E+03 -0.94901547733E+03  0.12675399503E+04  0.00000000000E+00 0.  1.
          1    1    6    6  503    0 -0.50853761484E+01 -0.81696628152E+02 -0.79706724827E+02  0.11425131108E+03  0.00000000000E+00 0. -1.
         -1    1    6    6    0  503  0.10834644065E+03 -0.12441211264E+03 -0.19518697197E+03  0.25556854071E+03  0.00000000000E+00 0.  1.
<mgrwt>
<rscale>  0 0.19582445E+04</rscale>
<asrwt>0</asrwt>
<pdfrwt beam="1">  1        1 0.26190909E+00 0.19582445E+04</pdfrwt>
<pdfrwt beam="2">  1       -1 0.86635632E-01 0.19582445E+04</pdfrwt>
<totfact> 0.58050758E+00</totfact>
</mgrwt>
</event>
<event>
12    3  0.4769008E-008  0.1357303E+04  0.7818608E-02  0.8985318E-01
          2   -1    0    0  501    0  0.00000000000E+00  0.00000000000E+00  0.26746636848E+03  0.26746636848E+03  0.00000000000E+00 0. -1.
         -2   -1    0    0    0  501 -0.00000000000E+00 -0.00000000000E+00 -0.17219659235E+04  0.17219659235E+04  0.00000000000E+00 0.  1.
         23    2    1    2    0    0  0.34928963756E+03 -0.83693330967E+02 -0.35390180504E+03  0.51440907598E+03  0.10179580191E+03 0.  0.
        254    2    1    2    0    0 -0.34928963756E+03  0.83693330967E+02 -0.11005977500E+04  0.14750232160E+04  0.91398591669E+03 0.  0.
         23    2    4    4    0    0 -0.28472752659E+01 -0.31720739566E+03 -0.11074533677E+03  0.34868536341E+03  0.93211127046E+02 0.  0.
         23    2    4    4    0    0 -0.34644236229E+03  0.40090072662E+03 -0.98985241320E+03  0.11263378526E+04  0.89919159384E+02 0.  0.
          3    1    3    3  502    0  0.18524986717E+03 -0.50066970637E+02 -0.25767154502E+03  0.32127688984E+03  0.00000000000E+00 0. -1.
         -3    1    3    3    0  502  0.16403977039E+03 -0.33626360331E+02 -0.96230260025E+02  0.19313218614E+03  0.00000000000E+00 0.  1.
         13    1    5    5    0    0  0.35129097485E+01  0.51711350674E+01 -0.82394163781E+01  0.10342589378E+02  0.00000000000E+00 0. -1.
        -13    1    5    5    0    0 -0.63601850145E+01 -0.32237853072E+03 -0.10250592039E+03  0.33834277403E+03  0.00000000000E+00 0.  1.
          1    1    6    6  503    0 -0.14291520172E+03  0.10387833627E+03 -0.29952251361E+03  0.34774875958E+03  0.00000000000E+00 0. -1.
         -1    1    6    6    0  503 -0.20352716057E+03  0.29702239036E+03 -0.69032989958E+03  0.77858909299E+03  0.00000000000E+00 0.  1.
<mgrwt>
<rscale>  0 0.13573032E+04</rscale>
<asrwt>0</asrwt>
<pdfrwt beam="1">  1        2 0.41148674E-01 0.13573032E+04</pdfrwt>
<pdfrwt beam="2">  1       -2 0.26491782E+00 0.13573032E+04</pdfrwt>
<totfact> 0.63586087E+00</totfact>
</mgrwt>
</event>
<event>
12    3  0.4769008E-008  0.2012477E+04  0.7818608E-02  0.8600809E-01
          2   -1    0    0  501    0  0.00000000000E+00  0.00000000000E+00  0.95379326731E+03  0.95379326731E+03  0.00000000000E+00 0. -1.
         -2   -1    0    0    0  501 -0.00000000000E+00 -0.00000000000E+00 -0.10615676026E+04  0.10615676026E+04  0.00000000000E+00 0.  1.
         23    2    1    2    0    0  0.27321609755E+03 -0.39834366015E+03  0.54813281877E+03  0.73621452397E+03  0.90760843688E+02 0.  0.
        254    2    1    2    0    0 -0.27321609755E+03  0.39834366015E+03 -0.65590715402E+03  0.12791463459E+04  0.98624361694E+03 0.  0.
         23    2    4    4    0    0 -0.36270119736E+03 -0.82801969886E+02 -0.67918954563E+03  0.78029503464E+03  0.95674329912E+02 0.  0.
         23    2    4    4    0    0  0.89485099807E+02  0.48114563004E+03  0.23282391609E+02  0.49885131125E+03  0.93818231642E+02 0.  0.
          3    1    3    3  502    0  0.14539078792E+03 -0.14569287596E+03  0.26791066240E+03  0.33784762593E+03  0.00000000000E+00 0. -1.
         -3    1    3    3    0  502  0.12782530963E+03 -0.25265078419E+03  0.28022215637E+03  0.39836689804E+03  0.00000000000E+00 0.  1.
         13    1    5    5    0    0 -0.33004209398E+03 -0.85077013999E+02 -0.55018504964E+03  0.64720126001E+03  0.00000000000E+00 0. -1.
        -13    1    5    5    0    0 -0.32659103380E+02  0.22750441128E+01 -0.12900449599E+03  0.13309377463E+03  0.00000000000E+00 0.  1.
          1    1    6    6  503    0  0.46637749386E+02  0.34935168535E+03 -0.21784641639E+02  0.35312356242E+03  0.00000000000E+00 0. -1.
         -1    1    6    6    0  503  0.42847350421E+02  0.13179394469E+03  0.45067033248E+02  0.14572774884E+03  0.00000000000E+00 0.  1.
<mgrwt>
<rscale>  0 0.20124771E+04</rscale>
<asrwt>0</asrwt>
<pdfrwt beam="1">  1        2 0.14673743E+00 0.20124771E+04</pdfrwt>
<pdfrwt beam="2">  1       -2 0.16331809E+00 0.20124771E+04</pdfrwt>
<totfact> 0.59649034E+00</totfact>
</mgrwt>
</event>
<event>
12    3  0.4769008E-008  0.1791509E+04  0.7818608E-02  0.8710828E-01
          2   -1    0    0  501    0  0.00000000000E+00  0.00000000000E+00  0.84731539441E+03  0.84731539441E+03  0.00000000000E+00 0. -1.
         -2   -1    0    0    0  501 -0.00000000000E+00 -0.00000000000E+00 -0.94696233868E+03  0.94696233868E+03  0.00000000000E+00 0.  1.
         23    2    1    2    0    0 -0.18175678869E+03 -0.81731386894E+01  0.60403021759E+03  0.63740548460E+03  0.91273860462E+02 0.  0.
        254    2    1    2    0    0  0.18175678869E+03  0.81731386894E+01 -0.70367716186E+03  0.11568722485E+04  0.90004973237E+03 0.  0.
         23    2    4    4    0    0  0.45431089892E+03 -0.17154714257E+03 -0.16701557592E+03  0.52211010300E+03  0.94222831907E+02 0.  0.
         23    2    4    4    0    0 -0.27255411023E+03  0.17972028126E+03 -0.53666158595E+03  0.63476214548E+03  0.91280890674E+02 0.  0.
          2    1    3    3  502    0 -0.16214769444E+03 -0.39192853657E+02  0.49040020456E+03  0.51799644326E+03  0.00000000000E+00 0. -1.
         -2    1    3    3    0  502 -0.19609094251E+02  0.31019714968E+02  0.11363001303E+03  0.11940904135E+03  0.00000000000E+00 0.  1.
         13    1    5    5    0    0  0.20606700884E+03 -0.65043157232E+02 -0.12233259559E+03  0.24831328675E+03  0.00000000000E+00 0.  1.
        -13    1    5    5    0    0  0.24824389008E+03 -0.10650398534E+03 -0.44682980331E+02  0.27379681625E+03  0.00000000000E+00 0. -1.
          2    1    6    6  503    0 -0.16285632778E+03  0.88167587196E+02 -0.38002591745E+03  0.42274744809E+03  0.00000000000E+00 0. -1.
         -2    1    6    6    0  503 -0.10969778245E+03  0.91552694064E+02 -0.15663566850E+03  0.21201469739E+03  0.00000000000E+00 0.  1.
<mgrwt>
<rscale>  0 0.17915086E+04</rscale>
<asrwt>0</asrwt>
<pdfrwt beam="1">  1        2 0.13035621E+00 0.17915086E+04</pdfrwt>
<pdfrwt beam="2">  1       -2 0.14568651E+00 0.17915086E+04</pdfrwt>
<totfact> 0.97430479E+00</totfact>
</mgrwt>
</event>
<event>
12    3  0.4769008E-008  0.1635237E+04  0.7818608E-02  0.8799188E-01
          2   -1    0    0  501    0  0.00000000000E+00  0.00000000000E+00  0.11532447179E+04  0.11532447179E+04  0.00000000000E+00 0. -1.
         -2   -1    0    0    0  501 -0.00000000000E+00 -0.00000000000E+00 -0.57966917466E+03  0.57966917466E+03  0.00000000000E+00 0.  1.
         23    2    1    2    0    0  0.67039046938E+00 -0.52808683746E+03  0.39922034419E+03  0.66870404762E+03  0.94403722192E+02 0.  0.
        254    2    1    2    0    0 -0.67039046938E+00  0.52808683746E+03  0.17435519904E+03  0.10642098449E+04  0.90734045500E+03 0.  0.
         23    2    4    4    0    0 -0.29648944421E+03  0.64693576756E+03  0.13562725666E+03  0.73030102410E+03  0.92265677118E+02 0.  0.
         23    2    4    4    0    0  0.29581905374E+03 -0.11884893009E+03  0.38727942387E+02  0.33390882083E+03  0.91439960420E+02 0.  0.
          1    1    3    3  502    0  0.22812400671E+02 -0.45670517885E+03  0.31064658332E+03  0.55281219753E+03  0.00000000000E+00 0. -1.
         -1    1    3    3    0  502 -0.22142010202E+02 -0.71381658614E+02  0.88573760868E+02  0.11589185009E+03  0.00000000000E+00 0.  1.
         13    1    5    5    0    0 -0.69476406574E+02  0.14993656242E+03  0.71867925716E+02  0.18020250433E+03  0.00000000000E+00 0.  1.
        -13    1    5    5    0    0 -0.22701303764E+03  0.49699920514E+03  0.63759330941E+02  0.55009851977E+03  0.00000000000E+00 0. -1.
          3    1    6    6  503    0  0.29019471657E+03 -0.92495261098E+02  0.33018452391E+02  0.30636345254E+03  0.00000000000E+00 0. -1.
         -3    1    6    6    0  503  0.56243371703E+01 -0.26353668995E+02  0.57094899955E+01  0.27545368288E+02  0.00000000000E+00 0.  1.
<mgrwt>
<rscale>  0 0.16352375E+04</rscale>
<asrwt>0</asrwt>
<pdfrwt beam="1">  1        2 0.17742226E+00 0.16352375E+04</pdfrwt>
<pdfrwt beam="2">  1       -2 0.89179873E-01 0.16352375E+04</pdfrwt>
<totfact> 0.20865882E+01</totfact>
</mgrwt>
</event>
<event>
12    3  0.4769008E-008  0.1676806E+04  0.7818608E-02  0.8774705E-01
          2   -1    0    0  501    0  0.00000000000E+00  0.00000000000E+00  0.48950539421E+03  0.48950539421E+03  0.00000000000E+00 0. -1.
         -2   -1    0    0    0  501 -0.00000000000E+00 -0.00000000000E+00 -0.14359786957E+04  0.14359786957E+04  0.00000000000E+00 0.  1.
         23    2    1    2    0    0 -0.46973510735E+03  0.25288469668E+03 -0.35778640959E+02  0.54257257336E+03  0.92212500884E+02 0.  0.
        254    2    1    2    0    0  0.46973510735E+03 -0.25288469668E+03 -0.91069466050E+03  0.13829115165E+04  0.89357582608E+03 0.  0.
         23    2    4    4    0    0  0.21723851968E+03 -0.69667160225E+02 -0.10131068495E+04  0.10424300083E+04  0.90712436579E+02 0.  0.
         23    2    4    4    0    0  0.25249658767E+03 -0.18321753646E+03  0.10241218898E+03  0.34048150819E+03  0.90090002311E+02 0.  0.
          2    1    3    3  502    0 -0.37295934779E+03  0.17489663929E+03 -0.58993822344E+02  0.41613433001E+03  0.00000000000E+00 0. -1.
         -2    1    3    3    0  502 -0.96775759562E+02  0.77988057392E+02  0.23215181385E+02  0.12643824335E+03  0.00000000000E+00 0.  1.
         13    1    5    5    0    0  0.91997134444E+02 -0.10547485857E+02 -0.24455073272E+03  0.26149528309E+03  0.00000000000E+00 0. -1.
        -13    1    5    5    0    0  0.12524138524E+03 -0.59119674368E+02 -0.76855611676E+03  0.78093472524E+03  0.00000000000E+00 0.  1.
          3    1    6    6  503    0  0.18445164203E+03 -0.16751224640E+03  0.10550084458E+03  0.27057935832E+03  0.00000000000E+00 0. -1.
         -3    1    6    6    0  503  0.68044945639E+02 -0.15705290057E+02 -0.30886555998E+01  0.69902149869E+02  0.00000000000E+00 0.  1.
<mgrwt>
<rscale>  0 0.16768057E+04</rscale>
<asrwt>0</asrwt>
<pdfrwt beam="1">  1        2 0.75308523E-01 0.16768057E+04</pdfrwt>
<pdfrwt beam="2">  1       -2 0.22091980E+00 0.16768057E+04</pdfrwt>
<totfact> 0.58634819E+00</totfact>
</mgrwt>
</event>
<event>
12    3  0.4769008E-008  0.1612194E+04  0.7818608E-02  0.8813092E-01
          2   -1    0    0  501    0  0.00000000000E+00  0.00000000000E+00  0.21170137660E+04  0.21170137660E+04  0.00000000000E+00 0. -1.
         -2   -1    0    0    0  501 -0.00000000000E+00 -0.00000000000E+00 -0.30693807418E+03  0.30693807418E+03  0.00000000000E+00 0.  1.
         23    2    1    2    0    0  0.69998082686E+02 -0.16920313837E+03 -0.14672644947E+03  0.25191856972E+03  0.91678139046E+02 0.  0.
        254    2    1    2    0    0 -0.69998082686E+02  0.16920313837E+03  0.19568021413E+04  0.21720332705E+04  0.92472940595E+03 0.  0.
         23    2    4    4    0    0  0.37661896352E+03 -0.10587620454E+03  0.68110986527E+03  0.79007676961E+03  0.85199993753E+02 0.  0.
         23    2    4    4    0    0 -0.44661704621E+03  0.27507934291E+03  0.12756922760E+04  0.13819565009E+04  0.85308594507E+02 0.  0.
          2    1    3    3  502    0  0.26116504056E+02 -0.32480028896E+02  0.62090268315E+01  0.42137585068E+02  0.00000000000E+00 0. -1.
         -2    1    3    3    0  502  0.43881578630E+02 -0.13672310947E+03 -0.15293547630E+03  0.20978098465E+03  0.00000000000E+00 0.  1.
         13    1    5    5    0    0  0.34960825446E+03 -0.10348657449E+03  0.57740172786E+03  0.68288224316E+03  0.00000000000E+00 0. -1.
        -13    1    5    5    0    0  0.27010709068E+02 -0.23896300417E+01  0.10370813741E+03  0.10719452645E+03  0.00000000000E+00 0.  1.
          3    1    6    6  503    0 -0.37175785187E+03  0.19614751350E+03  0.10622935108E+04  0.11424295385E+04  0.00000000000E+00 0. -1.
         -3    1    6    6    0  503 -0.74859194335E+02  0.78931829410E+02  0.21339876527E+03  0.23952696235E+03  0.00000000000E+00 0.  1.
<mgrwt>
<rscale>  0 0.16121937E+04</rscale>
<asrwt>0</asrwt>
<pdfrwt beam="1">  1        2 0.32569442E+00 0.16121937E+04</pdfrwt>
<pdfrwt beam="2">  1       -2 0.47221244E-01 0.16121937E+04</pdfrwt>
<totfact> 0.23420043E+01</totfact>
</mgrwt>
</event>
<event>
12    3  0.4769008E-008  0.1207807E+04  0.7818608E-02  0.9106050E-01
          1   -1    0    0  501    0  0.00000000000E+00  0.00000000000E+00  0.14521666152E+04  0.14521666152E+04  0.00000000000E+00 0. -1.
         -1   -1    0    0    0  501 -0.00000000000E+00 -0.00000000000E+00 -0.25114176795E+03  0.25114176795E+03  0.00000000000E+00 0.  1.
         23    2    1    2    0    0 -0.24017014048E+03 -0.23278397913E+02  0.39194709301E+03  0.46941957008E+03  0.92242229270E+02 0.  0.
        254    2    1    2    0    0  0.24017014048E+03  0.23278397913E+02  0.80907775427E+03  0.12338888131E+04  0.89980620717E+03 0.  0.
         23    2    4    4    0    0 -0.60773240678E+02 -0.34149741708E+03  0.62253240706E+03  0.71760496006E+03  0.84240181637E+02 0.  0.
         23    2    4    4    0    0  0.30094338116E+03  0.36477581499E+03  0.18654534721E+03  0.51628385304E+03  0.90119567707E+02 0.  0.
          1    1    3    3  502    0 -0.11070819543E+03 -0.21116814501E+02  0.26553619599E+03  0.28846437521E+03  0.00000000000E+00 0. -1.
         -1    1    3    3    0  502 -0.12946194505E+03 -0.21615834121E+01  0.12641089703E+03  0.18095519486E+03  0.00000000000E+00 0.  1.
         13    1    5    5    0    0 -0.64493229394E+01 -0.15181011344E+02  0.53210537176E+01  0.17331199741E+02  0.00000000000E+00 0.  1.
        -13    1    5    5    0    0 -0.54323917739E+02 -0.32631640574E+03  0.61721135334E+03  0.70027376031E+03  0.00000000000E+00 0. -1.
          1    1    6    6  503    0  0.20373109547E+03  0.20312708401E+03  0.75649228666E+02  0.29747231353E+03  0.00000000000E+00 0. -1.
         -1    1    6    6    0  503  0.97212285690E+02  0.16164873099E+03  0.11089611854E+03  0.21881153952E+03  0.00000000000E+00 0.  1.
<mgrwt>
<rscale>  0 0.12078074E+04</rscale>
<asrwt>0</asrwt>
<pdfrwt beam="1">  1        1 0.22341024E+00 0.12078074E+04</pdfrwt>
<pdfrwt beam="2">  1       -1 0.38637196E-01 0.12078074E+04</pdfrwt>
<totfact> 0.45323033E+01</totfact>
</mgrwt>
</event>
<event>
12    3  0.4769008E-008  0.2950702E+04  0.7818608E-02  0.8257950E-01
          1   -1    0    0  501    0  0.00000000000E+00  0.00000000000E+00  0.11938466139E+04  0.11938466139E+04  0.00000000000E+00 0. -1.
         -1   -1    0    0    0  501 -0.00000000000E+00 -0.00000000000E+00 -0.18232332217E+04  0.18232332217E+04  0.00000000000E+00 0.  1.
         23    2    1    2    0    0 -0.27333865316E+02 -0.28266400368E+03 -0.16202700529E+04  0.16474356890E+04  0.90128940676E+02 0.  0.
        254    2    1    2    0    0  0.27333865316E+02  0.28266400368E+03  0.99088344504E+03  0.13696441466E+04  0.90190299226E+03 0.  0.
         23    2    4    4    0    0 -0.30468911009E+03  0.32365063580E+03  0.18216617143E+03  0.48869470643E+03  0.89737473873E+02 0.  0.
         23    2    4    4    0    0  0.33202297541E+03 -0.40986632113E+02  0.80871727360E+03  0.88094944015E+03  0.10064356547E+03 0.  0.
          1    1    3    3  502    0  0.28935663909E+02 -0.48768845675E+02 -0.26798778369E+03  0.27392175007E+03  0.00000000000E+00 0. -1.
         -1    1    3    3    0  502 -0.56269529226E+02 -0.23389515801E+03 -0.13522822692E+04  0.13735139389E+04  0.00000000000E+00 0.  1.
         13    1    5    5    0    0 -0.15994120917E+03  0.17320990244E+03  0.48191762517E+02  0.24063521494E+03  0.00000000000E+00 0.  1.
        -13    1    5    5    0    0 -0.14474790092E+03  0.15044073336E+03  0.13397440892E+03  0.24805949149E+03  0.00000000000E+00 0. -1.
          2    1    6    6  503    0  0.14491458423E+03 -0.23712494052E+02  0.23365086949E+03  0.27596240308E+03  0.00000000000E+00 0. -1.
         -2    1    6    6    0  503  0.18710839118E+03 -0.17274138061E+02  0.57506640411E+03  0.60498703707E+03  0.00000000000E+00 0.  1.
<mgrwt>
<rscale>  0 0.29507022E+04</rscale>
<asrwt>0</asrwt>
<pdfrwt beam="1">  1        1 0.18366871E+00 0.29507022E+04</pdfrwt>
<pdfrwt beam="2">  1       -1 0.28049742E+00 0.29507022E+04</pdfrwt>
<totfact> 0.40763591E-01</totfact>
</mgrwt>
</event>
<event>
12    3  0.4769008E-008  0.1582854E+04  0.7818608E-02  0.8831151E-01
         -1   -1    0    0    0  501 -0.00000000000E+00  0.00000000000E+00  0.81042853358E+03  0.81042853358E+03  0.00000000000E+00 0.  1.
          1   -1    0    0  501    0  0.00000000000E+00 -0.00000000000E+00 -0.77287095347E+03  0.77287095347E+03  0.00000000000E+00 0. -1.
         23    2    1    2    0    0 -0.46525787721E+03  0.10987525017E+03  0.34212967565E+03  0.59455266576E+03  0.88897100598E+02 0.  0.
        254    2    1    2    0    0  0.46525787721E+03 -0.10987525017E+03 -0.30457209554E+03  0.98874682128E+03  0.81013495932E+03 0.  0.
         23    2    4    4    0    0  0.38537813363E+03 -0.41419723353E+03 -0.52854026143E+02  0.57539257020E+03  0.90594743888E+02 0.  0.
         23    2    4    4    0    0  0.79879743586E+02  0.30432198335E+03 -0.25171806940E+03  0.41335425109E+03  0.92233982029E+02 0.  0.
          2    1    3    3  502    0 -0.43057698710E+02  0.38433273883E+02  0.33685015576E+02  0.66826358826E+02  0.00000000000E+00 0. -1.
         -2    1    3    3    0  502 -0.42220017850E+03  0.71441976291E+02  0.30844466007E+03  0.52772630694E+03  0.00000000000E+00 0.  1.
         13    1    5    5    0    0  0.16372356450E+03 -0.11274451082E+03 -0.18270579983E+02  0.19962601129E+03  0.00000000000E+00 0. -1.
        -13    1    5    5    0    0  0.22165456913E+03 -0.30145272271E+03 -0.34583446160E+02  0.37576655891E+03  0.00000000000E+00 0.  1.
          1    1    6    6  503    0 -0.12087104931E+02  0.11968037069E+02 -0.32046126398E+02  0.36280659228E+02  0.00000000000E+00 0. -1.
         -1    1    6    6    0  503  0.91966848518E+02  0.29235394628E+03 -0.21967194300E+03  0.37707359186E+03  0.00000000000E+00 0.  1.
<mgrwt>
<rscale>  0 0.15828540E+04</rscale>
<asrwt>0</asrwt>
<pdfrwt beam="1">  1        1 0.11890322E+00 0.15828540E+04</pdfrwt>
<pdfrwt beam="2">  1       -1 0.12468131E+00 0.15828540E+04</pdfrwt>
<totfact> 0.12645750E+01</totfact>
</mgrwt>
</event>
<event>
12    3  0.4769008E-008  0.1797107E+04  0.7818608E-02  0.8707839E-01
         -2   -1    0    0    0  501 -0.00000000000E+00  0.00000000000E+00  0.14246220650E+04  0.14246220650E+04  0.00000000000E+00 0.  1.
          2   -1    0    0  501    0  0.00000000000E+00 -0.00000000000E+00 -0.56674566088E+03  0.56674566088E+03  0.00000000000E+00 0. -1.
         23    2    1    2    0    0 -0.16448796208E+03 -0.50827186608E+03 -0.12521828993E+03  0.55628309887E+03  0.91513312911E+02 0.  0.
        254    2    1    2    0    0  0.16448796208E+03  0.50827186608E+03  0.98309469401E+03  0.14350846270E+04  0.89866352417E+03 0.  0.
         23    2    4    4    0    0  0.41454226437E+03  0.19846290304E+03  0.90428685383E+03  0.10185584095E+04  0.92161308078E+02 0.  0.
         23    2    4    4    0    0 -0.25005430229E+03  0.30980896304E+03  0.78807840179E+02  0.41652621749E+03  0.93673189910E+02 0.  0.
          3    1    3    3  502    0 -0.13318823132E+03 -0.46018017696E+03 -0.85855271883E+02  0.48669911438E+03  0.00000000000E+00 0. -1.
         -3    1    3    3    0  502 -0.31299730759E+02 -0.48091689120E+02 -0.39363018044E+02  0.69583984490E+02  0.00000000000E+00 0.  1.
         13    1    5    5    0    0  0.18110379269E+03  0.82266960109E+02  0.29477181141E+03  0.35560772946E+03  0.00000000000E+00 0. -1.
        -13    1    5    5    0    0  0.23343847167E+03  0.11619594293E+03  0.60951504242E+03  0.66295068003E+03  0.00000000000E+00 0.  1.
          3    1    6    6  503    0 -0.17450871608E+03  0.21920395366E+03  0.98361378463E+02  0.29694886102E+03  0.00000000000E+00 0. -1.
         -3    1    6    6    0  503 -0.75545586206E+02  0.90605009382E+02 -0.19553538283E+02  0.11957735647E+03  0.00000000000E+00 0.  1.
<mgrwt>
<rscale>  0 0.17971070E+04</rscale>
<asrwt>0</asrwt>
<pdfrwt beam="1">  1        2 0.87191640E-01 0.17971070E+04</pdfrwt>
<pdfrwt beam="2">  1       -2 0.21917262E+00 0.17971070E+04</pdfrwt>
<totfact> 0.50143982E+00</totfact>
</mgrwt>
</event>
<event>
12    3  0.4769008E-008  0.2180855E+04  0.7818608E-02  0.8526439E-01
         -1   -1    0    0    0  501 -0.00000000000E+00  0.00000000000E+00  0.43144440878E+03  0.43144440878E+03  0.00000000000E+00 0. -1.
          1   -1    0    0  501    0  0.00000000000E+00 -0.00000000000E+00 -0.27559336599E+04  0.27559336599E+04  0.00000000000E+00 0.  1.
         23    2    1    2    0    0  0.65565992219E+03 -0.60561770067E+03 -0.86385250226E+03  0.12454326182E+04  0.90545722487E+02 0.  0.
        254    2    1    2    0    0 -0.65565992219E+03  0.60561770067E+03 -0.14606367489E+04  0.19419454505E+04  0.91707670760E+03 0.  0.
         23    2    4    4    0    0 -0.31342020091E+03  0.59719376841E+02  0.12437931306E+02  0.33186548763E+03  0.90450944927E+02 0.  0.
         23    2    4    4    0    0 -0.34223972129E+03  0.54589832383E+03 -0.14730746802E+04  0.16100799629E+04  0.85296346109E+02 0.  0.
          3    1    3    3  502    0  0.48093630174E+02 -0.25926490851E+02 -0.78691346333E+02  0.95799311995E+02  0.00000000000E+00 0.  1.
         -3    1    3    3    0  502  0.60756629202E+03 -0.57969120982E+03 -0.78516115593E+03  0.11496333062E+04  0.00000000000E+00 0. -1.
         13    1    5    5    0    0 -0.72131164719E+02  0.50450635968E+02 -0.13330721052E+02  0.89027409920E+02  0.00000000000E+00 0. -1.
        -13    1    5    5    0    0 -0.24128903619E+03  0.92687408731E+01  0.25768652358E+02  0.24283807771E+03  0.00000000000E+00 0.  1.
          1    1    6    6  503    0 -0.16023025501E+03  0.20109588131E+03 -0.66126866676E+03  0.70949949805E+03  0.00000000000E+00 0. -1.
         -1    1    6    6    0  503 -0.18200946628E+03  0.34480244252E+03 -0.81180601343E+03  0.90058046482E+03  0.00000000000E+00 0.  1.
<mgrwt>
<rscale>  0 0.21808550E+04</rscale>
<asrwt>0</asrwt>
<pdfrwt beam="1">  1        1 0.42398979E+00 0.21808550E+04</pdfrwt>
<pdfrwt beam="2">  1       -1 0.66376064E-01 0.21808550E+04</pdfrwt>
<totfact> 0.18824803E+00</totfact>
</mgrwt>
</event>
<event>
12    3  0.4769008E-008  0.1968687E+04  0.7818608E-02  0.8621402E-01
          2   -1    0    0  501    0  0.00000000000E+00  0.00000000000E+00  0.77155037281E+03  0.77155037281E+03  0.00000000000E+00 0. -1.
         -2   -1    0    0    0  501 -0.00000000000E+00 -0.00000000000E+00 -0.12558250618E+04  0.12558250618E+04  0.00000000000E+00 0.  1.
         23    2    1    2    0    0  0.47487130069E+03 -0.12291871043E+03 -0.80603397635E+03  0.94900521531E+03  0.10153012386E+03 0.  0.
        254    2    1    2    0    0 -0.47487130069E+03  0.12291871043E+03  0.32175928740E+03  0.10783702193E+04  0.90484337274E+03 0.  0.
         23    2    4    4    0    0 -0.84643352796E+02 -0.27882372200E+03 -0.15022297455E+03  0.34036195043E+03  0.91499454076E+02 0.  0.
         23    2    4    4    0    0 -0.39022794789E+03  0.40174243244E+03  0.47198226195E+03  0.73800826884E+03  0.90631760106E+02 0.  0.
          1    1    3    3  502    0  0.25634692233E+03 -0.10376026318E+03 -0.38208536782E+03  0.47166637054E+03  0.00000000000E+00 0. -1.
         -1    1    3    3    0  502  0.21852437836E+03 -0.19158447256E+02 -0.42394860854E+03  0.47733884476E+03  0.00000000000E+00 0.  1.
         13    1    5    5    0    0  0.12601209526E+02 -0.33769499705E+01 -0.94050084184E+01  0.16082551289E+02  0.00000000000E+00 0. -1.
        -13    1    5    5    0    0 -0.97244562322E+02 -0.27544677203E+03 -0.14081796613E+03  0.32427939914E+03  0.00000000000E+00 0.  1.
          4    1    6    6  503    0  0.30860621644E+01  0.15179480075E+02  0.87379173298E+01  0.17784588674E+02  0.00000000000E+00 0. -1.
         -4    1    6    6    0  503 -0.39331401006E+03  0.38656295236E+03  0.46324434462E+03  0.72022368016E+03  0.00000000000E+00 0.  1.
<mgrwt>
<rscale>  0 0.19686872E+04</rscale>
<asrwt>0</asrwt>
<pdfrwt beam="1">  1        2 0.11870006E+00 0.19686872E+04</pdfrwt>
<pdfrwt beam="2">  1       -2 0.19320385E+00 0.19686872E+04</pdfrwt>
<totfact> 0.49628092E+00</totfact>
</mgrwt>
</event>
<event>
12    3  0.4769008E-008  0.1559042E+04  0.7818608E-02  0.8846113E-01
         -2   -1    0    0    0  501 -0.00000000000E+00  0.00000000000E+00  0.28818162808E+03  0.28818162808E+03  0.00000000000E+00 0.  1.
          2   -1    0    0  501    0  0.00000000000E+00 -0.00000000000E+00 -0.21085756499E+04  0.21085756499E+04  0.00000000000E+00 0. -1.
         23    2    1    2    0    0  0.30129966682E+01 -0.42304083818E+03 -0.85761771071E+03  0.96087732476E+03  0.93832119253E+02 0.  0.
        254    2    1    2    0    0 -0.30129966682E+01  0.42304083818E+03 -0.96277631112E+03  0.14358799532E+04  0.97767089858E+03 0.  0.
         23    2    4    4    0    0  0.46055356680E+03  0.16482440648E+03 -0.29867317762E+03  0.58093798646E+03  0.94903130692E+02 0.  0.
         23    2    4    4    0    0 -0.46356656347E+03  0.25821643170E+03 -0.66410313350E+03  0.85494196678E+03  0.91231081682E+02 0.  0.
          3    1    3    3  502    0  0.15885631934E+02 -0.31582205929E+03 -0.54453188426E+03  0.62969111429E+03  0.00000000000E+00 0. -1.
         -3    1    3    3    0  502 -0.12872635266E+02 -0.10721877888E+03 -0.31308582645E+03  0.33118621047E+03  0.00000000000E+00 0.  1.
         13    1    5    5    0    0  0.37262961451E+03  0.12084563850E+03 -0.27833039958E+03  0.48054584514E+03  0.00000000000E+00 0. -1.
        -13    1    5    5    0    0  0.87923952296E+02  0.43978767979E+02 -0.20342778045E+02  0.10039214132E+03  0.00000000000E+00 0.  1.
          4    1    6    6  503    0 -0.29514471665E+03  0.17882353425E+03 -0.36250476946E+03  0.50049772032E+03  0.00000000000E+00 0. -1.
         -4    1    6    6    0  503 -0.16842184682E+03  0.79392897446E+02 -0.30159836405E+03  0.35444424646E+03  0.00000000000E+00 0.  1.
<mgrwt>
<rscale>  0 0.15590417E+04</rscale>
<asrwt>0</asrwt>
<pdfrwt beam="1">  1        2 0.32439625E+00 0.15590417E+04</pdfrwt>
<pdfrwt beam="2">  1       -2 0.44335636E-01 0.15590417E+04</pdfrwt>
<totfact> 0.26984992E+01</totfact>
</mgrwt>
</event>
<event>
12    3  0.4769008E-008  0.1666394E+04  0.7818608E-02  0.8780767E-01
          3   -1    0    0  501    0  0.00000000000E+00  0.00000000000E+00  0.14138557051E+04  0.14138557051E+04  0.00000000000E+00 0. -1.
         -3   -1    0    0    0  501 -0.00000000000E+00 -0.00000000000E+00 -0.49101003634E+03  0.49101003634E+03  0.00000000000E+00 0.  1.
         23    2    1    2    0    0 -0.25045195403E+03 -0.18274381061E+03 -0.24062224169E+03  0.40259461100E+03  0.89787950282E+02 0.  0.
        254    2    1    2    0    0  0.25045195403E+03  0.18274381061E+03  0.11634679104E+04  0.15022711304E+04  0.89835376613E+03 0.  0.
         23    2    4    4    0    0 -0.24071936090E+03  0.27549859332E+03  0.77748906942E+03  0.86416389746E+03  0.91895065062E+02 0.  0.
         23    2    4    4    0    0  0.49117131493E+03 -0.92754782703E+02  0.38597884099E+03  0.63810723295E+03  0.91369933407E+02 0.  0.
          3    1    3    3  502    0 -0.14458636062E+03 -0.13124455465E+03 -0.10060901919E+03  0.21966457053E+03  0.00000000000E+00 0. -1.
         -3    1    3    3    0  502 -0.10586559341E+03 -0.51499255961E+02 -0.14001322249E+03  0.18293004047E+03  0.00000000000E+00 0.  1.
         13    1    5    5    0    0 -0.21569640442E+03  0.24668063896E+03  0.74559856672E+03  0.81442832663E+03  0.00000000000E+00 0.  1.
        -13    1    5    5    0    0 -0.25022956475E+02  0.28817954354E+02  0.31890502699E+02  0.49735570835E+02  0.00000000000E+00 0. -1.
          4    1    6    6  503    0  0.14656115393E+02 -0.13575809890E+02  0.30365319924E+00  0.19979903349E+02  0.00000000000E+00 0. -1.
         -4    1    6    6    0  503  0.47651519953E+03 -0.79178972812E+02  0.38567518779E+03  0.61812732960E+03  0.00000000000E+00 0.  1.
<mgrwt>
<rscale>  0 0.16663941E+04</rscale>
<asrwt>0</asrwt>
<pdfrwt beam="1">  1        3 0.21751626E+00 0.16663941E+04</pdfrwt>
<pdfrwt beam="2">  1       -3 0.75540006E-01 0.16663941E+04</pdfrwt>
<totfact> 0.47369085E-01</totfact>
</mgrwt>
</event>
<event>
12    3  0.4769008E-008  0.1638236E+04  0.7818608E-02  0.8797397E-01
          2   -1    0    0  501    0  0.00000000000E+00  0.00000000000E+00  0.14181165946E+04  0.14181165946E+04  0.00000000000E+00 0. -1.
         -2   -1    0    0    0  501 -0.00000000000E+00 -0.00000000000E+00 -0.47313052390E+03  0.47313052390E+03  0.00000000000E+00 0.  1.
         23    2    1    2    0    0 -0.53672610986E+03 -0.14635656649E+03  0.18876628344E+03  0.59456328292E+03  0.91529372765E+02 0.  0.
        254    2    1    2    0    0  0.53672610986E+03  0.14635656649E+03  0.75621978724E+03  0.12966838356E+04  0.89444141296E+03 0.  0.
         23    2    4    4    0    0 -0.12161768758E+03  0.25557289902E+03  0.48733735788E+03  0.57078187976E+03  0.90475882048E+02 0.  0.
         23    2    4    4    0    0  0.65834379744E+03 -0.10921633253E+03  0.26888242936E+03  0.72590195579E+03  0.96390485459E+02 0.  0.
          1    1    3    3  502    0 -0.13386782272E+03 -0.14091144595E+02  0.80882350163E+02  0.15703855859E+03  0.00000000000E+00 0. -1.
         -1    1    3    3    0  502 -0.40285828713E+03 -0.13226542190E+03  0.10788393328E+03  0.43752472433E+03  0.00000000000E+00 0.  1.
         13    1    5    5    0    0 -0.66210748893E+02  0.66189127727E+02  0.21475341635E+03  0.23427311782E+03  0.00000000000E+00 0. -1.
        -13    1    5    5    0    0 -0.55406938685E+02  0.18938377130E+03  0.27258394153E+03  0.33650876194E+03  0.00000000000E+00 0.  1.
          4    1    6    6  503    0  0.61692125499E+03 -0.85079458226E+02  0.26793062655E+03  0.67795071334E+03  0.00000000000E+00 0. -1.
         -4    1    6    6    0  503  0.41422542442E+02 -0.24136874306E+02  0.95180280326E+00  0.47951242447E+02  0.00000000000E+00 0.  1.
<mgrwt>
<rscale>  0 0.16382359E+04</rscale>
<asrwt>0</asrwt>
<pdfrwt beam="1">  1        2 0.21817178E+00 0.16382359E+04</pdfrwt>
<pdfrwt beam="2">  1       -2 0.72789312E-01 0.16382359E+04</pdfrwt>
<totfact> 0.23047535E+01</totfact>
</mgrwt>
</event>
<event>
12    3  0.4769008E-008  0.1613202E+04  0.7818608E-02  0.8812478E-01
          1   -1    0    0  501    0  0.00000000000E+00  0.00000000000E+00  0.97947662527E+03  0.97947662527E+03  0.00000000000E+00 0. -1.
         -1   -1    0    0    0  501 -0.00000000000E+00 -0.00000000000E+00 -0.66423751985E+03  0.66423751985E+03  0.00000000000E+00 0.  1.
         23    2    1    2    0    0 -0.45891029180E+03 -0.26831631108E+03 -0.27240071020E+02  0.53994468675E+03  0.90586668822E+02 0.  0.
        254    2    1    2    0    0  0.45891029180E+03  0.26831631108E+03  0.34247917644E+03  0.11037694584E+04  0.90466719418E+03 0.  0.
         23    2    4    4    0    0 -0.21362778917E+03  0.28145151683E+03  0.64627745614E+02  0.37030954869E+03  0.90003487217E+02 0.  0.
         23    2    4    4    0    0  0.67253808098E+03 -0.13135205749E+02  0.27785143082E+03  0.73345990968E+03  0.91005590517E+02 0.  0.
          1    1    3    3  502    0 -0.69238105211E+02 -0.48179639246E+02 -0.37410080409E+02  0.92275169831E+02  0.00000000000E+00 0. -1.
         -1    1    3    3    0  502 -0.38967218659E+03 -0.22013667183E+03  0.10170009389E+02  0.44766951692E+03  0.00000000000E+00 0.  1.
         13    1    5    5    0    0 -0.21489014954E+03  0.28722616165E+03  0.63541427043E+02  0.36429954331E+03  0.00000000000E+00 0.  1.
        -13    1    5    5    0    0  0.12623603704E+01 -0.57746448218E+01  0.10863185709E+01  0.60100053711E+01  0.00000000000E+00 0. -1.
          1    1    6    6  503    0  0.40361595128E+02  0.33778173784E+01 -0.47798774598E+01  0.40783761965E+02  0.00000000000E+00 0. -1.
         -1    1    6    6    0  503  0.63217648585E+03 -0.16513023128E+02  0.28263130828E+03  0.69267614772E+03  0.00000000000E+00 0.  1.
<mgrwt>
<rscale>  0 0.16132019E+04</rscale>
<asrwt>0</asrwt>
<pdfrwt beam="1">  1        1 0.15068871E+00 0.16132019E+04</pdfrwt>
<pdfrwt beam="2">  1       -1 0.10219039E+00 0.16132019E+04</pdfrwt>
<totfact> 0.13651239E+01</totfact>
</mgrwt>
</event>
<event>
12    3  0.4769008E-008  0.1840019E+04  0.7818608E-02  0.8685302E-01
         -1   -1    0    0    0  501 -0.00000000000E+00  0.00000000000E+00  0.97137606587E+03  0.97137606587E+03  0.00000000000E+00 0. -1.
          1   -1    0    0  501    0  0.00000000000E+00 -0.00000000000E+00 -0.87135950897E+03  0.87135950897E+03  0.00000000000E+00 0.  1.
         23    2    1    2    0    0 -0.20031001183E+03  0.41626985582E+03 -0.48110109536E+03  0.67294998882E+03  0.89435618174E+02 0.  0.
        254    2    1    2    0    0  0.20031001183E+03 -0.41626985582E+03  0.58111765226E+03  0.11697855860E+04  0.90404419017E+03 0.  0.
         23    2    4    4    0    0  0.28534767639E+03  0.11678330171E+03 -0.61349183633E+02  0.32567128241E+03  0.85067184468E+02 0.  0.
         23    2    4    4    0    0 -0.85037664563E+02 -0.53305315754E+03  0.64246683589E+03  0.84411430360E+03  0.91587385436E+02 0.  0.
          1    1    3    3  502    0 -0.16596302144E+02  0.63475228111E+02 -0.11475980181E+03  0.13219059702E+03  0.00000000000E+00 0. -1.
         -1    1    3    3    0  502 -0.18371370968E+03  0.35279462771E+03 -0.36634129355E+03  0.54075939181E+03  0.00000000000E+00 0.  1.
         13    1    5    5    0    0  0.10661196384E+03  0.77376608395E+02 -0.54367506139E+02  0.14250991574E+03  0.00000000000E+00 0. -1.
        -13    1    5    5    0    0  0.17873571255E+03  0.39406693319E+02 -0.69816774940E+01  0.18316136667E+03  0.00000000000E+00 0.  1.
          1    1    6    6  503    0  0.16849477009E+02 -0.77024844647E+02  0.11510037211E+03  0.13951640487E+03  0.00000000000E+00 0. -1.
         -1    1    6    6    0  503 -0.10188714157E+03 -0.45602831289E+03  0.52736646379E+03  0.70459789874E+03  0.00000000000E+00 0.  1.
<mgrwt>
<rscale>  0 0.18400193E+04</rscale>
<asrwt>0</asrwt>
<pdfrwt beam="1">  1        1 0.13405531E+00 0.18400193E+04</pdfrwt>
<pdfrwt beam="2">  1       -1 0.14944247E+00 0.18400193E+04</pdfrwt>
<totfact> 0.63695379E+00</totfact>
</mgrwt>
</event>
<event>
12    3  0.4769008E-008  0.2887237E+04  0.7818608E-02  0.8276685E-01
         -3   -1    0    0    0  501 -0.00000000000E+00  0.00000000000E+00  0.72255758728E+03  0.72255758728E+03  0.00000000000E+00 0.  1.
          3   -1    0    0  501    0  0.00000000000E+00 -0.00000000000E+00 -0.28842474030E+04  0.28842474030E+04  0.00000000000E+00 0. -1.
         23    2    1    2    0    0 -0.56233986908E+03 -0.11475715274E+04 -0.12486674964E+04  0.17890022008E+04  0.90619087450E+02 0.  0.
        254    2    1    2    0    0  0.56233986908E+03  0.11475715274E+04 -0.91302231930E+03  0.18178027895E+04  0.91523258622E+03 0.  0.
         23    2    4    4    0    0  0.72440848383E+03  0.80623654690E+03 -0.36773185290E+03  0.11481493150E+04  0.90747522961E+02 0.  0.
         23    2    4    4    0    0 -0.16206861475E+03  0.34133498053E+03 -0.54529046641E+03  0.66965347445E+03  0.91204595614E+02 0.  0.
          4    1    3    3  502    0 -0.10365554471E+03 -0.15050146453E+03 -0.20227946331E+03  0.27260253860E+03  0.00000000000E+00 0.  1.
         -4    1    3    3    0  502 -0.45868432438E+03 -0.99707006290E+03 -0.10463880331E+04  0.15163996622E+04  0.00000000000E+00 0. -1.
         13    1    5    5    0    0  0.65191056982E+03  0.74392461977E+03 -0.35849529724E+03  0.10521074608E+04  0.00000000000E+00 0. -1.
        -13    1    5    5    0    0  0.72497914011E+02  0.62311927129E+02 -0.92365556554E+01  0.96041854203E+02  0.00000000000E+00 0.  1.
          3    1    6    6  503    0 -0.14479174592E+02  0.12814359745E+03 -0.19660102999E+03  0.23512208118E+03  0.00000000000E+00 0.  1.
         -3    1    6    6    0  503 -0.14758944016E+03  0.21319138308E+03 -0.34868943642E+03  0.43453139327E+03  0.00000000000E+00 0. -1.
<mgrwt>
<rscale>  0 0.28872373E+04</rscale>
<asrwt>0</asrwt>
<pdfrwt beam="1">  1        3 0.44373036E+00 0.28872373E+04</pdfrwt>
<pdfrwt beam="2">  1       -3 0.11116271E+00 0.28872373E+04</pdfrwt>
<totfact> 0.10032190E-02</totfact>
</mgrwt>
</event>
<event>
12    3  0.4769008E-008  0.1216502E+04  0.7818608E-02  0.9098533E-01
          1   -1    0    0  501    0  0.00000000000E+00  0.00000000000E+00  0.49000142169E+03  0.49000142169E+03  0.00000000000E+00 0. -1.
         -1   -1    0    0    0  501 -0.00000000000E+00 -0.00000000000E+00 -0.75503761270E+03  0.75503761270E+03  0.00000000000E+00 0.  1.
         23    2    1    2    0    0 -0.20965271012E+03 -0.55841431568E+02  0.84977259760E+02  0.25007427695E+03  0.90793639528E+02 0.  0.
        254    2    1    2    0    0  0.20965271012E+03  0.55841431568E+02 -0.35001345077E+03  0.99496475743E+03  0.90574440571E+03 0.  0.
         23    2    4    4    0    0  0.48244298100E+03 -0.21552400020E+03 -0.19312275189E+03  0.56960992787E+03  0.89203408306E+02 0.  0.
         23    2    4    4    0    0 -0.27279027088E+03  0.27136543176E+03 -0.15689069889E+03  0.42535482957E+03  0.90875245218E+02 0.  0.
          2    1    3    3  502    0 -0.21021131003E+03 -0.36354028248E+02  0.87174083426E+02  0.23045548606E+03  0.00000000000E+00 0. -1.
         -2    1    3    3    0  502  0.55859990904E+00 -0.19487403320E+02 -0.21968236660E+01  0.19618790897E+02  0.00000000000E+00 0.  1.
         13    1    5    5    0    0  0.60895435484E+02 -0.62383793250E+02 -0.25845025128E+02  0.90928307182E+02  0.00000000000E+00 0.  1.
        -13    1    5    5    0    0  0.42154754551E+03 -0.15314020695E+03 -0.16727772676E+03  0.47868162069E+03  0.00000000000E+00 0. -1.
          1    1    6    6  503    0 -0.22100928666E+03  0.25544469299E+03 -0.15364417140E+03  0.37108439387E+03  0.00000000000E+00 0. -1.
         -1    1    6    6    0  503 -0.51780984218E+02  0.15920738773E+02 -0.32465274831E+01  0.54270435693E+02  0.00000000000E+00 0.  1.
<mgrwt>
<rscale>  0 0.12165024E+04</rscale>
<asrwt>0</asrwt>
<pdfrwt beam="1">  1        1 0.75384834E-01 0.12165024E+04</pdfrwt>
<pdfrwt beam="2">  1       -1 0.11615963E+00 0.12165024E+04</pdfrwt>
<totfact> 0.30200736E+01</totfact>
</mgrwt>
</event>
<event>
12    3  0.4769008E-008  0.1650811E+04  0.7818608E-02  0.8789927E-01
         -2   -1    0    0    0  501 -0.00000000000E+00  0.00000000000E+00  0.25584599580E+03  0.25584599580E+03  0.00000000000E+00 0.  1.
          2   -1    0    0  501    0  0.00000000000E+00 -0.00000000000E+00 -0.26629064613E+04  0.26629064613E+04  0.00000000000E+00 0. -1.
         23    2    1    2    0    0 -0.39519477301E+02  0.11181064611E+02 -0.18668845041E+04  0.18696157331E+04  0.92295354532E+02 0.  0.
        254    2    1    2    0    0  0.39519477301E+02 -0.11181064611E+02 -0.54017596146E+03  0.10491367241E+04  0.89844921457E+03 0.  0.
         23    2    4    4    0    0  0.44027502178E+02  0.43086997443E+03 -0.32054992089E+03  0.54673354415E+03  0.92617280809E+02 0.  0.
         23    2    4    4    0    0 -0.45080248765E+01 -0.44205103904E+03 -0.21962604057E+03  0.50240317992E+03  0.93508898447E+02 0.  0.
          2    1    3    3  502    0 -0.63497058887E+02  0.30045709059E+02 -0.12374352840E+04  0.12394275708E+04  0.00000000000E+00 0. -1.
         -2    1    3    3    0  502  0.23977581586E+02 -0.18864644448E+02 -0.62944922010E+03  0.63018816231E+03  0.00000000000E+00 0.  1.
         13    1    5    5    0    0 -0.17159452656E+01 -0.38936746023E+01  0.58499560164E+00  0.42950424814E+01  0.00000000000E+00 0.  1.
        -13    1    5    5    0    0  0.45743447443E+02  0.43476364903E+03 -0.32113491649E+03  0.54243850167E+03  0.00000000000E+00 0. -1.
          2    1    6    6  503    0 -0.42100963883E+02 -0.33639139663E+03 -0.15284794707E+03  0.37187922476E+03  0.00000000000E+00 0. -1.
         -2    1    6    6    0  503  0.37592939007E+02 -0.10565964241E+03 -0.66778093504E+02  0.13052395516E+03  0.00000000000E+00 0.  1.
<mgrwt>
<rscale>  0 0.16508107E+04</rscale>
<asrwt>0</asrwt>
<pdfrwt beam="1">  1        2 0.40967793E+00 0.16508107E+04</pdfrwt>
<pdfrwt beam="2">  1       -2 0.39360921E-01 0.16508107E+04</pdfrwt>
<totfact> 0.16334789E+01</totfact>
</mgrwt>
</event>
<event>
12    3  0.4769008E-008  0.1518272E+04  0.7818608E-02  0.8872393E-01
         -2   -1    0    0    0  501 -0.00000000000E+00  0.00000000000E+00  0.14356516400E+04  0.14356516400E+04  0.00000000000E+00 0.  1.
          2   -1    0    0  501    0  0.00000000000E+00 -0.00000000000E+00 -0.40141156425E+03  0.40141156425E+03  0.00000000000E+00 0. -1.
         23    2    1    2    0    0 -0.10359225502E+03  0.30775004735E+03  0.76796008050E+03  0.83850611351E+03  0.88816497425E+02 0.  0.
        254    2    1    2    0    0  0.10359225502E+03 -0.30775004735E+03  0.26627999524E+03  0.99855709072E+03  0.90596345435E+03 0.  0.
         23    2    4    4    0    0 -0.37956450882E+03 -0.19620161301E+02  0.10540248792E+03  0.40636003420E+03  0.97798905167E+02 0.  0.
         23    2    4    4    0    0  0.48315676384E+03 -0.28812988605E+03  0.16087750732E+03  0.59219705652E+03  0.91413848587E+02 0.  0.
          1    1    3    3  502    0 -0.16319323014E+02  0.49599463045E+02  0.22525497085E+03  0.23122765607E+03  0.00000000000E+00 0. -1.
         -1    1    3    3    0  502 -0.87272932003E+02  0.25815058430E+03  0.54270510964E+03  0.60727845744E+03  0.00000000000E+00 0.  1.
         13    1    5    5    0    0 -0.18507066883E+03  0.39364817135E+02  0.50854046710E+02  0.19592568835E+03  0.00000000000E+00 0. -1.
        -13    1    5    5    0    0 -0.19449383999E+03 -0.58984978436E+02  0.54548441212E+02  0.21043434585E+03  0.00000000000E+00 0.  1.
          2    1    6    6  503    0  0.10417227863E+03 -0.31049468097E+02  0.56471778461E+02  0.12249487690E+03  0.00000000000E+00 0. -1.
         -2    1    6    6    0  503  0.37898448521E+03 -0.25708041795E+03  0.10440572886E+03  0.46970217962E+03  0.00000000000E+00 0.  1.
<mgrwt>
<rscale>  0 0.15182716E+04</rscale>
<asrwt>0</asrwt>
<pdfrwt beam="1">  1        2 0.61755626E-01 0.15182716E+04</pdfrwt>
<pdfrwt beam="2">  1       -2 0.22086948E+00 0.15182716E+04</pdfrwt>
<totfact> 0.74534673E+00</totfact>
</mgrwt>
</event>
<event>
12    3  0.4769008E-008  0.1421327E+04  0.7818608E-02  0.8938524E-01
         -1   -1    0    0    0  501 -0.00000000000E+00  0.00000000000E+00  0.16384255552E+04  0.16384255552E+04  0.00000000000E+00 0.  1.
          1   -1    0    0  501    0  0.00000000000E+00 -0.00000000000E+00 -0.30824863031E+03  0.30824863031E+03  0.00000000000E+00 0. -1.
         23    2    1    2    0    0 -0.50592646654E+02 -0.22569409297E+03  0.79746204146E+03  0.83546757180E+03  0.92536027901E+02 0.  0.
        254    2    1    2    0    0  0.50592646654E+02  0.22569409297E+03  0.53271488344E+03  0.11112066137E+04  0.94736347400E+03 0.  0.
         23    2    4    4    0    0  0.40570938709E+03 -0.15815559661E+03  0.25916132104E+03  0.51406474902E+03  0.86514024028E+02 0.  0.
         23    2    4    4    0    0 -0.35511674043E+03  0.38384968958E+03  0.27355356240E+03  0.59714186471E+03  0.91095398135E+02 0.  0.
          3    1    3    3  502    0 -0.15016002400E+02 -0.48172178022E+02  0.73113736873E+02  0.88835002014E+02  0.00000000000E+00 0. -1.
         -3    1    3    3    0  502 -0.35576644254E+02 -0.17752191495E+03  0.72434830459E+03  0.74663256978E+03  0.00000000000E+00 0.  1.
         13    1    5    5    0    0  0.17316848293E+03 -0.11369778783E+03  0.12465354585E+03  0.24177058740E+03  0.00000000000E+00 0.  1.
        -13    1    5    5    0    0  0.23254090416E+03 -0.44457808780E+02  0.13450777519E+03  0.27229416162E+03  0.00000000000E+00 0. -1.
          3    1    6    6  503    0 -0.28590009973E+03  0.30054214657E+03  0.17329088766E+03  0.44954886346E+03  0.00000000000E+00 0. -1.
         -3    1    6    6    0  503 -0.69216640703E+02  0.83307543010E+02  0.10026267474E+03  0.14759300125E+03  0.00000000000E+00 0.  1.
<mgrwt>
<rscale>  0 0.14213268E+04</rscale>
<asrwt>0</asrwt>
<pdfrwt beam="1">  1        1 0.47422867E-01 0.14213268E+04</pdfrwt>
<pdfrwt beam="2">  1       -1 0.25206546E+00 0.14213268E+04</pdfrwt>
<totfact> 0.55727082E+00</totfact>
</mgrwt>
</event>
<event>
12    3  0.4769008E-008  0.2261828E+04  0.7818608E-02  0.8493126E-01
         -1   -1    0    0    0  501 -0.00000000000E+00  0.00000000000E+00  0.12169381604E+04  0.12169381604E+04  0.00000000000E+00 0.  1.
          1   -1    0    0  501    0  0.00000000000E+00 -0.00000000000E+00 -0.10509709006E+04  0.10509709006E+04  0.00000000000E+00 0. -1.
         23    2    1    2    0    0 -0.65000275247E+03  0.29689239785E+03 -0.55517396164E+03  0.90938224441E+03  0.90051455540E+02 0.  0.
        254    2    1    2    0    0  0.65000275247E+03 -0.29689239785E+03  0.72114122143E+03  0.13585268166E+04  0.90271910147E+03 0.  0.
         23    2    4    4    0    0  0.43151918515E+03 -0.60438675493E+03  0.36623690711E+03  0.83283852840E+03  0.89433693761E+02 0.  0.
         23    2    4    4    0    0  0.21848356732E+03  0.30749435708E+03  0.35490431432E+03  0.52568828824E+03  0.90018082859E+02 0.  0.
          4    1    3    3  502    0 -0.15926226799E+03  0.80109611759E+02 -0.18916561145E+03  0.25993393095E+03  0.00000000000E+00 0. -1.
         -4    1    3    3    0  502 -0.49074048448E+03  0.21678278609E+03 -0.36600835019E+03  0.64944831346E+03  0.00000000000E+00 0.  1.
         13    1    5    5    0    0  0.57337087734E+02 -0.45469646392E+02  0.17688637415E+02  0.75285578078E+02  0.00000000000E+00 0.  1.
        -13    1    5    5    0    0  0.37418209741E+03 -0.55891710854E+03  0.34854826970E+03  0.75755295033E+03  0.00000000000E+00 0. -1.
          1    1    6    6  503    0  0.22603590504E+03  0.28474385117E+03  0.32792323527E+03  0.48959671096E+03  0.00000000000E+00 0. -1.
         -1    1    6    6    0  503 -0.75523377187E+01  0.22750505910E+02  0.26981079044E+02  0.36091577280E+02  0.00000000000E+00 0.  1.
<mgrwt>
<rscale>  0 0.22618281E+04</rscale>
<asrwt>0</asrwt>
<pdfrwt beam="1">  1        1 0.16168783E+00 0.22618281E+04</pdfrwt>
<pdfrwt beam="2">  1       -1 0.18722125E+00 0.22618281E+04</pdfrwt>
<totfact> 0.23159541E+00</totfact>
</mgrwt>
</event>
<event>
12    3  0.4769008E-008  0.3634524E+04  0.7818608E-02  0.8082629E-01
          2   -1    0    0  501    0  0.00000000000E+00  0.00000000000E+00  0.23567715936E+04  0.23567715936E+04  0.00000000000E+00 0. -1.
         -2   -1    0    0    0  501 -0.00000000000E+00 -0.00000000000E+00 -0.14012565270E+04  0.14012565270E+04  0.00000000000E+00 0.  1.
         23    2    1    2    0    0  0.12816932616E+04  0.71309694552E+03 -0.44883846244E+03  0.15362815085E+04  0.86371509005E+02 0.  0.
        254    2    1    2    0    0 -0.12816932616E+04 -0.71309694552E+03  0.14043535290E+04  0.22217466121E+04  0.90150113882E+03 0.  0.
         23    2    4    4    0    0 -0.56453156543E+03  0.14419604355E+03  0.60494374904E+03  0.84447032758E+03  0.87663032761E+02 0.  0.
         23    2    4    4    0    0 -0.71716169613E+03 -0.85729298907E+03  0.79940977997E+03  0.13772762845E+04  0.92529994929E+02 0.  0.
          1    1    3    3  502    0  0.69760435396E+03  0.41373957895E+03 -0.28634810549E+03  0.86013226389E+03  0.00000000000E+00 0. -1.
         -1    1    3    3    0  502  0.58408890760E+03  0.29935736656E+03 -0.16249035695E+03  0.67614924462E+03  0.00000000000E+00 0.  1.
         13    1    5    5    0    0 -0.15727890040E+03  0.75850460965E+02  0.20936772488E+03  0.27262573092E+03  0.00000000000E+00 0.  1.
        -13    1    5    5    0    0 -0.40725266503E+03  0.68345582587E+02  0.39557602416E+03  0.57184459665E+03  0.00000000000E+00 0. -1.
          4    1    6    6  503    0 -0.50935840124E+03 -0.54078855448E+03  0.52707769848E+03  0.91088371476E+03  0.00000000000E+00 0. -1.
         -4    1    6    6    0  503 -0.20780329489E+03 -0.31650443459E+03  0.27233208149E+03  0.46639256972E+03  0.00000000000E+00 0.  1.
<mgrwt>
<rscale>  0 0.36345242E+04</rscale>
<asrwt>0</asrwt>
<pdfrwt beam="1">  1        2 0.36258024E+00 0.36345242E+04</pdfrwt>
<pdfrwt beam="2">  1       -2 0.21557793E+00 0.36345242E+04</pdfrwt>
<totfact> 0.36068084E-01</totfact>
</mgrwt>
</event>
<event>
12    3  0.4769008E-008  0.1398034E+04  0.7818608E-02  0.8955243E-01
          1   -1    0    0  501    0  0.00000000000E+00  0.00000000000E+00  0.32830310806E+04  0.32830310806E+04  0.00000000000E+00 0. -1.
         -1   -1    0    0    0  501 -0.00000000000E+00 -0.00000000000E+00 -0.14883333074E+03  0.14883333074E+03  0.00000000000E+00 0.  1.
         23    2    1    2    0    0 -0.17992450448E+03  0.35425805061E+03  0.94051681674E+03  0.10250753206E+04  0.91301350780E+02 0.  0.
        254    2    1    2    0    0  0.17992450448E+03 -0.35425805061E+03  0.21936809332E+04  0.24067890907E+04  0.90693224504E+03 0.  0.
         23    2    4    4    0    0 -0.35192172631E+03 -0.24518545596E+03  0.91134955555E+03  0.10113472343E+04  0.91106567777E+02 0.  0.
         23    2    4    4    0    0  0.53184623079E+03 -0.10907259465E+03  0.12823313776E+04  0.13954418564E+04  0.90149700921E+02 0.  0.
          3    1    3    3  502    0 -0.11023804732E+03  0.20671387735E+03  0.66261741324E+03  0.70281213030E+03  0.00000000000E+00 0. -1.
         -3    1    3    3    0  502 -0.69686457166E+02  0.14754417327E+03  0.27789940350E+03  0.32226319033E+03  0.00000000000E+00 0.  1.
         13    1    5    5    0    0 -0.34299602683E+02  0.33350907896E+01  0.57294228868E+02  0.66859660756E+02  0.00000000000E+00 0.  1.
        -13    1    5    5    0    0 -0.31762212363E+03 -0.24852054675E+03  0.85405532668E+03  0.94448757356E+03  0.00000000000E+00 0. -1.
          3    1    6    6  503    0  0.27997551203E+03 -0.39980721528E+02  0.77175490027E+03  0.82194304640E+03  0.00000000000E+00 0. -1.
         -3    1    6    6    0  503  0.25187071876E+03 -0.69091873124E+02  0.51057647733E+03  0.57349881003E+03  0.00000000000E+00 0.  1.
<mgrwt>
<rscale>  0 0.13980335E+04</rscale>
<asrwt>0</asrwt>
<pdfrwt beam="1">  1        1 0.50508165E+00 0.13980335E+04</pdfrwt>
<pdfrwt beam="2">  1       -1 0.22897438E-01 0.13980335E+04</pdfrwt>
<totfact> 0.59069744E+00</totfact>
</mgrwt>
</event>
<event>
12    3  0.4769008E-008  0.1497522E+04  0.7818608E-02  0.8886102E-01
         -2   -1    0    0    0  501 -0.00000000000E+00  0.00000000000E+00  0.20529962074E+03  0.20529962074E+03  0.00000000000E+00 0.  1.
          2   -1    0    0  501    0  0.00000000000E+00 -0.00000000000E+00 -0.27308524344E+04  0.27308524344E+04  0.00000000000E+00 0. -1.
         23    2    1    2    0    0  0.34373010327E+03  0.31431266695E+03 -0.76037822300E+03  0.89651209315E+03  0.92822705525E+02 0.  0.
        254    2    1    2    0    0 -0.34373010327E+03 -0.31431266695E+03 -0.17651745906E+04  0.20396399620E+04  0.90958617102E+03 0.  0.
         23    2    4    4    0    0 -0.20362320921E+03 -0.23409168709E+03 -0.18177225170E+04  0.18462562965E+04  0.91026558465E+02 0.  0.
         23    2    4    4    0    0 -0.14010689406E+03 -0.80220979857E+02  0.52547926377E+02  0.19338366543E+03  0.92577589699E+02 0.  0.
          3    1    3    3  502    0  0.78819685277E+02  0.65618699562E+02 -0.24803716645E+03  0.26840415879E+03  0.00000000000E+00 0. -1.
         -3    1    3    3    0  502  0.26491041799E+03  0.24869396739E+03 -0.51234105656E+03  0.62810793436E+03  0.00000000000E+00 0.  1.
         13    1    5    5    0    0 -0.13229119891E+03 -0.13865769234E+03 -0.13529214976E+04  0.13664272742E+04  0.00000000000E+00 0.  1.
        -13    1    5    5    0    0 -0.71332010298E+02 -0.95433994755E+02 -0.46480101945E+03  0.47982902239E+03  0.00000000000E+00 0. -1.
          1    1    6    6  503    0 -0.23206597206E+02 -0.24024349563E+02  0.54200940935E+02  0.63666769386E+02  0.00000000000E+00 0. -1.
         -1    1    6    6    0  503 -0.11690029685E+03 -0.56196630294E+02 -0.16530145586E+01  0.12971689604E+03  0.00000000000E+00 0.  1.
<mgrwt>
<rscale>  0 0.14975219E+04</rscale>
<asrwt>0</asrwt>
<pdfrwt beam="1">  1        2 0.42013116E+00 0.14975219E+04</pdfrwt>
<pdfrwt beam="2">  1       -2 0.31584556E-01 0.14975219E+04</pdfrwt>
<totfact> 0.23006857E+01</totfact>
</mgrwt>
</event>
<event>
12    3  0.4769008E-008  0.1845701E+04  0.7818608E-02  0.8682367E-01
          2   -1    0    0  501    0  0.00000000000E+00  0.00000000000E+00  0.16209320459E+04  0.16209320459E+04  0.00000000000E+00 0.  1.
         -2   -1    0    0    0  501 -0.00000000000E+00 -0.00000000000E+00 -0.52540930987E+03  0.52540930987E+03  0.00000000000E+00 0. -1.
         23    2    1    2    0    0 -0.43794784367E+03  0.54779019841E+03  0.53020511563E+03  0.88385469667E+03  0.90604883660E+02 0.  0.
        254    2    1    2    0    0  0.43794784367E+03 -0.54779019841E+03  0.56531762039E+03  0.12624866591E+04  0.88454289733E+03 0.  0.
         23    2    4    4    0    0 -0.16161312945E+03 -0.42231417079E+03  0.42452058444E+03  0.62723207041E+03  0.93457375731E+02 0.  0.
         23    2    4    4    0    0  0.59956097312E+03 -0.12547602762E+03  0.14079703595E+03  0.63525458868E+03  0.92233362268E+02 0.  0.
          3    1    3    3  502    0 -0.12573112126E+03  0.13620550160E+03  0.18907384076E+03  0.26478136411E+03  0.00000000000E+00 0. -1.
         -3    1    3    3    0  502 -0.31221672241E+03  0.41158469680E+03  0.34113127487E+03  0.61907333256E+03  0.00000000000E+00 0.  1.
         13    1    5    5    0    0 -0.10359957026E+03 -0.35338321824E+03  0.36945902918E+03  0.52164407803E+03  0.00000000000E+00 0.  1.
        -13    1    5    5    0    0 -0.58013559189E+02 -0.68930952547E+02  0.55061555257E+02  0.10558799239E+03  0.00000000000E+00 0. -1.
          3    1    6    6  503    0  0.17482507808E+03 -0.75552512168E+02  0.62811165795E+02  0.20054234608E+03  0.00000000000E+00 0. -1.
         -3    1    6    6    0  503  0.42473589503E+03 -0.49923515449E+02  0.77985870156E+02  0.43471224260E+03  0.00000000000E+00 0.  1.
<mgrwt>
<rscale>  0 0.18457007E+04</rscale>
<asrwt>0</asrwt>
<pdfrwt beam="1">  1        2 0.24937416E+00 0.18457007E+04</pdfrwt>
<pdfrwt beam="2">  1       -2 0.80832202E-01 0.18457007E+04</pdfrwt>
<totfact> 0.13788189E+01</totfact>
</mgrwt>
</event>
<event>
12    3  0.4769008E-008  0.1173617E+04  0.7818608E-02  0.9136268E-01
         -1   -1    0    0    0  501 -0.00000000000E+00  0.00000000000E+00  0.14768912596E+03  0.14768912596E+03  0.00000000000E+00 0.  1.
          1   -1    0    0  501    0  0.00000000000E+00 -0.00000000000E+00 -0.23315467849E+04  0.23315467849E+04  0.00000000000E+00 0. -1.
         23    2    1    2    0    0  0.96819098590E+02 -0.10076510473E+03 -0.12183923959E+04  0.12296870785E+04  0.90126225714E+02 0.  0.
        254    2    1    2    0    0 -0.96819098590E+02  0.10076510473E+03 -0.96546526312E+03  0.12495488324E+04  0.78084669818E+03 0.  0.
         23    2    4    4    0    0 -0.32599838622E+03 -0.89056055285E+02 -0.15758350353E+03  0.38387395557E+03  0.91218004688E+02 0.  0.
         23    2    4    4    0    0  0.22917928763E+03  0.18982116002E+03 -0.80788175958E+03  0.86567487682E+03  0.90359483304E+02 0.  0.
          2    1    3    3  502    0  0.54800066201E+02 -0.40777028401E+02 -0.91632409429E+03  0.91886650776E+03  0.00000000000E+00 0. -1.
         -2    1    3    3    0  502  0.42019032389E+02 -0.59988076334E+02 -0.30206830158E+03  0.31082057075E+03  0.00000000000E+00 0.  1.
         13    1    5    5    0    0 -0.25527540063E+03 -0.93121043680E+02 -0.90750304535E+02  0.28648329221E+03  0.00000000000E+00 0. -1.
        -13    1    5    5    0    0 -0.70722985590E+02  0.40649883944E+01 -0.66833199000E+02  0.97390663361E+02  0.00000000000E+00 0.  1.
          3    1    6    6  503    0  0.17681793136E+03  0.17780091968E+03 -0.58627119210E+03  0.63764540191E+03  0.00000000000E+00 0. -1.
         -3    1    6    6    0  503  0.52361356271E+02  0.12020240336E+02 -0.22161056748E+03  0.22802947491E+03  0.00000000000E+00 0.  1.
<mgrwt>
<rscale>  0 0.11736168E+04</rscale>
<asrwt>0</asrwt>
<pdfrwt beam="1">  1        1 0.35869950E+00 0.11736168E+04</pdfrwt>
<pdfrwt beam="2">  1       -1 0.22721405E-01 0.11736168E+04</pdfrwt>
<totfact> 0.29101887E+01</totfact>
</mgrwt>
</event>
<event>
12    3  0.4769008E-008  0.1744077E+04  0.7818608E-02  0.8736617E-01
         -1   -1    0    0    0  501 -0.00000000000E+00  0.00000000000E+00  0.72963889357E+03  0.72963889357E+03  0.00000000000E+00 0.  1.
          1   -1    0    0  501    0  0.00000000000E+00 -0.00000000000E+00 -0.10422300261E+04  0.10422300261E+04  0.00000000000E+00 0. -1.
         23    2    1    2    0    0 -0.27776110357E+03 -0.32479035762E+03  0.39681812641E+03  0.59051506565E+03  0.92754569997E+02 0.  0.
        254    2    1    2    0    0  0.27776110357E+03  0.32479035762E+03 -0.70940925893E+03  0.11813538540E+04  0.84243422572E+03 0.  0.
         23    2    4    4    0    0  0.35854833429E+02  0.57032116807E+03 -0.35462651635E+03  0.67863158568E+03  0.90714161828E+02 0.  0.
         23    2    4    4    0    0  0.24190627014E+03 -0.24553081045E+03 -0.35478274258E+03  0.50272226832E+03  0.89748884215E+02 0.  0.
          1    1    3    3  502    0 -0.13379038551E+03 -0.90103424951E+02  0.13082788522E+03  0.20768830009E+03  0.00000000000E+00 0. -1.
         -1    1    3    3    0  502 -0.14397071807E+03 -0.23468693267E+03  0.26599024118E+03  0.38282676556E+03  0.00000000000E+00 0.  1.
         13    1    5    5    0    0 -0.21353890452E+01  0.17456508132E+03 -0.15635439943E+03  0.23435918101E+03  0.00000000000E+00 0.  1.
        -13    1    5    5    0    0  0.37990222474E+02  0.39575608675E+03 -0.19827211691E+03  0.44427240467E+03  0.00000000000E+00 0. -1.
          3    1    6    6  503    0  0.21247545597E+03 -0.21861422821E+03 -0.26291129625E+03  0.40256719918E+03  0.00000000000E+00 0. -1.
         -3    1    6    6    0  503  0.29430814172E+02 -0.26916582250E+02 -0.91871446337E+02  0.10015506914E+03  0.00000000000E+00 0.  1.
<mgrwt>
<rscale>  0 0.17440775E+04</rscale>
<asrwt>0</asrwt>
<pdfrwt beam="1">  1        1 0.16034308E+00 0.17440775E+04</pdfrwt>
<pdfrwt beam="2">  1       -1 0.11225214E+00 0.17440775E+04</pdfrwt>
<totfact> 0.96767570E+00</totfact>
</mgrwt>
</event>
<event>
12    3  0.4769008E-008  0.2085847E+04  0.7818608E-02  0.8567504E-01
         -1   -1    0    0    0  501 -0.00000000000E+00  0.00000000000E+00  0.44953184261E+03  0.44953184261E+03  0.00000000000E+00 0.  1.
          1   -1    0    0  501    0  0.00000000000E+00 -0.00000000000E+00 -0.24196040375E+04  0.24196040375E+04  0.00000000000E+00 0. -1.
         23    2    1    2    0    0 -0.42132368076E+02  0.75287944119E+03 -0.13496895661E+04  0.15487858046E+04  0.92048651752E+02 0.  0.
        254    2    1    2    0    0  0.42132368076E+02 -0.75287944119E+03 -0.62038262873E+03  0.13203500754E+04  0.88873343938E+03 0.  0.
         23    2    4    4    0    0 -0.16989256982E+02 -0.89523759779E+03 -0.68442062628E+03  0.11302519633E+04  0.85433691003E+02 0.  0.
         23    2    4    4    0    0  0.59121625058E+02  0.14235815660E+03  0.64037997558E+02  0.19009811212E+03  0.90968213128E+02 0.  0.
          4    1    3    3  502    0 -0.11658236119E+02  0.56748514706E+03 -0.10804844456E+04  0.12205006938E+04  0.00000000000E+00 0. -1.
         -4    1    3    3    0  502 -0.30474131957E+02  0.18539429413E+03 -0.26920512059E+03  0.32828511079E+03  0.00000000000E+00 0.  1.
         13    1    5    5    0    0 -0.11258567657E+02 -0.15606162465E+02 -0.20941349369E+02  0.28440249049E+02  0.00000000000E+00 0. -1.
        -13    1    5    5    0    0 -0.57306893251E+01 -0.87963143533E+03 -0.66347927691E+03  0.11018117143E+04  0.00000000000E+00 0.  1.
          2    1    6    6  503    0  0.80370529684E+02  0.11950995803E+03  0.36722772751E+02  0.14862911609E+03  0.00000000000E+00 0.  1.
         -2    1    6    6    0  503 -0.21248904626E+02  0.22848198568E+02  0.27315224806E+02  0.41468996031E+02  0.00000000000E+00 0. -1.
<mgrwt>
<rscale>  0 0.20858466E+04</rscale>
<asrwt>0</asrwt>
<pdfrwt beam="1">  1        1 0.37224678E+00 0.20858466E+04</pdfrwt>
<pdfrwt beam="2">  1       -1 0.69158744E-01 0.20858466E+04</pdfrwt>
<totfact> 0.29997842E+00</totfact>
</mgrwt>
</event>
<event>
12    3  0.4769008E-008  0.3311153E+04  0.7818608E-02  0.8160063E-01
          1   -1    0    0  501    0  0.00000000000E+00  0.00000000000E+00  0.18099654248E+04  0.18099654248E+04  0.00000000000E+00 0. -1.
         -1   -1    0    0    0  501 -0.00000000000E+00 -0.00000000000E+00 -0.15143568813E+04  0.15143568813E+04  0.00000000000E+00 0.  1.
         23    2    1    2    0    0 -0.45725613116E+03  0.59603852116E+02 -0.13134676151E+04  0.13950821560E+04  0.91767409068E+02 0.  0.
        254    2    1    2    0    0  0.45725613116E+03 -0.59603852116E+02  0.16090761586E+04  0.19292401500E+04  0.95927351866E+03 0.  0.
         23    2    4    4    0    0 -0.20538359170E+03 -0.19181092953E+03  0.18028233033E+03  0.34676767698E+03  0.93660294396E+02 0.  0.
         23    2    4    4    0    0  0.66263972286E+03  0.13220707742E+03  0.14287938283E+04  0.15824724730E+04  0.78722363880E+02 0.  0.
          1    1    3    3  502    0 -0.33515175714E+02 -0.13831178023E+02 -0.15986489623E+03  0.16392484112E+03  0.00000000000E+00 0. -1.
         -1    1    3    3    0  502 -0.42374095545E+03  0.73435030140E+02 -0.11536027189E+04  0.12311573149E+04  0.00000000000E+00 0.  1.
         13    1    5    5    0    0 -0.58826634994E+02 -0.11133641513E+03  0.52938534336E+02  0.13659743313E+03  0.00000000000E+00 0.  1.
        -13    1    5    5    0    0 -0.14655695670E+03 -0.80474514403E+02  0.12734379599E+03  0.21017024386E+03  0.00000000000E+00 0. -1.
          1    1    6    6  503    0  0.57689355788E+03  0.89258364654E+02  0.12028976089E+04  0.13370624108E+04  0.00000000000E+00 0. -1.
         -1    1    6    6    0  503  0.85746164977E+02  0.42948712762E+02  0.22589621937E+03  0.24541006226E+03  0.00000000000E+00 0.  1.
<mgrwt>
<rscale>  0 0.33111530E+04</rscale>
<asrwt>0</asrwt>
<pdfrwt beam="1">  1        1 0.27845622E+00 0.33111530E+04</pdfrwt>
<pdfrwt beam="2">  1       -1 0.23297798E+00 0.33111530E+04</pdfrwt>
<totfact> 0.29988004E-01</totfact>
</mgrwt>
</event>
<event>
12    3  0.4769008E-008  0.2393124E+04  0.7818608E-02  0.8442082E-01
          2   -1    0    0  501    0  0.00000000000E+00  0.00000000000E+00  0.24227124578E+04  0.24227124578E+04  0.00000000000E+00 0.  1.
         -2   -1    0    0    0  501 -0.00000000000E+00 -0.00000000000E+00 -0.59097407290E+03  0.59097407290E+03  0.00000000000E+00 0. -1.
         23    2    1    2    0    0  0.18353542375E+03 -0.20410948584E+03  0.20371803550E+04  0.20572340178E+04  0.82231813821E+02 0.  0.
        254    2    1    2    0    0 -0.18353542375E+03  0.20410948584E+03 -0.20544197013E+03  0.95645251287E+03  0.89288805139E+03 0.  0.
         23    2    4    4    0    0 -0.48851708109E+03  0.29995542017E+03 -0.31540003077E+02  0.58117954341E+03  0.90292288036E+02 0.  0.
         23    2    4    4    0    0  0.30498165734E+03 -0.95845934335E+02 -0.17390196706E+03  0.37527296946E+03  0.91584130826E+02 0.  0.
          4    1    3    3  502    0  0.61063572668E+02 -0.12724011087E+03  0.10837909906E+04  0.10929417720E+04  0.00000000000E+00 0.  1.
         -4    1    3    3    0  502  0.12247185108E+03 -0.76869374972E+02  0.95338936446E+03  0.96429224584E+03  0.00000000000E+00 0. -1.
         13    1    5    5    0    0 -0.95011146602E+01  0.11388829094E+02 -0.15896095835E+02  0.21740801980E+02  0.00000000000E+00 0. -1.
        -13    1    5    5    0    0 -0.47901596643E+03  0.28856659108E+03 -0.15643907241E+02  0.55943874143E+03  0.00000000000E+00 0.  1.
          3    1    6    6  503    0  0.23684579459E+03 -0.38763634903E+02 -0.10128376205E+03  0.26049366646E+03  0.00000000000E+00 0. -1.
         -3    1    6    6    0  503  0.68135862749E+02 -0.57082299432E+02 -0.72618205004E+02  0.11477930301E+03  0.00000000000E+00 0.  1.
<mgrwt>
<rscale>  0 0.23931237E+04</rscale>
<asrwt>0</asrwt>
<pdfrwt beam="1">  1        2 0.37272499E+00 0.23931237E+04</pdfrwt>
<pdfrwt beam="2">  1       -2 0.90919089E-01 0.23931237E+04</pdfrwt>
<totfact> 0.35826244E+00</totfact>
</mgrwt>
</event>
<event>
12    3  0.4769008E-008  0.1910657E+04  0.7818608E-02  0.8649570E-01
         -1   -1    0    0    0  501 -0.00000000000E+00  0.00000000000E+00  0.73725644422E+03  0.73725644422E+03  0.00000000000E+00 0.  1.
          1   -1    0    0  501    0  0.00000000000E+00 -0.00000000000E+00 -0.12379041876E+04  0.12379041876E+04  0.00000000000E+00 0. -1.
         23    2    1    2    0    0  0.21115698937E+03  0.75646520100E+02  0.54066244763E+03  0.59233308358E+03  0.90735491709E+02 0.  0.
        254    2    1    2    0    0 -0.21115698937E+03 -0.75646520100E+02 -0.10413101910E+04  0.13828275482E+04  0.88180238383E+03 0.  0.
         23    2    4    4    0    0 -0.42166623997E+03  0.19915777179E+03 -0.85395922811E+03  0.97725024075E+03  0.91134152598E+02 0.  0.
         23    2    4    4    0    0  0.21050925059E+03 -0.27480429189E+03 -0.18735096288E+03  0.40557730749E+03  0.97780497180E+02 0.  0.
          1    1    3    3  502    0  0.51778544981E+01  0.18860576141E+02  0.14213133679E+02  0.24177358800E+02  0.00000000000E+00 0. -1.
         -1    1    3    3    0  502  0.20597913487E+03  0.56785943959E+02  0.52644931395E+03  0.56815572478E+03  0.00000000000E+00 0.  1.
         13    1    5    5    0    0 -0.15255638291E+03  0.61837600093E+02 -0.21793782742E+03  0.27311945257E+03  0.00000000000E+00 0. -1.
        -13    1    5    5    0    0 -0.26910985706E+03  0.13732017170E+03 -0.63602140069E+03  0.70413078817E+03  0.00000000000E+00 0.  1.
          4    1    6    6  503    0  0.45937751698E+02 -0.11822014246E+03 -0.33376809577E+02  0.13114987812E+03  0.00000000000E+00 0. -1.
         -4    1    6    6    0  503  0.16457149890E+03 -0.15658414944E+03 -0.15397415331E+03  0.27442742937E+03  0.00000000000E+00 0.  1.
<mgrwt>
<rscale>  0 0.19106573E+04</rscale>
<asrwt>0</asrwt>
<pdfrwt beam="1">  1        1 0.19044680E+00 0.19106573E+04</pdfrwt>
<pdfrwt beam="2">  1       -1 0.11342407E+00 0.19106573E+04</pdfrwt>
<totfact> 0.66506242E+00</totfact>
</mgrwt>
</event>
<event>
12    3  0.4769008E-008  0.2112051E+04  0.7818608E-02  0.8555954E-01
          2   -1    0    0  501    0  0.00000000000E+00  0.00000000000E+00  0.10222681948E+04  0.10222681948E+04  0.00000000000E+00 0.  1.
         -2   -1    0    0    0  501 -0.00000000000E+00 -0.00000000000E+00 -0.10908970390E+04  0.10908970390E+04  0.00000000000E+00 0. -1.
         23    2    1    2    0    0  0.34671068687E+03 -0.78375675025E+03 -0.11973273456E+03  0.87023617893E+03  0.92152783175E+02 0.  0.
        254    2    1    2    0    0 -0.34671068687E+03  0.78375675025E+03  0.51103890351E+02  0.12429290549E+04  0.89876475451E+03 0.  0.
         23    2    4    4    0    0  0.28789078495E+03  0.22955120710E+03 -0.73773318094E+02  0.38573322487E+03  0.88163243866E+02 0.  0.
         23    2    4    4    0    0 -0.63460147182E+03  0.55420554315E+03  0.12487720845E+03  0.85719583003E+03  0.96579302800E+02 0.  0.
          1    1    3    3  502    0  0.21560894441E+03 -0.58288324457E+03 -0.71707873522E+02  0.62560539707E+03  0.00000000000E+00 0. -1.
         -1    1    3    3    0  502  0.13110174246E+03 -0.20087350568E+03 -0.48024861037E+02  0.24463078187E+03  0.00000000000E+00 0.  1.
         13    1    5    5    0    0  0.22164419550E+02  0.42117959622E+02  0.12686647556E+02  0.49255812276E+02  0.00000000000E+00 0.  1.
        -13    1    5    5    0    0  0.26572636540E+03  0.18743324747E+03 -0.86459965650E+02  0.33647741259E+03  0.00000000000E+00 0. -1.
          3    1    6    6  503    0 -0.52153269711E+03  0.40379111030E+03  0.10660421848E+03  0.66813776597E+03  0.00000000000E+00 0. -1.
         -3    1    6    6    0  503 -0.11306877471E+03  0.15041443285E+03  0.18272989969E+02  0.18905806406E+03  0.00000000000E+00 0.  1.
<mgrwt>
<rscale>  0 0.21120505E+04</rscale>
<asrwt>0</asrwt>
<pdfrwt beam="1">  1        2 0.15727203E+00 0.21120505E+04</pdfrwt>
<pdfrwt beam="2">  1       -2 0.16783031E+00 0.21120505E+04</pdfrwt>
<totfact> 0.49559800E+00</totfact>
</mgrwt>
</event>
<event>
12    3  0.4769008E-008  0.2616907E+04  0.7818608E-02  0.8362481E-01
         -2   -1    0    0    0  501 -0.00000000000E+00  0.00000000000E+00  0.50531664557E+03  0.50531664557E+03  0.00000000000E+00 0.  1.
          2   -1    0    0  501    0  0.00000000000E+00 -0.00000000000E+00 -0.33880742815E+04  0.33880742815E+04  0.00000000000E+00 0. -1.
         23    2    1    2    0    0  0.14723727088E+03  0.94951952196E+03 -0.32607730845E+03  0.10188173098E+04  0.91630579946E+02 0.  0.
        254    2    1    2    0    0 -0.14723727088E+03 -0.94951952196E+03 -0.25566803275E+04  0.28745736173E+04  0.89626617002E+03 0.  0.
         23    2    4    4    0    0 -0.39190075002E+03 -0.22021402819E+03 -0.14743965930E+04  0.15440214241E+04  0.89868953471E+02 0.  0.
         23    2    4    4    0    0  0.24466347914E+03 -0.72930549377E+03 -0.10822837346E+04  0.13305521932E+04  0.85348317595E+02 0.  0.
          2    1    3    3  502    0 -0.47024876893E+01  0.72345994102E+02 -0.44706322941E+02  0.85174594593E+02  0.00000000000E+00 0. -1.
         -2    1    3    3    0  502  0.15193975857E+03  0.87717352786E+03 -0.28137098551E+03  0.93364271523E+03  0.00000000000E+00 0.  1.
         13    1    5    5    0    0 -0.31013551383E+03 -0.21309663351E+03 -0.12003532488E+04  0.12579515627E+04  0.00000000000E+00 0.  1.
        -13    1    5    5    0    0 -0.81765236190E+02 -0.71173946768E+01 -0.27404334416E+03  0.28606986146E+03  0.00000000000E+00 0. -1.
          4    1    6    6  503    0  0.74396557313E+01 -0.60055834038E+02 -0.12290696943E+03  0.13699698834E+03  0.00000000000E+00 0. -1.
         -4    1    6    6    0  503  0.23722382340E+03 -0.66924965974E+03 -0.95937676514E+03  0.11935552048E+04  0.00000000000E+00 0.  1.
<mgrwt>
<rscale>  0 0.26169068E+04</rscale>
<asrwt>0</asrwt>
<pdfrwt beam="1">  1        2 0.52124221E+00 0.26169068E+04</pdfrwt>
<pdfrwt beam="2">  1       -2 0.77741020E-01 0.26169068E+04</pdfrwt>
<totfact> 0.12653870E+00</totfact>
</mgrwt>
</event>
<event>
12    3  0.4769008E-008  0.1421212E+04  0.7818608E-02  0.8938606E-01
         -2   -1    0    0    0  501 -0.00000000000E+00  0.00000000000E+00  0.29590902759E+03  0.29590902759E+03  0.00000000000E+00 0.  1.
          2   -1    0    0  501    0  0.00000000000E+00 -0.00000000000E+00 -0.17064736795E+04  0.17064736795E+04  0.00000000000E+00 0. -1.
         23    2    1    2    0    0 -0.35374536839E+01  0.31077919511E+03 -0.83104182281E+03  0.89175198496E+03  0.89414035388E+02 0.  0.
        254    2    1    2    0    0  0.35374536839E+01 -0.31077919511E+03 -0.57952282906E+03  0.11106307221E+04  0.89501825108E+03 0.  0.
         23    2    4    4    0    0 -0.32457428991E+03 -0.38795709153E+03 -0.56073356225E+03  0.76067684382E+03  0.91367162381E+02 0.  0.
         23    2    4    4    0    0  0.32811174359E+03  0.77177896412E+02 -0.18789266814E+02  0.34995387827E+03  0.92200522743E+02 0.  0.
          1    1    3    3  502    0  0.19111629492E+02  0.27364378547E+03 -0.76480023484E+03  0.81250573839E+03  0.00000000000E+00 0. -1.
         -1    1    3    3    0  502 -0.22649083176E+02  0.37135409646E+02 -0.66241587969E+02  0.79246246567E+02  0.00000000000E+00 0.  1.
         13    1    5    5    0    0 -0.27170189460E+03 -0.36354115676E+03 -0.47439034958E+03  0.65652897573E+03  0.00000000000E+00 0.  1.
        -13    1    5    5    0    0 -0.52872395307E+02 -0.24415934765E+02 -0.86343212664E+02  0.10414786810E+03  0.00000000000E+00 0. -1.
          4    1    6    6  503    0  0.11865873622E+03 -0.74446211358E+01  0.20542861816E+02  0.12065374937E+03  0.00000000000E+00 0. -1.
         -4    1    6    6    0  503  0.20945300737E+03  0.84622517548E+02 -0.39332128630E+02  0.22930012890E+03  0.00000000000E+00 0.  1.
<mgrwt>
<rscale>  0 0.14212121E+04</rscale>
<asrwt>0</asrwt>
<pdfrwt beam="1">  1        2 0.26253442E+00 0.14212121E+04</pdfrwt>
<pdfrwt beam="2">  1       -2 0.45524465E-01 0.14212121E+04</pdfrwt>
<totfact> 0.43242737E+01</totfact>
</mgrwt>
</event>
<event>
12    3  0.4769008E-008  0.1887492E+04  0.7818608E-02  0.8661108E-01
          2   -1    0    0  501    0  0.00000000000E+00  0.00000000000E+00  0.12727125933E+04  0.12727125933E+04  0.00000000000E+00 0. -1.
         -2   -1    0    0    0  501 -0.00000000000E+00 -0.00000000000E+00 -0.69980959551E+03  0.69980959551E+03  0.00000000000E+00 0.  1.
         23    2    1    2    0    0 -0.64252346316E+02  0.62860572416E+03 -0.12844588365E+03  0.65093469172E+03  0.89129722343E+02 0.  0.
        254    2    1    2    0    0  0.64252346316E+02 -0.62860572416E+03  0.70134888143E+03  0.13215874971E+04  0.92489444723E+03 0.  0.
         23    2    4    4    0    0  0.14309468095E+03 -0.62733382568E+03  0.41826246898E+02  0.65116191621E+03  0.90766676900E+02 0.  0.
         23    2    4    4    0    0 -0.78842334638E+02 -0.12718984768E+01  0.65952263453E+03  0.67042558087E+03  0.91008914760E+02 0.  0.
          1    1    3    3  502    0 -0.76706378989E+02  0.32920119265E+03 -0.55841881648E+02  0.34260123988E+03  0.00000000000E+00 0. -1.
         -1    1    3    3    0  502  0.12454032673E+02  0.29940453151E+03 -0.72604002006E+02  0.30833345184E+03  0.00000000000E+00 0.  1.
         13    1    5    5    0    0  0.13426465073E+03 -0.61342761263E+03  0.26260594418E+02  0.62849825075E+03  0.00000000000E+00 0. -1.
        -13    1    5    5    0    0  0.88300302218E+01 -0.13906213047E+02  0.15565652480E+02  0.22663665462E+02  0.00000000000E+00 0.  1.
          1    1    6    6  503    0 -0.92764473107E+02 -0.67662465750E+01  0.40840707856E+03  0.41886438305E+03  0.00000000000E+00 0. -1.
         -1    1    6    6    0  503  0.13922138469E+02  0.54943480981E+01  0.25111555597E+03  0.25156119782E+03  0.00000000000E+00 0.  1.
<mgrwt>
<rscale>  0 0.18874920E+04</rscale>
<asrwt>0</asrwt>
<pdfrwt beam="1">  1        2 0.19580194E+00 0.18874920E+04</pdfrwt>
<pdfrwt beam="2">  1       -2 0.10766301E+00 0.18874920E+04</pdfrwt>
<totfact> 0.11129576E+01</totfact>
</mgrwt>
</event>
<event>
12    3  0.4769008E-008  0.3969090E+04  0.7818608E-02  0.8010811E-01
         -1   -1    0    0    0  501 -0.00000000000E+00  0.00000000000E+00  0.23508667992E+04  0.23508667992E+04  0.00000000000E+00 0.  1.
          1   -1    0    0  501    0  0.00000000000E+00 -0.00000000000E+00 -0.16753052939E+04  0.16753052939E+04  0.00000000000E+00 0. -1.
         23    2    1    2    0    0  0.62555184337E+03 -0.80539497998E+03  0.19292246041E+04  0.21840153398E+04  0.89661859928E+02 0.  0.
        254    2    1    2    0    0 -0.62555184337E+03  0.80539497998E+03 -0.12536630987E+04  0.18421567533E+04  0.88424779120E+03 0.  0.
         23    2    4    4    0    0 -0.64527203719E+02  0.64092643139E+03 -0.10121528655E+04  0.12032550684E+04  0.91754487301E+02 0.  0.
         23    2    4    4    0    0 -0.56102463965E+03  0.16446854859E+03 -0.24151023318E+03  0.63890168494E+03  0.89831066544E+02 0.  0.
          2    1    3    3  502    0  0.15475846002E+03 -0.14966230337E+03  0.36435572952E+03  0.42320690404E+03  0.00000000000E+00 0. -1.
         -2    1    3    3    0  502  0.47079338335E+03 -0.65573267661E+03  0.15648688745E+04  0.17608084358E+04  0.00000000000E+00 0.  1.
         13    1    5    5    0    0  0.18439300069E+02  0.12009843846E+03 -0.22588129307E+03  0.25648781895E+03  0.00000000000E+00 0.  1.
        -13    1    5    5    0    0 -0.82966503787E+02  0.52082799293E+03 -0.78627157241E+03  0.94676724941E+03  0.00000000000E+00 0. -1.
          3    1    6    6  503    0 -0.52786368389E+03  0.15605886473E+03 -0.20128821578E+03  0.58609844211E+03  0.00000000000E+00 0. -1.
         -3    1    6    6    0  503 -0.33160955756E+02  0.84096838548E+01 -0.40222017397E+02  0.52803242823E+02  0.00000000000E+00 0.  1.
<mgrwt>
<rscale>  0 0.39690904E+04</rscale>
<asrwt>0</asrwt>
<pdfrwt beam="1">  1        1 0.25773928E+00 0.39690904E+04</pdfrwt>
<pdfrwt beam="2">  1       -1 0.36167182E+00 0.39690904E+04</pdfrwt>
<totfact> 0.50486558E-02</totfact>
</mgrwt>
</event>
<event>
12    3  0.4769008E-008  0.2843575E+04  0.7818608E-02  0.8289866E-01
         -3   -1    0    0    0  501 -0.00000000000E+00  0.00000000000E+00  0.77740511533E+03  0.77740511533E+03  0.00000000000E+00 0.  1.
          3   -1    0    0  501    0  0.00000000000E+00 -0.00000000000E+00 -0.26002919409E+04  0.26002919409E+04  0.00000000000E+00 0. -1.
         23    2    1    2    0    0 -0.61620105836E+03 -0.10731521770E+04 -0.12114091480E+04  0.17338147459E+04  0.85100587304E+02 0.  0.
        254    2    1    2    0    0  0.61620105836E+03  0.10731521770E+04 -0.61147767750E+03  0.16438823103E+04  0.89279603531E+03 0.  0.
         23    2    4    4    0    0 -0.92846611715E+01  0.70146577103E+03 -0.30433266614E+02  0.70833291426E+03  0.93106932330E+02 0.  0.
         23    2    4    4    0    0  0.62548571953E+03  0.37168640595E+03 -0.58104441088E+03  0.93554939601E+03  0.90867459818E+02 0.  0.
          4    1    3    3  502    0 -0.15538187811E+03 -0.33601911277E+03 -0.33232065163E+03  0.49748305267E+03  0.00000000000E+00 0. -1.
         -4    1    3    3    0  502 -0.46081918025E+03 -0.73713306420E+03 -0.87908849640E+03  0.12363316932E+04  0.00000000000E+00 0.  1.
         13    1    5    5    0    0 -0.33759741386E+02  0.97788937432E+02 -0.75330748237E+01  0.10372629194E+03  0.00000000000E+00 0.  1.
        -13    1    5    5    0    0  0.24475080214E+02  0.60367683359E+03 -0.22900191790E+02  0.60460662232E+03  0.00000000000E+00 0. -1.
          2    1    6    6  503    0  0.10578004446E+03  0.10442787158E+03 -0.12667582249E+03  0.19529813663E+03  0.00000000000E+00 0.  1.
         -2    1    6    6    0  503  0.51970567507E+03  0.26725853437E+03 -0.45436858839E+03  0.74025125937E+03  0.00000000000E+00 0. -1.
<mgrwt>
<rscale>  0 0.28435754E+04</rscale>
<asrwt>0</asrwt>
<pdfrwt beam="1">  1        3 0.40004492E+00 0.28435754E+04</pdfrwt>
<pdfrwt beam="2">  1       -3 0.11960079E+00 0.28435754E+04</pdfrwt>
<totfact> 0.14285937E-02</totfact>
</mgrwt>
</event>
<event>
12    3  0.4769008E-008  0.1268549E+04  0.7818608E-02  0.9054884E-01
         -2   -1    0    0    0  501 -0.00000000000E+00  0.00000000000E+00  0.12815541274E+03  0.12815541274E+03  0.00000000000E+00 0.  1.
          2   -1    0    0  501    0  0.00000000000E+00 -0.00000000000E+00 -0.31391915703E+04  0.31391915703E+04  0.00000000000E+00 0. -1.
         23    2    1    2    0    0  0.10998867022E+03  0.18058930053E+03 -0.12782450908E+04  0.12988125623E+04  0.91068967110E+02 0.  0.
        254    2    1    2    0    0 -0.10998867022E+03 -0.18058930053E+03 -0.17327910668E+04  0.19685344208E+04  0.90986421051E+03 0.  0.
         23    2    4    4    0    0  0.31011719585E+03 -0.34146951197E+03 -0.98890288802E+03  0.10949850782E+04  0.91045575803E+02 0.  0.
         23    2    4    4    0    0 -0.42010586607E+03  0.16088021144E+03 -0.74388817876E+03  0.87354934251E+03  0.85717268823E+02 0.  0.
          1    1    3    3  502    0  0.98194201629E+02  0.18322593020E+03 -0.12592880908E+04  0.12763308107E+04  0.00000000000E+00 0. -1.
         -1    1    3    3    0  502  0.11794468588E+02 -0.26366296681E+01 -0.18956999997E+02  0.22481751581E+02  0.00000000000E+00 0.  1.
         13    1    5    5    0    0  0.39207486253E+02 -0.54367718828E+02 -0.82085946873E+02  0.10597725465E+03  0.00000000000E+00 0. -1.
        -13    1    5    5    0    0  0.27090970960E+03 -0.28710179314E+03 -0.90681694115E+03  0.98900782359E+03  0.00000000000E+00 0.  1.
          4    1    6    6  503    0 -0.18300855183E+01  0.41945217602E+01 -0.37597737554E+02  0.37875230626E+02  0.00000000000E+00 0. -1.
         -4    1    6    6    0  503 -0.41827578055E+03  0.15668568968E+03 -0.70629044120E+03  0.83567411189E+03  0.00000000000E+00 0.  1.
<mgrwt>
<rscale>  0 0.12685494E+04</rscale>
<asrwt>0</asrwt>
<pdfrwt beam="1">  1        2 0.48295251E+00 0.12685494E+04</pdfrwt>
<pdfrwt beam="2">  1       -2 0.19716219E-01 0.12685494E+04</pdfrwt>
<totfact> 0.31029219E+01</totfact>
</mgrwt>
</event>
<event>
12    3  0.4769008E-008  0.4496445E+04  0.7818608E-02  0.7911259E-01
         -2   -1    0    0    0  501 -0.00000000000E+00  0.00000000000E+00  0.19689350096E+04  0.19689350096E+04  0.00000000000E+00 0.  1.
          2   -1    0    0  501    0  0.00000000000E+00 -0.00000000000E+00 -0.25671266247E+04  0.25671266247E+04  0.00000000000E+00 0. -1.
         23    2    1    2    0    0 -0.33960943497E+03 -0.84258422396E+03  0.16847351787E+04  0.19162722803E+04  0.92109103798E+02 0.  0.
        254    2    1    2    0    0  0.33960943497E+03  0.84258422396E+03 -0.22829267937E+04  0.26197893541E+04  0.90898777290E+03 0.  0.
         23    2    4    4    0    0  0.30072634542E+03  0.52623328385E+03 -0.21912368117E+04  0.22753206867E+04  0.90596129100E+02 0.  0.
         23    2    4    4    0    0  0.38883089551E+02  0.31635094011E+03 -0.91689982041E+02  0.34446866734E+03  0.93068781070E+02 0.  0.
          3    1    3    3  502    0 -0.97910445535E+02 -0.15991724486E+03  0.39104966949E+03  0.43368170881E+03  0.00000000000E+00 0. -1.
         -3    1    3    3    0  502 -0.24169898944E+03 -0.68266697909E+03  0.12936855092E+04  0.14825905715E+04  0.00000000000E+00 0.  1.
         13    1    5    5    0    0  0.27938124464E+03  0.43952000582E+03 -0.19398154836E+04  0.20085108478E+04  0.00000000000E+00 0.  1.
        -13    1    5    5    0    0  0.21345100786E+02  0.86713278028E+02 -0.25142132811E+03  0.26680983891E+03  0.00000000000E+00 0. -1.
          4    1    6    6  503    0  0.57435393799E+02  0.24266168848E+03 -0.98631381113E+02  0.26816351142E+03  0.00000000000E+00 0.  1.
         -4    1    6    6    0  503 -0.18552304248E+02  0.73689251629E+02  0.69413990726E+01  0.76305155918E+02  0.00000000000E+00 0. -1.
<mgrwt>
<rscale>  0 0.44964455E+04</rscale>
<asrwt>0</asrwt>
<pdfrwt beam="1">  1        2 0.39494256E+00 0.44964455E+04</pdfrwt>
<pdfrwt beam="2">  1       -2 0.30291308E+00 0.44964455E+04</pdfrwt>
<totfact> 0.73550472E-02</totfact>
</mgrwt>
</event>
<event>
12    3  0.4769008E-008  0.3165862E+04  0.7818608E-02  0.8197892E-01
         -1   -1    0    0    0  501 -0.00000000000E+00  0.00000000000E+00  0.76028476699E+03  0.76028476699E+03  0.00000000000E+00 0.  1.
          1   -1    0    0  501    0  0.00000000000E+00 -0.00000000000E+00 -0.32957002432E+04  0.32957002432E+04  0.00000000000E+00 0. -1.
         23    2    1    2    0    0  0.28741745692E+03 -0.74086262917E+03  0.39300430629E+03  0.89130569412E+03  0.92126140504E+02 0.  0.
        254    2    1    2    0    0 -0.28741745692E+03  0.74086262917E+03 -0.29284197825E+04  0.31646793161E+04  0.89892520331E+03 0.  0.
         23    2    4    4    0    0 -0.67486744145E+01  0.42170603005E+03 -0.36679574851E+03  0.56645022532E+03  0.91897857771E+02 0.  0.
         23    2    4    4    0    0 -0.28066878251E+03  0.31915659913E+03 -0.25616240340E+04  0.25982290907E+04  0.90778941466E+02 0.  0.
          3    1    3    3  502    0  0.52142273447E+02 -0.19078328497E+03  0.60460203974E+02  0.20681517055E+03  0.00000000000E+00 0. -1.
         -3    1    3    3    0  502  0.23527518347E+03 -0.55007934420E+03  0.33254410232E+03  0.68449052357E+03  0.00000000000E+00 0.  1.
         13    1    5    5    0    0  0.99011753150E+01  0.38736918864E+03 -0.35739854382E+03  0.52714954302E+03  0.00000000000E+00 0. -1.
        -13    1    5    5    0    0 -0.16649849730E+02  0.34336841404E+02 -0.93972046880E+01  0.39300682304E+02  0.00000000000E+00 0.  1.
          4    1    6    6  503    0 -0.25361725855E+03  0.31856060118E+03 -0.23748212975E+04  0.24094768655E+04  0.00000000000E+00 0. -1.
         -4    1    6    6    0  503 -0.27051523954E+02  0.59599794243E+00 -0.18680273651E+03  0.18875222523E+03  0.00000000000E+00 0.  1.
<mgrwt>
<rscale>  0 0.31658621E+04</rscale>
<asrwt>0</asrwt>
<pdfrwt beam="1">  1        1 0.50703081E+00 0.31658621E+04</pdfrwt>
<pdfrwt beam="2">  1       -1 0.11696689E+00 0.31658621E+04</pdfrwt>
<totfact> 0.19873555E-01</totfact>
</mgrwt>
</event>
<event>
12    3  0.4769008E-008  0.3830679E+04  0.7818608E-02  0.8039603E-01
         -2   -1    0    0    0  501 -0.00000000000E+00  0.00000000000E+00  0.19579985591E+04  0.19579985591E+04  0.00000000000E+00 0.  1.
          2   -1    0    0  501    0  0.00000000000E+00 -0.00000000000E+00 -0.18736103226E+04  0.18736103226E+04  0.00000000000E+00 0. -1.
         23    2    1    2    0    0 -0.13995295547E+04  0.52980675734E+03 -0.97396249971E+03  0.17883083870E+04  0.10032826885E+03 0.  0.
        254    2    1    2    0    0  0.13995295547E+04 -0.52980675734E+03  0.10583507363E+04  0.20433004947E+04  0.90310157584E+03 0.  0.
         23    2    4    4    0    0  0.13482297248E+04 -0.15863025152E+03  0.79507702732E+03  0.15758117533E+04  0.90267685497E+02 0.  0.
         23    2    4    4    0    0  0.51299829899E+02 -0.37117650582E+03  0.26327370894E+03  0.46748874142E+03  0.93962793241E+02 0.  0.
          1    1    3    3  502    0 -0.18802373979E+03  0.44045055183E+02 -0.15248506729E+03  0.24605810159E+03  0.00000000000E+00 0. -1.
         -1    1    3    3    0  502 -0.12115058149E+04  0.48576170216E+03 -0.82147743242E+03  0.15422502854E+04  0.00000000000E+00 0.  1.
         13    1    5    5    0    0  0.23624693757E+03 -0.62050303448E+02  0.13550613553E+03  0.27932913997E+03  0.00000000000E+00 0. -1.
        -13    1    5    5    0    0  0.11119827872E+04 -0.96579948074E+02  0.65957089179E+03  0.12964826133E+04  0.00000000000E+00 0.  1.
          1    1    6    6  503    0 -0.64077706086E+01  0.17920320402E+01  0.13104899155E+02  0.14697254331E+02  0.00000000000E+00 0. -1.
         -1    1    6    6    0  503  0.57707600508E+02 -0.37296853786E+03  0.25016880979E+03  0.45279148709E+03  0.00000000000E+00 0.  1.
<mgrwt>
<rscale>  0 0.38306795E+04</rscale>
<asrwt>0</asrwt>
<pdfrwt beam="1">  1        2 0.28824774E+00 0.38306795E+04</pdfrwt>
<pdfrwt beam="2">  1       -2 0.30123055E+00 0.38306795E+04</pdfrwt>
<totfact> 0.19621572E-01</totfact>
</mgrwt>
</event>
<event>
12    3  0.4769008E-008  0.1501712E+04  0.7818608E-02  0.8883315E-01
         -1   -1    0    0    0  501 -0.00000000000E+00  0.00000000000E+00  0.26264682803E+04  0.26264682803E+04  0.00000000000E+00 0.  1.
          1   -1    0    0  501    0  0.00000000000E+00 -0.00000000000E+00 -0.21465498880E+03  0.21465498880E+03  0.00000000000E+00 0. -1.
         23    2    1    2    0    0  0.55072177152E+02  0.24801554903E+02 -0.12167891970E+03  0.16731654187E+03  0.97678062336E+02 0.  0.
        254    2    1    2    0    0 -0.55072177152E+02 -0.24801554903E+02  0.25334922112E+04  0.26738067273E+04  0.85264973380E+03 0.  0.
         23    2    4    4    0    0 -0.15884111454E+03 -0.23359723340E+03  0.23323544054E+04  0.23509160076E+04  0.84444270763E+02 0.  0.
         23    2    4    4    0    0  0.10376893739E+03  0.20879567850E+03  0.20113780580E+03  0.32289071972E+03  0.97151285278E+02 0.  0.
          1    1    3    3  502    0  0.58583934377E+02  0.21246900208E+02 -0.13737251398E+03  0.15084666299E+03  0.00000000000E+00 0. -1.
         -1    1    3    3    0  502 -0.35117572247E+01  0.35546546950E+01  0.15693594285E+02  0.16469878882E+02  0.00000000000E+00 0.  1.
         13    1    5    5    0    0 -0.14229162333E+03 -0.20535459477E+03  0.22161859556E+04  0.22302236672E+04  0.00000000000E+00 0. -1.
        -13    1    5    5    0    0 -0.16549491211E+02 -0.28242638628E+02  0.11616844981E+03  0.12069234039E+03  0.00000000000E+00 0.  1.
          4    1    6    6  503    0  0.44195706797E+02  0.17343740891E+03  0.11667253995E+03  0.21364989325E+03  0.00000000000E+00 0. -1.
         -4    1    6    6    0  503  0.59573230595E+02  0.35358269590E+02  0.84465265854E+02  0.10924082647E+03  0.00000000000E+00 0.  1.
<mgrwt>
<rscale>  0 0.15017117E+04</rscale>
<asrwt>0</asrwt>
<pdfrwt beam="1">  1        1 0.33023846E-01 0.15017117E+04</pdfrwt>
<pdfrwt beam="2">  1       -1 0.40407202E+00 0.15017117E+04</pdfrwt>
<totfact> 0.88638981E-01</totfact>
</mgrwt>
</event>
<event>
12    3  0.4769008E-008  0.1121553E+04  0.7818608E-02  0.9184436E-01
         -1   -1    0    0    0  501 -0.00000000000E+00  0.00000000000E+00  0.44629135547E+03  0.44629135547E+03  0.00000000000E+00 0.  1.
          1   -1    0    0  501    0  0.00000000000E+00 -0.00000000000E+00 -0.70462956955E+03  0.70462956955E+03  0.00000000000E+00 0. -1.
         23    2    1    2    0    0 -0.13733486533E+03 -0.10323280742E+03 -0.14040704428E+03  0.24034652557E+03  0.92382013967E+02 0.  0.
        254    2    1    2    0    0  0.13733486533E+03  0.10323280742E+03 -0.11793116980E+03  0.91057439945E+03  0.88640853920E+03 0.  0.
         23    2    4    4    0    0 -0.82729123599E+02  0.39817880459E+03 -0.27549908980E+03  0.49985613545E+03  0.92552360073E+02 0.  0.
         23    2    4    4    0    0  0.22006398893E+03 -0.29494599716E+03  0.15756792000E+03  0.41071826400E+03  0.91872425165E+02 0.  0.
          1    1    3    3  502    0 -0.94469411793E+02 -0.59497238191E+02 -0.14005232234E+03  0.17910623694E+03  0.00000000000E+00 0. -1.
         -1    1    3    3    0  502 -0.42865453541E+02 -0.43735569233E+02 -0.35472193215E+00  0.61240288627E+02  0.00000000000E+00 0.  1.
         13    1    5    5    0    0 -0.15976033067E+02  0.27848036441E+03 -0.20145961968E+03  0.34408214914E+03  0.00000000000E+00 0. -1.
        -13    1    5    5    0    0 -0.66753090532E+02  0.11969844017E+03 -0.74039470121E+02  0.15577398631E+03  0.00000000000E+00 0.  1.
          1    1    6    6  503    0  0.19918977189E+03 -0.28516432301E+03  0.12256338069E+03  0.36880487881E+03  0.00000000000E+00 0. -1.
         -1    1    6    6    0  503  0.20874217041E+02 -0.97816741477E+01  0.35004539310E+02  0.41913385195E+02  0.00000000000E+00 0.  1.
<mgrwt>
<rscale>  0 0.11215526E+04</rscale>
<asrwt>0</asrwt>
<pdfrwt beam="1">  1        1 0.10840455E+00 0.11215526E+04</pdfrwt>
<pdfrwt beam="2">  1       -1 0.68660208E-01 0.11215526E+04</pdfrwt>
<totfact> 0.57634640E+01</totfact>
</mgrwt>
</event>
<event>
12    3  0.4769008E-008  0.1374501E+04  0.7818608E-02  0.8972486E-01
         -2   -1    0    0    0  501 -0.00000000000E+00  0.00000000000E+00  0.12055829259E+04  0.12055829259E+04  0.00000000000E+00 0. -1.
          2   -1    0    0  501    0  0.00000000000E+00 -0.00000000000E+00 -0.39177151316E+03  0.39177151316E+03  0.00000000000E+00 0.  1.
         23    2    1    2    0    0 -0.33783070953E+03  0.19207170073E+03  0.19497661564E+03  0.44422769412E+03  0.91111124739E+02 0.  0.
        254    2    1    2    0    0  0.33783070953E+03 -0.19207170073E+03  0.61883479715E+03  0.11531267450E+04  0.89203343957E+03 0.  0.
         23    2    4    4    0    0 -0.29811281758E+03 -0.69424939579E+02  0.19776471916E+03  0.37542533704E+03  0.90234280109E+02 0.  0.
         23    2    4    4    0    0  0.63594352711E+03 -0.12264676115E+03  0.42107007798E+03  0.77770140795E+03  0.89738908256E+02 0.  0.
          1    1    3    3  502    0 -0.11555202494E+02 -0.30732172720E+01  0.25135553351E+02  0.27834572232E+02  0.00000000000E+00 0. -1.
         -1    1    3    3    0  502 -0.32627550704E+03  0.19514491800E+03  0.16984106229E+03  0.41639312189E+03  0.00000000000E+00 0.  1.
         13    1    5    5    0    0 -0.19222595316E+03 -0.61066299217E+00  0.13056494753E+03  0.23237554841E+03  0.00000000000E+00 0. -1.
        -13    1    5    5    0    0 -0.10588686441E+03 -0.68814276587E+02  0.67199771637E+02  0.14304978862E+03  0.00000000000E+00 0.  1.
          4    1    6    6  503    0  0.33737435176E+03 -0.10978371947E+03  0.21857364951E+03  0.41671136120E+03  0.00000000000E+00 0. -1.
         -4    1    6    6    0  503  0.29856917535E+03 -0.12863041673E+02  0.20249642848E+03  0.36099004675E+03  0.00000000000E+00 0.  1.
<mgrwt>
<rscale>  0 0.13745007E+04</rscale>
<asrwt>0</asrwt>
<pdfrwt beam="1">  1        2 0.60272541E-01 0.13745007E+04</pdfrwt>
<pdfrwt beam="2">  1       -2 0.18547430E+00 0.13745007E+04</pdfrwt>
<totfact> 0.13186486E+01</totfact>
</mgrwt>
</event>
<event>
12    3  0.4769008E-008  0.1928794E+04  0.7818608E-02  0.8640655E-01
         -1   -1    0    0    0  501 -0.00000000000E+00  0.00000000000E+00  0.13271751878E+04  0.13271751878E+04  0.00000000000E+00 0.  1.
          1   -1    0    0  501    0  0.00000000000E+00 -0.00000000000E+00 -0.70078294933E+03  0.70078294933E+03  0.00000000000E+00 0. -1.
         23    2    1    2    0    0  0.35529177717E+03 -0.41329921723E+02  0.89252964027E+03  0.96595426444E+03  0.92293406442E+02 0.  0.
        254    2    1    2    0    0 -0.35529177717E+03  0.41329921723E+02 -0.26613740180E+03  0.10620038727E+04  0.96388936066E+03 0.  0.
         23    2    4    4    0    0 -0.40388751128E+03  0.42751254817E+03 -0.28998089883E+03  0.66153238591E+03  0.87430402695E+02 0.  0.
         23    2    4    4    0    0  0.48595734107E+02 -0.38618262645E+03  0.23843497026E+02  0.40047148677E+03  0.91161027959E+02 0.  0.
          3    1    3    3  502    0  0.30768974315E+02  0.77994968595E+01  0.32533111093E+02  0.45452890436E+02  0.00000000000E+00 0. -1.
         -3    1    3    3    0  502  0.32452280286E+03 -0.49129418583E+02  0.85999652918E+03  0.92050137401E+03  0.00000000000E+00 0.  1.
         13    1    5    5    0    0 -0.33539434617E+03  0.33261973518E+03 -0.26587127397E+03  0.54204500735E+03  0.00000000000E+00 0. -1.
        -13    1    5    5    0    0 -0.68493165110E+02  0.94892812996E+02 -0.24109624857E+02  0.11948737856E+03  0.00000000000E+00 0.  1.
          3    1    6    6  503    0  0.72332402020E+02 -0.29992956166E+03  0.26678942003E+01  0.30853984507E+03  0.00000000000E+00 0. -1.
         -3    1    6    6    0  503 -0.23736667914E+02 -0.86253064794E+02  0.21175602826E+02  0.91931641697E+02  0.00000000000E+00 0.  1.
<mgrwt>
<rscale>  0 0.19287942E+04</rscale>
<asrwt>0</asrwt>
<pdfrwt beam="1">  1        1 0.10781276E+00 0.19287942E+04</pdfrwt>
<pdfrwt beam="2">  1       -1 0.20418080E+00 0.19287942E+04</pdfrwt>
<totfact> 0.35751115E+00</totfact>
</mgrwt>
</event>
<event>
12    3  0.4769008E-008  0.3157043E+04  0.7818608E-02  0.8200255E-01
          1   -1    0    0  501    0  0.00000000000E+00  0.00000000000E+00  0.13679063889E+04  0.13679063889E+04  0.00000000000E+00 0. -1.
         -1   -1    0    0    0  501 -0.00000000000E+00 -0.00000000000E+00 -0.18215646762E+04  0.18215646762E+04  0.00000000000E+00 0.  1.
         23    2    1    2    0    0  0.40520576037E+03  0.72045366406E+03 -0.14079475721E+04  0.16352192738E+04  0.91545166479E+02 0.  0.
        254    2    1    2    0    0 -0.40520576037E+03 -0.72045366406E+03  0.95428928476E+03  0.15542517912E+04  0.90652380069E+03 0.  0.
         23    2    4    4    0    0 -0.62978747372E+03 -0.26471005306E+03  0.40055766040E+03  0.79724565701E+03  0.91926732060E+02 0.  0.
         23    2    4    4    0    0  0.22458171334E+03 -0.45574361099E+03  0.55373162436E+03  0.75700613422E+03  0.91106478892E+02 0.  0.
          1    1    3    3  502    0  0.14523105733E+03  0.34062491391E+03 -0.58672529666E+03  0.69380398221E+03  0.00000000000E+00 0. -1.
         -1    1    3    3    0  502  0.25997470304E+03  0.37982875014E+03 -0.82122227542E+03  0.94141529162E+03  0.00000000000E+00 0.  1.
         13    1    5    5    0    0 -0.33408832322E+03 -0.18608632821E+03  0.20195988629E+03  0.43247072147E+03  0.00000000000E+00 0. -1.
        -13    1    5    5    0    0 -0.29569915049E+03 -0.78623724855E+02  0.19859777411E+03  0.36477493554E+03  0.00000000000E+00 0.  1.
          1    1    6    6  503    0  0.17970884058E+03 -0.32830969556E+03  0.45772132037E+03  0.59126248884E+03  0.00000000000E+00 0. -1.
         -1    1    6    6    0  503  0.44872872765E+02 -0.12743391543E+03  0.96010303991E+02  0.16574364538E+03  0.00000000000E+00 0.  1.
<mgrwt>
<rscale>  0 0.31570429E+04</rscale>
<asrwt>0</asrwt>
<pdfrwt beam="1">  1        1 0.21044714E+00 0.31570429E+04</pdfrwt>
<pdfrwt beam="2">  1       -1 0.28024072E+00 0.31570429E+04</pdfrwt>
<totfact> 0.30138329E-01</totfact>
</mgrwt>
</event>
<event>
12    3  0.4769008E-008  0.1696964E+04  0.7818608E-02  0.8763098E-01
         -2   -1    0    0    0  501 -0.00000000000E+00  0.00000000000E+00  0.65780121402E+03  0.65780121402E+03  0.00000000000E+00 0. -1.
          2   -1    0    0  501    0  0.00000000000E+00 -0.00000000000E+00 -0.10944369008E+04  0.10944369008E+04  0.00000000000E+00 0.  1.
         23    2    1    2    0    0  0.30442903303E+03 -0.15315754131E+03 -0.67903395913E+03  0.76516161578E+03  0.90834530880E+02 0.  0.
        254    2    1    2    0    0 -0.30442903303E+03  0.15315754131E+03  0.24239827232E+03  0.98707649908E+03  0.89410783690E+03 0.  0.
         23    2    4    4    0    0  0.16181040099E+03 -0.26323181767E+03  0.11910476679E+03  0.34350354345E+03  0.91297005354E+02 0.  0.
         23    2    4    4    0    0 -0.46623943402E+03  0.41638935898E+03  0.12329350553E+03  0.64357295563E+03  0.90694832333E+02 0.  0.
          4    1    3    3  502    0  0.65167952574E+02 -0.36770412147E+02 -0.79150100563E+02  0.10892044653E+03  0.00000000000E+00 0. -1.
         -4    1    3    3    0  502  0.23926108046E+03 -0.11638712916E+03 -0.59988385857E+03  0.65624116926E+03  0.00000000000E+00 0.  1.
         13    1    5    5    0    0  0.20038326292E+02 -0.94909297603E+02  0.89820622703E+01  0.97416562939E+02  0.00000000000E+00 0. -1.
        -13    1    5    5    0    0  0.14177207469E+03 -0.16832252007E+03  0.11012270452E+03  0.24608698051E+03  0.00000000000E+00 0.  1.
          4    1    6    6  503    0 -0.10845424674E+03  0.15083214135E+03  0.45472156064E+02  0.19125996830E+03  0.00000000000E+00 0. -1.
         -4    1    6    6    0  503 -0.35778518728E+03  0.26555721763E+03  0.77821349470E+02  0.45231298733E+03  0.00000000000E+00 0.  1.
<mgrwt>
<rscale>  0 0.16969643E+04</rscale>
<asrwt>0</asrwt>
<pdfrwt beam="1">  1        2 0.16837490E+00 0.16969643E+04</pdfrwt>
<pdfrwt beam="2">  1       -2 0.10120019E+00 0.16969643E+04</pdfrwt>
<totfact> 0.16783725E+01</totfact>
</mgrwt>
</event>
<event>
12    3  0.4769008E-008  0.2378825E+04  0.7818608E-02  0.8447474E-01
         -1   -1    0    0    0  501 -0.00000000000E+00  0.00000000000E+00  0.74871851296E+03  0.74871851296E+03  0.00000000000E+00 0.  1.
          1   -1    0    0  501    0  0.00000000000E+00 -0.00000000000E+00 -0.18894985903E+04  0.18894985903E+04  0.00000000000E+00 0. -1.
         23    2    1    2    0    0  0.57561316503E+03 -0.79673255386E+03 -0.72073932096E+03  0.12222546225E+04  0.91257412288E+02 0.  0.
        254    2    1    2    0    0 -0.57561316503E+03  0.79673255386E+03 -0.42004075635E+03  0.14159624807E+04  0.92865614287E+03 0.  0.
         23    2    4    4    0    0  0.18811287563E+03  0.22583833351E+03 -0.33397317324E+03  0.45421010190E+03  0.91538676826E+02 0.  0.
         23    2    4    4    0    0 -0.76372604066E+03  0.57089422035E+03 -0.86067583111E+02  0.96175237883E+03  0.91445794433E+02 0.  0.
          4    1    3    3  502    0  0.33022866332E+03 -0.42504421893E+03 -0.34292888553E+03  0.63821139026E+03  0.00000000000E+00 0. -1.
         -4    1    3    3    0  502  0.24538450171E+03 -0.37168833493E+03 -0.37781043543E+03  0.58404323224E+03  0.00000000000E+00 0.  1.
         13    1    5    5    0    0  0.69258171359E+02  0.10782050141E+03 -0.83702804722E+02  0.15306245242E+03  0.00000000000E+00 0.  1.
        -13    1    5    5    0    0  0.11885470427E+03  0.11801783211E+03 -0.25027036852E+03  0.30114764947E+03  0.00000000000E+00 0. -1.
          3    1    6    6  503    0 -0.76479301596E+03  0.57058259857E+03 -0.89278425537E+02  0.95835457756E+03  0.00000000000E+00 0. -1.
         -3    1    6    6    0  503  0.10669753018E+01  0.31162177386E+00  0.32108424256E+01  0.33978012753E+01  0.00000000000E+00 0.  1.
<mgrwt>
<rscale>  0 0.23788254E+04</rscale>
<asrwt>0</asrwt>
<pdfrwt beam="1">  1        1 0.29069209E+00 0.23788254E+04</pdfrwt>
<pdfrwt beam="2">  1       -1 0.11518746E+00 0.23788254E+04</pdfrwt>
<totfact> 0.21736906E+00</totfact>
</mgrwt>
</event>
<event>
12    3  0.4769008E-008  0.1601737E+04  0.7818608E-02  0.8819482E-01
         -1   -1    0    0    0  501 -0.00000000000E+00  0.00000000000E+00  0.77468886138E+03  0.77468886138E+03  0.00000000000E+00 0.  1.
          1   -1    0    0  501    0  0.00000000000E+00 -0.00000000000E+00 -0.82793279971E+03  0.82793279971E+03  0.00000000000E+00 0. -1.
         23    2    1    2    0    0  0.79459606347E+01  0.44753933346E+03 -0.34179055867E+03  0.57032480049E+03  0.89972211103E+02 0.  0.
        254    2    1    2    0    0 -0.79459606347E+01 -0.44753933346E+03  0.28854662034E+03  0.10322968606E+04  0.88432067884E+03 0.  0.
         23    2    4    4    0    0 -0.28314188153E+03 -0.39546816723E+03 -0.13688607679E+03  0.51480038195E+03  0.98576056234E+02 0.  0.
         23    2    4    4    0    0  0.27519592090E+03 -0.52071166229E+02  0.42543269713E+03  0.51749647866E+03  0.91462694061E+02 0.  0.
          3    1    3    3  502    0  0.25014607676E+02  0.10829092190E+03 -0.47396965594E+02  0.12082684599E+03  0.00000000000E+00 0. -1.
         -3    1    3    3    0  502 -0.17068647041E+02  0.33924841156E+03 -0.29439359307E+03  0.44949795450E+03  0.00000000000E+00 0.  1.
         13    1    5    5    0    0 -0.20917321163E+02 -0.62624384413E+01  0.85987947159E+01  0.23466821908E+02  0.00000000000E+00 0. -1.
        -13    1    5    5    0    0 -0.26222456037E+03 -0.38920572879E+03 -0.14548487150E+03  0.49133356004E+03  0.00000000000E+00 0.  1.
          3    1    6    6  503    0  0.35222096122E+02 -0.14599640566E+02  0.12765218246E+03  0.13322471710E+03  0.00000000000E+00 0. -1.
         -3    1    6    6    0  503  0.23997382478E+03 -0.37471525663E+02  0.29778051467E+03  0.38427176156E+03  0.00000000000E+00 0.  1.
<mgrwt>
<rscale>  0 0.16017370E+04</rscale>
<asrwt>0</asrwt>
<pdfrwt beam="1">  1        1 0.12737428E+00 0.16017370E+04</pdfrwt>
<pdfrwt beam="2">  1       -1 0.11918290E+00 0.16017370E+04</pdfrwt>
<totfact> 0.12634133E+01</totfact>
</mgrwt>
</event>
<event>
12    3  0.4769008E-008  0.1574863E+04  0.7818608E-02  0.8836141E-01
          2   -1    0    0  501    0  0.00000000000E+00  0.00000000000E+00  0.17166011625E+04  0.17166011625E+04  0.00000000000E+00 0. -1.
         -2   -1    0    0    0  501 -0.00000000000E+00 -0.00000000000E+00 -0.36120707278E+03  0.36120707278E+03  0.00000000000E+00 0.  1.
         23    2    1    2    0    0  0.42807638634E+03 -0.18610999794E+03  0.70910108258E+03  0.85381000233E+03  0.90999180670E+02 0.  0.
        254    2    1    2    0    0 -0.42807638634E+03  0.18610999794E+03  0.64629300715E+03  0.12239982330E+04  0.92875761064E+03 0.  0.
         23    2    4    4    0    0  0.19840221622E+02  0.25278666506E+03  0.70912595755E+03  0.75838549109E+03  0.89410273435E+02 0.  0.
         23    2    4    4    0    0 -0.44791660796E+03 -0.66676667125E+02 -0.62832950400E+02  0.46561274187E+03  0.88159968826E+02 0.  0.
          2    1    3    3  502    0  0.30332888081E+03 -0.10948631930E+03  0.41771523935E+03  0.52771363942E+03  0.00000000000E+00 0. -1.
         -2    1    3    3    0  502  0.12474750553E+03 -0.76623678640E+02  0.29138584324E+03  0.32609636291E+03  0.00000000000E+00 0.  1.
         13    1    5    5    0    0 -0.57488422155E+01  0.23916383650E+03  0.64750096805E+03  0.69028247370E+03  0.00000000000E+00 0. -1.
        -13    1    5    5    0    0  0.25589063837E+02  0.13622828558E+02  0.61624989502E+02  0.68103017386E+02  0.00000000000E+00 0.  1.
          3    1    6    6  503    0 -0.27688473514E+03  0.21390310063E+01 -0.42552312407E+02  0.28014359050E+03  0.00000000000E+00 0. -1.
         -3    1    6    6    0  503 -0.17103187282E+03 -0.68815698132E+02 -0.20280637994E+02  0.18546915136E+03  0.00000000000E+00 0.  1.
<mgrwt>
<rscale>  0 0.15748631E+04</rscale>
<asrwt>0</asrwt>
<pdfrwt beam="1">  1        2 0.26409248E+00 0.15748631E+04</pdfrwt>
<pdfrwt beam="2">  1       -2 0.55570320E-01 0.15748631E+04</pdfrwt>
<totfact> 0.28063638E+01</totfact>
</mgrwt>
</event>
<event>
12    3  0.4769008E-008  0.2042793E+04  0.7818608E-02  0.8586871E-01
          2   -1    0    0  501    0  0.00000000000E+00  0.00000000000E+00  0.66006017042E+03  0.66006017042E+03  0.00000000000E+00 0. -1.
         -2   -1    0    0    0  501 -0.00000000000E+00 -0.00000000000E+00 -0.15805392945E+04  0.15805392945E+04  0.00000000000E+00 0.  1.
         23    2    1    2    0    0 -0.61383910093E+02 -0.80197758459E+02  0.53868114166E+03  0.55582727161E+03  0.92557650209E+02 0.  0.
        254    2    1    2    0    0  0.61383910093E+02  0.80197758459E+02 -0.14591602657E+04  0.16847721933E+04  0.83612738106E+03 0.  0.
         23    2    4    4    0    0 -0.22940917421E+03 -0.26312143333E+03 -0.45882089413E+03  0.58407784794E+03  0.93642200260E+02 0.  0.
         23    2    4    4    0    0  0.29079308430E+03  0.34331919179E+03 -0.10003393716E+04  0.11006943453E+04  0.91763272698E+02 0.  0.
          2    1    3    3  502    0  0.27456449711E+01 -0.23605047712E+02  0.22898337586E+02  0.33001071315E+02  0.00000000000E+00 0.  1.
         -2    1    3    3    0  502 -0.64129555064E+02 -0.56592710748E+02  0.51578280407E+03  0.52282620030E+03  0.00000000000E+00 0. -1.
         13    1    5    5    0    0 -0.21632403423E+03 -0.26578356059E+03 -0.41465016718E+03  0.53793284898E+03  0.00000000000E+00 0.  1.
        -13    1    5    5    0    0 -0.13085139985E+02  0.26621272571E+01 -0.44170726950E+02  0.46144998962E+02  0.00000000000E+00 0. -1.
          2    1    6    6  503    0  0.10492298547E+03  0.11038373042E+03 -0.24235276541E+03  0.28623113689E+03  0.00000000000E+00 0. -1.
         -2    1    6    6    0  503  0.18587009883E+03  0.23293546137E+03 -0.75798660616E+03  0.81446320845E+03  0.00000000000E+00 0.  1.
<mgrwt>
<rscale>  0 0.20427932E+04</rscale>
<asrwt>0</asrwt>
<pdfrwt beam="1">  1        2 0.10154772E+00 0.20427932E+04</pdfrwt>
<pdfrwt beam="2">  1       -2 0.24315989E+00 0.20427932E+04</pdfrwt>
<totfact> 0.28913409E+00</totfact>
</mgrwt>
</event>
<event>
12    3  0.4769008E-008  0.2560999E+04  0.7818608E-02  0.8381571E-01
         -2   -1    0    0    0  501 -0.00000000000E+00  0.00000000000E+00  0.75064390355E+03  0.75064390355E+03  0.00000000000E+00 0.  1.
          2   -1    0    0  501    0  0.00000000000E+00 -0.00000000000E+00 -0.21843638650E+04  0.21843638650E+04  0.00000000000E+00 0. -1.
         23    2    1    2    0    0  0.99001072857E+02  0.86426582570E+03 -0.14495746610E+04  0.16928734696E+04  0.88302074161E+02 0.  0.
        254    2    1    2    0    0 -0.99001072857E+02 -0.86426582570E+03  0.15854699562E+02  0.12421342990E+04  0.88650415410E+03 0.  0.
         23    2    4    4    0    0  0.19428152081E+03 -0.89584292153E+03  0.86951986417E+02  0.92535476145E+03  0.91874573281E+02 0.  0.
         23    2    4    4    0    0 -0.29328259366E+03  0.31577095829E+02 -0.71097286854E+02  0.31677953751E+03  0.91009111950E+02 0.  0.
          1    1    3    3  502    0  0.35437533400E+02  0.12166981450E+03 -0.25725173411E+03  0.28677136753E+03  0.00000000000E+00 0. -1.
         -1    1    3    3    0  502  0.63563539457E+02  0.74259601120E+03 -0.11923229269E+04  0.14061021020E+04  0.00000000000E+00 0.  1.
         13    1    5    5    0    0  0.14590317957E+03 -0.71116968365E+03  0.10526319828E+03  0.73357371658E+03  0.00000000000E+00 0. -1.
        -13    1    5    5    0    0  0.48378341240E+02 -0.18467323788E+03 -0.18311211865E+02  0.19178104486E+03  0.00000000000E+00 0.  1.
          2    1    6    6  503    0 -0.10968314387E+03  0.42560719359E+02 -0.61123460189E+02  0.13258161361E+03  0.00000000000E+00 0. -1.
         -2    1    6    6    0  503 -0.18359944979E+03 -0.10983623530E+02 -0.99738266658E+01  0.18419792389E+03  0.00000000000E+00 0.  1.
<mgrwt>
<rscale>  0 0.25609994E+04</rscale>
<asrwt>0</asrwt>
<pdfrwt beam="1">  1        2 0.33605597E+00 0.25609994E+04</pdfrwt>
<pdfrwt beam="2">  1       -2 0.11548368E+00 0.25609994E+04</pdfrwt>
<totfact> 0.27289052E+00</totfact>
</mgrwt>
</event>
<event>
12    3  0.4769008E-008  0.2330117E+04  0.7818608E-02  0.8466140E-01
         -1   -1    0    0    0  501 -0.00000000000E+00  0.00000000000E+00  0.53590668617E+03  0.53590668617E+03  0.00000000000E+00 0.  1.
          1   -1    0    0  501    0  0.00000000000E+00 -0.00000000000E+00 -0.25328307856E+04  0.25328307856E+04  0.00000000000E+00 0. -1.
         23    2    1    2    0    0 -0.35687889990E+03 -0.70563297794E+03 -0.16078993884E+04  0.17938916341E+04  0.86175998110E+02 0.  0.
        254    2    1    2    0    0  0.35687889990E+03  0.70563297794E+03 -0.38902471100E+03  0.12748458377E+04  0.92120097450E+03 0.  0.
         23    2    4    4    0    0  0.59874576541E+03  0.27239546150E+03 -0.48468932016E+02  0.66616060267E+03  0.93407345189E+02 0.  0.
         23    2    4    4    0    0 -0.24186686551E+03  0.43323751644E+03 -0.34055577898E+03  0.60868523505E+03  0.91242262597E+02 0.  0.
          1    1    3    3  502    0 -0.21422069716E+03 -0.33187787892E+03 -0.77177072509E+03  0.86698528576E+03  0.00000000000E+00 0. -1.
         -1    1    3    3    0  502 -0.14265820274E+03 -0.37375509902E+03 -0.83612866335E+03  0.92690634831E+03  0.00000000000E+00 0.  1.
         13    1    5    5    0    0  0.59808387110E+03  0.26083306001E+03 -0.44844631309E+02  0.65402541466E+03  0.00000000000E+00 0.  1.
        -13    1    5    5    0    0  0.66189430849E+00  0.11562401495E+02 -0.36243007067E+01  0.12135188009E+02  0.00000000000E+00 0. -1.
          3    1    6    6  503    0 -0.25307781161E+02  0.14276422916E+02 -0.39984774336E+02  0.49427545127E+02  0.00000000000E+00 0. -1.
         -3    1    6    6    0  503 -0.21655908435E+03  0.41896109352E+03 -0.30057100465E+03  0.55925768992E+03  0.00000000000E+00 0.  1.
<mgrwt>
<rscale>  0 0.23301167E+04</rscale>
<asrwt>0</asrwt>
<pdfrwt beam="1">  1        1 0.38966627E+00 0.23301167E+04</pdfrwt>
<pdfrwt beam="2">  1       -1 0.82447183E-01 0.23301167E+04</pdfrwt>
<totfact> 0.16944329E+00</totfact>
</mgrwt>
</event>
<event>
12    3  0.4769008E-008  0.3245602E+04  0.7818608E-02  0.8176877E-01
          2   -1    0    0  501    0  0.00000000000E+00  0.00000000000E+00  0.26754989390E+04  0.26754989390E+04  0.00000000000E+00 0.  1.
         -2   -1    0    0    0  501 -0.00000000000E+00 -0.00000000000E+00 -0.98429578372E+03  0.98429578372E+03  0.00000000000E+00 0. -1.
         23    2    1    2    0    0  0.80434212691E+03 -0.11016522706E+04  0.86819689929E+02  0.13698164989E+04  0.90860330935E+02 0.  0.
        254    2    1    2    0    0 -0.80434212691E+03  0.11016522706E+04  0.16043834653E+04  0.22899782238E+04  0.89963880485E+03 0.  0.
         23    2    4    4    0    0 -0.88235175569E+03  0.99654934709E+03  0.10079035172E+04  0.16726732293E+04  0.10154314349E+03 0.  0.
         23    2    4    4    0    0  0.78009628773E+02  0.10510292348E+03  0.59647994812E+03  0.61730499451E+03  0.90249659420E+02 0.  0.
          3    1    3    3  502    0  0.55863559250E+03 -0.80982768599E+03  0.93681131797E+02  0.98826654332E+03  0.00000000000E+00 0. -1.
         -3    1    3    3    0  502  0.24570653442E+03 -0.29182458458E+03 -0.68614418674E+01  0.38154995559E+03  0.00000000000E+00 0.  1.
         13    1    5    5    0    0 -0.70142158472E+03  0.72867127477E+03  0.77715164280E+03  0.12755072489E+04  0.00000000000E+00 0. -1.
        -13    1    5    5    0    0 -0.18093017096E+03  0.26787807231E+03  0.23075187441E+03  0.39716598033E+03  0.00000000000E+00 0.  1.
          3    1    6    6  503    0  0.48433175064E+02  0.88358199941E+02  0.55306417564E+03  0.56216805878E+03  0.00000000000E+00 0. -1.
         -3    1    6    6    0  503  0.29576453709E+02  0.16744723540E+02  0.43415772486E+02  0.55136935724E+02  0.00000000000E+00 0.  1.
<mgrwt>
<rscale>  0 0.32456015E+04</rscale>
<asrwt>0</asrwt>
<pdfrwt beam="1">  1        2 0.41161522E+00 0.32456015E+04</pdfrwt>
<pdfrwt beam="2">  1       -2 0.15143012E+00 0.32456015E+04</pdfrwt>
<totfact> 0.67283428E-01</totfact>
</mgrwt>
</event>
<event>
12    3  0.4769008E-008  0.1838992E+04  0.7818608E-02  0.8685834E-01
          2   -1    0    0  501    0  0.00000000000E+00  0.00000000000E+00  0.13411587642E+04  0.13411587642E+04  0.00000000000E+00 0.  1.
         -2   -1    0    0    0  501 -0.00000000000E+00 -0.00000000000E+00 -0.63040512154E+03  0.63040512154E+03  0.00000000000E+00 0. -1.
         23    2    1    2    0    0  0.29050920690E+03  0.22389838249E+03 -0.36361659675E+03  0.52442403624E+03  0.90980521973E+02 0.  0.
        254    2    1    2    0    0 -0.29050920690E+03 -0.22389838249E+03  0.10743702394E+04  0.14471398495E+04  0.89744985803E+03 0.  0.
         23    2    4    4    0    0 -0.10118661898E+02 -0.36061405249E+03  0.53837616729E+02  0.37627103023E+03  0.92393273835E+02 0.  0.
         23    2    4    4    0    0 -0.28039054500E+03  0.13671567000E+03  0.10205326226E+04  0.10708688192E+04  0.89236550623E+02 0.  0.
          3    1    3    3  502    0  0.27559104010E+03  0.21721257078E+03 -0.36696674117E+03  0.50773645862E+03  0.00000000000E+00 0. -1.
         -3    1    3    3    0  502  0.14918166801E+02  0.66858117051E+01  0.33501444273E+01  0.16687577612E+02  0.00000000000E+00 0.  1.
         13    1    5    5    0    0  0.52010218170E+01 -0.94832187246E+02  0.55579826426E+02  0.11004231673E+03  0.00000000000E+00 0.  1.
        -13    1    5    5    0    0 -0.15319683715E+02 -0.26578186524E+03 -0.17422096974E+01  0.26622871350E+03  0.00000000000E+00 0. -1.
          2    1    6    6  503    0 -0.12426693388E+03  0.99866910062E+02  0.59878612694E+03  0.61964546024E+03  0.00000000000E+00 0. -1.
         -2    1    6    6    0  503 -0.15612361112E+03  0.36848759936E+02  0.42174649570E+03  0.45122335899E+03  0.00000000000E+00 0.  1.
<mgrwt>
<rscale>  0 0.18389925E+04</rscale>
<asrwt>0</asrwt>
<pdfrwt beam="1">  1        2 0.20633212E+00 0.18389925E+04</pdfrwt>
<pdfrwt beam="2">  1       -2 0.96985404E-01 0.18389925E+04</pdfrwt>
<totfact> 0.13075075E+01</totfact>
</mgrwt>
</event>
<event>
12    3  0.4769008E-008  0.1804999E+04  0.7818608E-02  0.8703646E-01
          2   -1    0    0  501    0  0.00000000000E+00  0.00000000000E+00  0.20539122756E+04  0.20539122756E+04  0.00000000000E+00 0. -1.
         -2   -1    0    0    0  501 -0.00000000000E+00 -0.00000000000E+00 -0.39656267262E+03  0.39656267262E+03  0.00000000000E+00 0.  1.
         23    2    1    2    0    0 -0.26441063016E+03  0.58535704178E+03  0.87713167472E+03  0.10910516221E+04  0.92075075926E+02 0.  0.
        254    2    1    2    0    0  0.26441063016E+03 -0.58535704178E+03  0.78021792824E+03  0.13594233261E+04  0.90925019453E+03 0.  0.
         23    2    4    4    0    0  0.42180145199E+03  0.40716193364E+02  0.46246606556E+03  0.63387197034E+03  0.91348452028E+02 0.  0.
         23    2    4    4    0    0 -0.15739082183E+03 -0.62607323514E+03  0.31775186268E+03  0.72555135575E+03  0.93375355600E+02 0.  0.
          3    1    3    3  502    0 -0.41695868821E+02  0.11558644511E+03  0.11370846942E+03  0.16741680855E+03  0.00000000000E+00 0.  1.
         -3    1    3    3    0  502 -0.22271476134E+03  0.46977059667E+03  0.76342320530E+03  0.92363481355E+03  0.00000000000E+00 0. -1.
         13    1    5    5    0    0  0.45596461934E+02 -0.15967414773E+02  0.86014109452E+02  0.98653042022E+02  0.00000000000E+00 0. -1.
        -13    1    5    5    0    0  0.37620499005E+03  0.56683608137E+02  0.37645195611E+03  0.53521892832E+03  0.00000000000E+00 0.  1.
          4    1    6    6  503    0 -0.99258229390E+02 -0.22381987324E+03  0.13900939371E+03  0.28155131557E+03  0.00000000000E+00 0. -1.
         -4    1    6    6    0  503 -0.58132592437E+02 -0.40225336190E+03  0.17874246897E+03  0.44400004018E+03  0.00000000000E+00 0.  1.
<mgrwt>
<rscale>  0 0.18049985E+04</rscale>
<asrwt>0</asrwt>
<pdfrwt beam="1">  1        2 0.31598650E+00 0.18049985E+04</pdfrwt>
<pdfrwt beam="2">  1       -2 0.61009643E-01 0.18049985E+04</pdfrwt>
<totfact> 0.14709120E+01</totfact>
</mgrwt>
</event>
<event>
12    3  0.4769008E-008  0.1958777E+04  0.7818608E-02  0.8626140E-01
         -2   -1    0    0    0  501 -0.00000000000E+00  0.00000000000E+00  0.64790224375E+03  0.64790224375E+03  0.00000000000E+00 0.  1.
          2   -1    0    0  501    0  0.00000000000E+00 -0.00000000000E+00 -0.14804723694E+04  0.14804723694E+04  0.00000000000E+00 0. -1.
         23    2    1    2    0    0  0.27916090620E+03 -0.69160893968E+03 -0.54550407816E+03  0.92822260737E+03  0.88140640618E+02 0.  0.
        254    2    1    2    0    0 -0.27916090620E+03  0.69160893968E+03 -0.28706604750E+03  0.12001520058E+04  0.89537935223E+03 0.  0.
         23    2    4    4    0    0  0.31283115808E+03  0.22224657696E+03 -0.28024583272E+02  0.39632582750E+03  0.95036360644E+02 0.  0.
         23    2    4    4    0    0 -0.59199206428E+03  0.46936236273E+03 -0.25904146423E+03  0.80382617830E+03  0.90985784744E+02 0.  0.
          2    1    3    3  502    0  0.68472201506E+02 -0.21132890587E+03 -0.20957084748E+03  0.30539857391E+03  0.00000000000E+00 0. -1.
         -2    1    3    3    0  502  0.21068870470E+03 -0.48028003382E+03 -0.33593323068E+03  0.62282403345E+03  0.00000000000E+00 0.  1.
         13    1    5    5    0    0  0.23388983925E+02  0.36401299130E+02  0.22329427353E+02  0.48689860067E+02  0.00000000000E+00 0.  1.
        -13    1    5    5    0    0  0.28944217415E+03  0.18584527783E+03 -0.50354010625E+02  0.34763596743E+03  0.00000000000E+00 0. -1.
          3    1    6    6  503    0 -0.58896215487E+03  0.47340221014E+03 -0.25895238432E+03  0.79877556909E+03  0.00000000000E+00 0. -1.
         -3    1    6    6    0  503 -0.30299094067E+01 -0.40398474158E+01 -0.89079908808E-01  0.50506092094E+01  0.00000000000E+00 0.  1.
<mgrwt>
<rscale>  0 0.19587765E+04</rscale>
<asrwt>0</asrwt>
<pdfrwt beam="1">  1        2 0.22776498E+00 0.19587765E+04</pdfrwt>
<pdfrwt beam="2">  1       -2 0.99677269E-01 0.19587765E+04</pdfrwt>
<totfact> 0.10104003E+01</totfact>
</mgrwt>
</event>
<event>
12    3  0.4769008E-008  0.2648266E+04  0.7818608E-02  0.8351989E-01
          1   -1    0    0  501    0  0.00000000000E+00  0.00000000000E+00  0.23883913648E+04  0.23883913648E+04  0.00000000000E+00 0. -1.
         -1   -1    0    0    0  501 -0.00000000000E+00 -0.00000000000E+00 -0.73410416940E+03  0.73410416940E+03  0.00000000000E+00 0.  1.
         23    2    1    2    0    0 -0.77671889624E+03  0.27264184525E+03  0.17126451358E+04  0.19024485742E+04  0.92365559055E+02 0.  0.
        254    2    1    2    0    0  0.77671889624E+03 -0.27264184525E+03 -0.58357940428E+02  0.12200469600E+04  0.89860064319E+03 0.  0.
         23    2    4    4    0    0  0.56254658659E+03  0.12680554796E+02 -0.41692542294E+03  0.70628382688E+03  0.91600094224E+02 0.  0.
         23    2    4    4    0    0  0.21417230965E+03 -0.28532240004E+03  0.35856748251E+03  0.51376313317E+03  0.90018149847E+02 0.  0.
          4    1    3    3  502    0 -0.75293305736E+03  0.25240423586E+03  0.16736401396E+04  0.18524814180E+04  0.00000000000E+00 0. -1.
         -4    1    3    3    0  502 -0.23785838881E+02  0.20237609382E+02  0.39004996259E+02  0.49967156192E+02  0.00000000000E+00 0.  1.
         13    1    5    5    0    0  0.27073866782E+03 -0.16244832336E+02 -0.15101005738E+03  0.31043092349E+03  0.00000000000E+00 0.  1.
        -13    1    5    5    0    0  0.29180791877E+03  0.28925387132E+02 -0.26591536556E+03  0.39585290339E+03  0.00000000000E+00 0. -1.
          3    1    6    6  503    0  0.89995527129E+02 -0.61226620357E+02  0.78584913453E+02  0.13425156448E+03  0.00000000000E+00 0. -1.
         -3    1    6    6    0  503  0.12417678252E+03 -0.22409577968E+03  0.27998256906E+03  0.37951156868E+03  0.00000000000E+00 0.  1.
<mgrwt>
<rscale>  0 0.26482659E+04</rscale>
<asrwt>0</asrwt>
<pdfrwt beam="1">  1        1 0.36744482E+00 0.26482659E+04</pdfrwt>
<pdfrwt beam="2">  1       -1 0.11293910E+00 0.26482659E+04</pdfrwt>
<totfact> 0.10169564E+00</totfact>
</mgrwt>
</event>
<event>
12    3  0.4769008E-008  0.1230876E+04  0.7818608E-02  0.9086252E-01
          2   -1    0    0  501    0  0.00000000000E+00  0.00000000000E+00  0.16064455248E+04  0.16064455248E+04  0.00000000000E+00 0. -1.
         -2   -1    0    0    0  501 -0.00000000000E+00 -0.00000000000E+00 -0.23577763880E+03  0.23577763880E+03  0.00000000000E+00 0.  1.
         23    2    1    2    0    0 -0.27703764579E+03  0.13612108867E+02  0.35417730115E+03  0.45768828308E+03  0.84272517027E+02 0.  0.
        254    2    1    2    0    0  0.27703764579E+03 -0.13612108867E+02  0.10164905849E+04  0.13845348806E+04  0.89819183898E+03 0.  0.
         23    2    4    4    0    0  0.51449308838E+03 -0.86267808303E+02  0.27482962527E+03  0.59675263090E+03  0.91853725180E+02 0.  0.
         23    2    4    4    0    0 -0.23745544259E+03  0.72655699436E+02  0.74166095963E+03  0.78778224965E+03  0.94212291967E+02 0.  0.
          3    1    3    3  502    0 -0.25401235100E+03  0.27977680957E+02  0.34437173056E+03  0.42883203460E+03  0.00000000000E+00 0. -1.
         -3    1    3    3    0  502 -0.23025294790E+02 -0.14365572090E+02  0.98055705911E+01  0.28856248478E+02  0.00000000000E+00 0.  1.
         13    1    5    5    0    0  0.15957478267E+02  0.91898313658E+01  0.24890056421E+02  0.30961411819E+02  0.00000000000E+00 0. -1.
        -13    1    5    5    0    0  0.49853561011E+03 -0.95457639669E+02  0.24993956884E+03  0.56579121908E+03  0.00000000000E+00 0.  1.
          1    1    6    6  503    0 -0.17646242703E+02  0.77284613055E+01  0.18187216878E+03  0.18288959722E+03  0.00000000000E+00 0. -1.
         -1    1    6    6    0  503 -0.21980919989E+03  0.64927238130E+02  0.55978879085E+03  0.60489265243E+03  0.00000000000E+00 0.  1.
<mgrwt>
<rscale>  0 0.12308760E+04</rscale>
<asrwt>0</asrwt>
<pdfrwt beam="1">  1        2 0.24714546E+00 0.12308760E+04</pdfrwt>
<pdfrwt beam="2">  1       -2 0.36273484E-01 0.12308760E+04</pdfrwt>
<totfact> 0.77867245E+01</totfact>
</mgrwt>
</event>
<event>
12    3  0.4769008E-008  0.1399627E+04  0.7818608E-02  0.8954089E-01
         -1   -1    0    0    0  501 -0.00000000000E+00  0.00000000000E+00  0.72527555460E+03  0.72527555460E+03  0.00000000000E+00 0.  1.
          1   -1    0    0  501    0  0.00000000000E+00 -0.00000000000E+00 -0.67524489364E+03  0.67524489364E+03  0.00000000000E+00 0. -1.
         23    2    1    2    0    0  0.27186126246E+03  0.23345522279E+03 -0.15101212146E+03  0.39878339922E+03  0.88394861819E+02 0.  0.
        254    2    1    2    0    0 -0.27186126246E+03 -0.23345522279E+03  0.20104278241E+03  0.10017370490E+04  0.91359128058E+03 0.  0.
         23    2    4    4    0    0 -0.10670939014E+03  0.21868558481E+03  0.39645442826E+03  0.47420925523E+03  0.92130478723E+02 0.  0.
         23    2    4    4    0    0 -0.16515187232E+03 -0.45214080760E+03 -0.19541164585E+03  0.52752779379E+03  0.91615561256E+02 0.  0.
          2    1    3    3  502    0  0.55587536406E+02  0.20466468106E+02 -0.53889636459E+02  0.80080855628E+02  0.00000000000E+00 0. -1.
         -2    1    3    3    0  502  0.21627372605E+03  0.21298875468E+03 -0.97122484997E+02  0.31870254359E+03  0.00000000000E+00 0.  1.
         13    1    5    5    0    0 -0.36456809968E+02  0.12045998196E+03  0.12634678059E+03  0.17833455978E+03  0.00000000000E+00 0. -1.
        -13    1    5    5    0    0 -0.70252580174E+02  0.98225602848E+02  0.27010764767E+03  0.29587469544E+03  0.00000000000E+00 0.  1.
          3    1    6    6  503    0 -0.39403934919E+02 -0.88610645334E+02 -0.80589060726E+02  0.12609168594E+03  0.00000000000E+00 0. -1.
         -3    1    6    6    0  503 -0.12574793740E+03 -0.36353016226E+03 -0.11482258512E+03  0.40143610785E+03  0.00000000000E+00 0.  1.
<mgrwt>
<rscale>  0 0.13996265E+04</rscale>
<asrwt>0</asrwt>
<pdfrwt beam="1">  1        1 0.10388383E+00 0.13996265E+04</pdfrwt>
<pdfrwt beam="2">  1       -1 0.11158085E+00 0.13996265E+04</pdfrwt>
<totfact> 0.20705580E+01</totfact>
</mgrwt>
</event>
<event>
12    3  0.4769008E-008  0.1657470E+04  0.7818608E-02  0.8786000E-01
          2   -1    0    0  501    0  0.00000000000E+00  0.00000000000E+00  0.14711708571E+04  0.14711708571E+04  0.00000000000E+00 0. -1.
         -2   -1    0    0    0  501 -0.00000000000E+00 -0.00000000000E+00 -0.46684020071E+03  0.46684020071E+03  0.00000000000E+00 0.  1.
         23    2    1    2    0    0  0.11871239147E+03  0.13932775144E+03 -0.28934400170E+03  0.35397013107E+03  0.89833446775E+02 0.  0.
        254    2    1    2    0    0 -0.11871239147E+03 -0.13932775144E+03  0.12936746581E+04  0.15840409267E+04  0.89559292224E+03 0.  0.
         23    2    4    4    0    0 -0.39983910850E+03  0.14059719721E+03  0.97401857366E+03  0.10662693410E+04  0.92624192856E+02 0.  0.
         23    2    4    4    0    0  0.28112671703E+03 -0.27992494864E+03  0.31965608444E+03  0.51777158577E+03  0.92288649435E+02 0.  0.
          3    1    3    3  502    0  0.67444791993E+01  0.42869865296E+02 -0.22376150201E+02  0.48826278252E+02  0.00000000000E+00 0. -1.
         -3    1    3    3    0  502  0.11196791227E+03  0.96457886140E+02 -0.26696785150E+03  0.30514385282E+03  0.00000000000E+00 0.  1.
         13    1    5    5    0    0 -0.32557637339E+03  0.10675765497E+03  0.68445419014E+03  0.76542452940E+03  0.00000000000E+00 0.  1.
        -13    1    5    5    0    0 -0.74262735113E+02  0.33839542241E+02  0.28956438352E+03  0.30084481157E+03  0.00000000000E+00 0. -1.
          2    1    6    6  503    0  0.20103985960E+03 -0.19570375777E+03  0.16913085902E+03  0.32760072256E+03  0.00000000000E+00 0. -1.
         -2    1    6    6    0  503  0.80086857428E+02 -0.84221190878E+02  0.15052522542E+03  0.19017086321E+03  0.00000000000E+00 0.  1.
<mgrwt>
<rscale>  0 0.16574700E+04</rscale>
<asrwt>0</asrwt>
<pdfrwt beam="1">  1        2 0.22633398E+00 0.16574700E+04</pdfrwt>
<pdfrwt beam="2">  1       -2 0.71821570E-01 0.16574700E+04</pdfrwt>
<totfact> 0.22108680E+01</totfact>
</mgrwt>
</event>
<event>
12    3  0.4769008E-008  0.2804039E+04  0.7818608E-02  0.8302016E-01
         -2   -1    0    0    0  501 -0.00000000000E+00  0.00000000000E+00  0.90629808894E+03  0.90629808894E+03  0.00000000000E+00 0.  1.
          2   -1    0    0  501    0  0.00000000000E+00 -0.00000000000E+00 -0.21688872056E+04  0.21688872056E+04  0.00000000000E+00 0. -1.
         23    2    1    2    0    0 -0.59341579841E+03  0.51474098676E+03  0.50957637791E+03  0.94067876471E+03  0.90043657265E+02 0.  0.
        254    2    1    2    0    0  0.59341579841E+03 -0.51474098676E+03 -0.17721654945E+04  0.21345065298E+04  0.89355861162E+03 0.  0.
         23    2    4    4    0    0  0.18874357146E+03 -0.31080875400E+03 -0.15962846214E+04  0.16396882005E+04  0.90700523945E+02 0.  0.
         23    2    4    4    0    0  0.40467222694E+03 -0.20393223276E+03 -0.17588087314E+03  0.49481832928E+03  0.92537185149E+02 0.  0.
          4    1    3    3  502    0 -0.23660054867E+03  0.15402014707E+03  0.20506698847E+03  0.34893336770E+03  0.00000000000E+00 0. -1.
         -4    1    3    3    0  502 -0.35681524973E+03  0.36072083969E+03  0.30450938944E+03  0.59174539701E+03  0.00000000000E+00 0.  1.
         13    1    5    5    0    0  0.95830053621E+02 -0.87186263429E+02 -0.46061903892E+03  0.47849215534E+03  0.00000000000E+00 0.  1.
        -13    1    5    5    0    0  0.92913517844E+02 -0.22362249057E+03 -0.11356655825E+04  0.11611960452E+04  0.00000000000E+00 0. -1.
          4    1    6    6  503    0  0.11980084489E+03 -0.57859641662E+02 -0.98288849790E+02  0.16541063619E+03  0.00000000000E+00 0. -1.
         -4    1    6    6    0  503  0.28487138205E+03 -0.14607259110E+03 -0.77592023353E+02  0.32940769309E+03  0.00000000000E+00 0.  1.
<mgrwt>
<rscale>  0 0.28040388E+04</rscale>
<asrwt>0</asrwt>
<pdfrwt beam="1">  1        2 0.33367495E+00 0.28040388E+04</pdfrwt>
<pdfrwt beam="2">  1       -2 0.13943048E+00 0.28040388E+04</pdfrwt>
<totfact> 0.16974599E+00</totfact>
</mgrwt>
</event>
<event>
12    3  0.4769008E-008  0.1775217E+04  0.7818608E-02  0.8719591E-01
         -2   -1    0    0    0  501 -0.00000000000E+00  0.00000000000E+00  0.58228583982E+03  0.58228583982E+03  0.00000000000E+00 0.  1.
          2   -1    0    0  501    0  0.00000000000E+00 -0.00000000000E+00 -0.13530276119E+04  0.13530276119E+04  0.00000000000E+00 0. -1.
         23    2    1    2    0    0  0.11828629119E+02 -0.47758077328E+03 -0.77763769214E+03  0.91681392230E+03  0.87201355647E+02 0.  0.
        254    2    1    2    0    0 -0.11828629119E+02  0.47758077328E+03  0.68959200422E+01  0.10184995294E+04  0.89948342189E+03 0.  0.
         23    2    4    4    0    0  0.71594892496E+02  0.60381258483E+03 -0.28428338197E+03  0.67722955278E+03  0.90040877757E+02 0.  0.
         23    2    4    4    0    0 -0.83423521615E+02 -0.12623181155E+03  0.29117930201E+03  0.34126997664E+03  0.93732901547E+02 0.  0.
          3    1    3    3  502    0  0.45347890220E+02 -0.35869039403E+03 -0.59818643679E+03  0.69895796946E+03  0.00000000000E+00 0. -1.
         -3    1    3    3    0  502 -0.33519261102E+02 -0.11889037925E+03 -0.17945125535E+03  0.21785595285E+03  0.00000000000E+00 0.  1.
         13    1    5    5    0    0  0.70386054056E+02  0.38274390925E+03 -0.21980417141E+03  0.44694627244E+03  0.00000000000E+00 0. -1.
        -13    1    5    5    0    0  0.12088384406E+01  0.22106867558E+03 -0.64479210553E+02  0.23028328034E+03  0.00000000000E+00 0.  1.
          4    1    6    6  503    0 -0.41093302837E+02 -0.98552297387E+02  0.26189893542E+03  0.28282904241E+03  0.00000000000E+00 0. -1.
         -4    1    6    6    0  503 -0.42330218778E+02 -0.27679514168E+02  0.29280366595E+02  0.58440934235E+02  0.00000000000E+00 0.  1.
<mgrwt>
<rscale>  0 0.17752170E+04</rscale>
<asrwt>0</asrwt>
<pdfrwt beam="1">  1        2 0.20815809E+00 0.17752170E+04</pdfrwt>
<pdfrwt beam="2">  1       -2 0.89582437E-01 0.17752170E+04</pdfrwt>
<totfact> 0.15562357E+01</totfact>
</mgrwt>
</event>
<event>
12    3  0.4769008E-008  0.1398482E+04  0.7818608E-02  0.8954918E-01
         -1   -1    0    0    0  501 -0.00000000000E+00  0.00000000000E+00  0.42682791869E+04  0.42682791869E+04  0.00000000000E+00 0.  1.
          1   -1    0    0  501    0  0.00000000000E+00 -0.00000000000E+00 -0.11455150469E+03  0.11455150469E+03  0.00000000000E+00 0. -1.
         23    2    1    2    0    0 -0.26466855780E+03 -0.29569796385E+03  0.99844442794E+03  0.10785813371E+04  0.94655659049E+02 0.  0.
        254    2    1    2    0    0  0.26466855780E+03  0.29569796385E+03  0.31552832542E+04  0.33042493544E+04  0.89708675755E+03 0.  0.
         23    2    4    4    0    0 -0.12047329333E+03  0.50745510351E+03  0.18323728542E+04  0.19072710515E+04  0.89822551081E+02 0.  0.
         23    2    4    4    0    0  0.38514185113E+03 -0.21175713966E+03  0.13229104001E+04  0.13969783029E+04  0.91000662788E+02 0.  0.
          1    1    3    3  502    0 -0.52913124112E+02 -0.38308895167E+02  0.26540108604E+03  0.27332234930E+03  0.00000000000E+00 0. -1.
         -1    1    3    3    0  502 -0.21175543369E+03 -0.25738906868E+03  0.73304334190E+03  0.80525898782E+03  0.00000000000E+00 0.  1.
         13    1    5    5    0    0 -0.10930774802E+03  0.30122657416E+03  0.10265525421E+04  0.10754049258E+04  0.00000000000E+00 0. -1.
        -13    1    5    5    0    0 -0.11165545304E+02  0.20622852935E+03  0.80582031210E+03  0.83186612571E+03  0.00000000000E+00 0.  1.
          3    1    6    6  503    0  0.21251048328E+03 -0.64948828957E+02  0.65968195100E+03  0.69610296103E+03  0.00000000000E+00 0. -1.
         -3    1    6    6    0  503  0.17263136785E+03 -0.14680831070E+03  0.66322844905E+03  0.70087534190E+03  0.00000000000E+00 0.  1.
<mgrwt>
<rscale>  0 0.13984818E+04</rscale>
<asrwt>0</asrwt>
<pdfrwt beam="1">  1        1 0.17623312E-01 0.13984818E+04</pdfrwt>
<pdfrwt beam="2">  1       -1 0.65665821E+00 0.13984818E+04</pdfrwt>
<totfact> 0.82911454E-02</totfact>
</mgrwt>
</event>
<event>
12    3  0.4769008E-008  0.2052870E+04  0.7818608E-02  0.8582293E-01
          2   -1    0    0  501    0  0.00000000000E+00  0.00000000000E+00  0.11828630652E+04  0.11828630652E+04  0.00000000000E+00 0.  1.
         -2   -1    0    0    0  501 -0.00000000000E+00 -0.00000000000E+00 -0.89069384059E+03  0.89069384059E+03  0.00000000000E+00 0. -1.
         23    2    1    2    0    0 -0.52877819186E+03 -0.60753247971E+03  0.83303111748E+02  0.81483302479E+03  0.91166659334E+02 0.  0.
        254    2    1    2    0    0  0.52877819186E+03  0.60753247971E+03  0.20886611287E+03  0.12587238810E+04  0.94448857349E+03 0.  0.
         23    2    4    4    0    0 -0.90459256783E+02  0.53427747579E+03  0.29327995062E+03  0.62283658313E+03  0.90977918069E+02 0.  0.
         23    2    4    4    0    0  0.61923744865E+03  0.73255003918E+02 -0.84413837750E+02  0.63588729789E+03  0.91682311306E+02 0.  0.
          4    1    3    3  502    0 -0.47240667418E+03 -0.50456452650E+03  0.50976032362E+02  0.69307429839E+03  0.00000000000E+00 0. -1.
         -4    1    3    3    0  502 -0.56371517683E+02 -0.10296795320E+03  0.32327079386E+02  0.12175872640E+03  0.00000000000E+00 0.  1.
         13    1    5    5    0    0  0.13832092563E+02  0.15814106751E+03  0.95565602011E+02  0.18529087486E+03  0.00000000000E+00 0. -1.
        -13    1    5    5    0    0 -0.10429134935E+03  0.37613640828E+03  0.19771434861E+03  0.43754570827E+03  0.00000000000E+00 0.  1.
          4    1    6    6  503    0  0.15996660825E+03  0.39949545325E+02 -0.57523296844E+02  0.17462591905E+03  0.00000000000E+00 0. -1.
         -4    1    6    6    0  503  0.45927084040E+03  0.33305458594E+02 -0.26890540906E+02  0.46126137883E+03  0.00000000000E+00 0.  1.
<mgrwt>
<rscale>  0 0.20528700E+04</rscale>
<asrwt>0</asrwt>
<pdfrwt beam="1">  1        2 0.18197893E+00 0.20528700E+04</pdfrwt>
<pdfrwt beam="2">  1       -2 0.13702982E+00 0.20528700E+04</pdfrwt>
<totfact> 0.68131695E+00</totfact>
</mgrwt>
</event>
<event>
12    3  0.4769008E-008  0.2414203E+04  0.7818608E-02  0.8434205E-01
         -1   -1    0    0    0  501 -0.00000000000E+00  0.00000000000E+00  0.23997047926E+04  0.23997047926E+04  0.00000000000E+00 0.  1.
          1   -1    0    0  501    0  0.00000000000E+00 -0.00000000000E+00 -0.60719725506E+03  0.60719725506E+03  0.00000000000E+00 0. -1.
         23    2    1    2    0    0  0.56526648844E+03  0.81451199333E+03  0.11625172944E+04  0.15305951103E+04  0.91208232110E+02 0.  0.
        254    2    1    2    0    0 -0.56526648844E+03 -0.81451199333E+03  0.62999024318E+03  0.14763069374E+04  0.89422507051E+03 0.  0.
         23    2    4    4    0    0  0.89081023156E+02 -0.32443891679E+03 -0.11486099945E+03  0.36651400097E+03  0.89125890145E+02 0.  0.
         23    2    4    4    0    0 -0.65434751159E+03 -0.49007307653E+03  0.74485124263E+03  0.11097929364E+04  0.92166706887E+02 0.  0.
          1    1    3    3  502    0  0.25026535169E+03  0.28596127064E+03  0.46282781874E+03  0.59884570998E+03  0.00000000000E+00 0. -1.
         -1    1    3    3    0  502  0.31500113675E+03  0.52855072269E+03  0.69968947564E+03  0.93174940028E+03  0.00000000000E+00 0.  1.
         13    1    5    5    0    0  0.10194924467E+03 -0.31728699507E+03 -0.11141049632E+03  0.35139292028E+03  0.00000000000E+00 0. -1.
        -13    1    5    5    0    0 -0.12868221518E+02 -0.71519217206E+01 -0.34505031302E+01  0.15121080689E+02  0.00000000000E+00 0.  1.
          3    1    6    6  503    0 -0.49637097476E+03 -0.40578721804E+03  0.54508105421E+03  0.84152288535E+03  0.00000000000E+00 0. -1.
         -3    1    6    6    0  503 -0.15797653684E+03 -0.84285858492E+02  0.19977018842E+03  0.26827005109E+03  0.00000000000E+00 0.  1.
<mgrwt>
<rscale>  0 0.24142031E+04</rscale>
<asrwt>0</asrwt>
<pdfrwt beam="1">  1        1 0.93414964E-01 0.24142031E+04</pdfrwt>
<pdfrwt beam="2">  1       -1 0.36918535E+00 0.24142031E+04</pdfrwt>
<totfact> 0.34875861E-01</totfact>
</mgrwt>
</event>
<event>
12    3  0.4769008E-008  0.1289241E+04  0.7818608E-02  0.9038141E-01
          2   -1    0    0  501    0  0.00000000000E+00  0.00000000000E+00  0.24528430172E+03  0.24528430172E+03  0.00000000000E+00 0. -1.
         -2   -1    0    0    0  501 -0.00000000000E+00 -0.00000000000E+00 -0.16940987767E+04  0.16940987767E+04  0.00000000000E+00 0.  1.
         23    2    1    2    0    0  0.18348705404E+03  0.25162498405E+03 -0.40889384044E+03  0.52400893983E+03  0.10202237340E+03 0.  0.
        254    2    1    2    0    0 -0.18348705404E+03 -0.25162498405E+03 -0.10399206345E+04  0.14153741386E+04  0.90822155580E+03 0.  0.
         23    2    4    4    0    0  0.21886630516E+03  0.77443913800E+02 -0.79598775470E+03  0.83396434307E+03  0.89442722240E+02 0.  0.
         23    2    4    4    0    0 -0.40235335920E+03 -0.32906889785E+03 -0.24393287982E+03  0.58140979550E+03  0.91430494112E+02 0.  0.
          2    1    3    3  502    0  0.90826497202E+02  0.69401606245E+02 -0.91227211160E+02  0.14624787041E+03  0.00000000000E+00 0.  1.
         -2    1    3    3    0  502  0.92660556838E+02  0.18222337780E+03 -0.31766662928E+03  0.37776106942E+03  0.00000000000E+00 0. -1.
         13    1    5    5    0    0  0.13776747267E+03  0.86162998908E+02 -0.44839864453E+03  0.47693320636E+03  0.00000000000E+00 0.  1.
        -13    1    5    5    0    0  0.81098832485E+02 -0.87190851079E+01 -0.34758911016E+03  0.35703113671E+03  0.00000000000E+00 0. -1.
          3    1    6    6  503    0 -0.40225377390E+02 -0.48201465957E+02 -0.62297860065E+02  0.88444817119E+02  0.00000000000E+00 0. -1.
         -3    1    6    6    0  503 -0.36212798181E+03 -0.28086743189E+03 -0.18163501975E+03  0.49296497838E+03  0.00000000000E+00 0.  1.
<mgrwt>
<rscale>  0 0.12892414E+04</rscale>
<asrwt>0</asrwt>
<pdfrwt beam="1">  1        2 0.37736047E-01 0.12892414E+04</pdfrwt>
<pdfrwt beam="2">  1       -2 0.26063058E+00 0.12892414E+04</pdfrwt>
<totfact> 0.74787383E+00</totfact>
</mgrwt>
</event>
<event>
12    3  0.4769008E-008  0.1403193E+04  0.7818608E-02  0.8951511E-01
         -1   -1    0    0    0  501 -0.00000000000E+00  0.00000000000E+00  0.30293802720E+03  0.30293802720E+03  0.00000000000E+00 0.  1.
          1   -1    0    0  501    0  0.00000000000E+00 -0.00000000000E+00 -0.16248780248E+04  0.16248780248E+04  0.00000000000E+00 0. -1.
         23    2    1    2    0    0 -0.33169450996E+03  0.60207164202E+02 -0.71129815357E+03  0.79250580789E+03  0.92055644628E+02 0.  0.
        254    2    1    2    0    0  0.33169450996E+03 -0.60207164202E+02 -0.61064184400E+03  0.11353102441E+04  0.89576768087E+03 0.  0.
         23    2    4    4    0    0 -0.24524739888E+03 -0.22513433891E+03 -0.27359742463E+03  0.44071841884E+03  0.92441423259E+02 0.  0.
         23    2    4    4    0    0  0.57694190884E+03  0.16492717471E+03 -0.33704441938E+03  0.69459182523E+03  0.93786587036E+02 0.  0.
          1    1    3    3  502    0 -0.29634887609E+03  0.30475968322E+02 -0.55995878739E+03  0.63427540121E+03  0.00000000000E+00 0. -1.
         -1    1    3    3    0  502 -0.35345633870E+02  0.29731195880E+02 -0.15133936618E+03  0.15823040668E+03  0.00000000000E+00 0.  1.
         13    1    5    5    0    0 -0.24094327023E+03 -0.20806598340E+03 -0.27792001943E+03  0.42259277102E+03  0.00000000000E+00 0. -1.
        -13    1    5    5    0    0 -0.43041286493E+01 -0.17068355506E+02  0.43225948073E+01  0.18125647823E+02  0.00000000000E+00 0.  1.
          3    1    6    6  503    0  0.27802739663E+03  0.10906960607E+03 -0.12439789418E+03  0.32352781692E+03  0.00000000000E+00 0. -1.
         -3    1    6    6    0  503  0.29891451221E+03  0.55857568641E+02 -0.21264652519E+03  0.37106400831E+03  0.00000000000E+00 0.  1.
<mgrwt>
<rscale>  0 0.14031926E+04</rscale>
<asrwt>0</asrwt>
<pdfrwt beam="1">  1        1 0.24998124E+00 0.14031926E+04</pdfrwt>
<pdfrwt beam="2">  1       -1 0.46605850E-01 0.14031926E+04</pdfrwt>
<totfact> 0.23982459E+01</totfact>
</mgrwt>
</event>
<event>
12    3  0.4769008E-008  0.2384370E+04  0.7818608E-02  0.8445378E-01
          2   -1    0    0  501    0  0.00000000000E+00  0.00000000000E+00  0.13756688305E+04  0.13756688305E+04  0.00000000000E+00 0.  1.
         -2   -1    0    0    0  501 -0.00000000000E+00 -0.00000000000E+00 -0.10331739661E+04  0.10331739661E+04  0.00000000000E+00 0. -1.
         23    2    1    2    0    0  0.15170485833E+03  0.43938161500E+03 -0.76841476001E+03  0.90651190828E+03  0.12341810566E+03 0.  0.
        254    2    1    2    0    0 -0.15170485833E+03 -0.43938161500E+03  0.11109096243E+04  0.15023308883E+04  0.89822454708E+03 0.  0.
         23    2    4    4    0    0 -0.50840210416E+03 -0.36665651800E+03  0.65441486235E+03  0.91079187773E+03  0.91505905610E+02 0.  0.
         23    2    4    4    0    0  0.35669724583E+03 -0.72725096991E+02  0.45649476199E+03  0.59153901061E+03  0.94916112675E+02 0.  0.
          4    1    3    3  502    0  0.86684843871E+02  0.35075673752E+03 -0.65824153116E+03  0.75088378889E+03  0.00000000000E+00 0. -1.
         -4    1    3    3    0  502  0.65020014461E+02  0.88624877479E+02 -0.11017322885E+03  0.15562811939E+03  0.00000000000E+00 0.  1.
         13    1    5    5    0    0 -0.44215807658E+02 -0.67915009285E+02  0.95167628704E+02  0.12499745472E+03  0.00000000000E+00 0. -1.
        -13    1    5    5    0    0 -0.46418629650E+03 -0.29874150872E+03  0.55924723364E+03  0.78579442301E+03  0.00000000000E+00 0.  1.
          4    1    6    6  503    0  0.17418078728E+03 -0.73755175827E+02  0.18645054451E+03  0.26559852818E+03  0.00000000000E+00 0. -1.
         -4    1    6    6    0  503  0.18251645854E+03  0.10300788363E+01  0.27004421747E+03  0.32594048244E+03  0.00000000000E+00 0.  1.
<mgrwt>
<rscale>  0 0.23843701E+04</rscale>
<asrwt>0</asrwt>
<pdfrwt beam="1">  1        2 0.21164136E+00 0.23843701E+04</pdfrwt>
<pdfrwt beam="2">  1       -2 0.15894984E+00 0.23843701E+04</pdfrwt>
<totfact> 0.34510113E+00</totfact>
</mgrwt>
</event>
<event>
12    3  0.4769008E-008  0.1768214E+04  0.7818608E-02  0.8723388E-01
          2   -1    0    0  501    0  0.00000000000E+00  0.00000000000E+00  0.11280955021E+04  0.11280955021E+04  0.00000000000E+00 0. -1.
         -2   -1    0    0    0  501 -0.00000000000E+00 -0.00000000000E+00 -0.69288900898E+03  0.69288900898E+03  0.00000000000E+00 0.  1.
         23    2    1    2    0    0 -0.59030933507E+03 -0.26427602040E+03  0.24066708144E+03  0.69604535115E+03  0.90838101805E+02 0.  0.
        254    2    1    2    0    0  0.59030933507E+03  0.26427602040E+03  0.19453941167E+03  0.11249391599E+04  0.89963081585E+03 0.  0.
         23    2    4    4    0    0  0.16064119594E+03  0.46404899361E+03  0.35936537253E+03  0.61481746059E+03  0.87806472229E+02 0.  0.
         23    2    4    4    0    0  0.42966813913E+03 -0.19977297321E+03 -0.16482596086E+03  0.51012169934E+03  0.92372074549E+02 0.  0.
          3    1    3    3  502    0 -0.14849169474E+03 -0.28389677667E+02  0.39051300193E+02  0.15614339964E+03  0.00000000000E+00 0. -1.
         -3    1    3    3    0  502 -0.44181764033E+03 -0.23588634273E+03  0.20161578125E+03  0.53990195150E+03  0.00000000000E+00 0.  1.
         13    1    5    5    0    0  0.33249514878E+02  0.11234952665E+03  0.13447634620E+03  0.17835872299E+03  0.00000000000E+00 0. -1.
        -13    1    5    5    0    0  0.12739168106E+03  0.35169946696E+03  0.22488902633E+03  0.43645873760E+03  0.00000000000E+00 0.  1.
          2    1    6    6  503    0  0.27412902045E+02 -0.22436485285E+02 -0.39368288982E+02  0.52959656795E+02  0.00000000000E+00 0. -1.
         -2    1    6    6    0  503  0.40225523709E+03 -0.17733648792E+03 -0.12545767188E+03  0.45716204255E+03  0.00000000000E+00 0.  1.
<mgrwt>
<rscale>  0 0.17682138E+04</rscale>
<asrwt>0</asrwt>
<pdfrwt beam="1">  1        2 0.17355315E+00 0.17682138E+04</pdfrwt>
<pdfrwt beam="2">  1       -2 0.10659831E+00 0.17682138E+04</pdfrwt>
<totfact> 0.14048428E+01</totfact>
</mgrwt>
</event>
<event>
12    3  0.4769008E-008  0.1367395E+04  0.7818608E-02  0.8977764E-01
         -2   -1    0    0    0  501 -0.00000000000E+00  0.00000000000E+00  0.24260932820E+03  0.24260932820E+03  0.00000000000E+00 0.  1.
          2   -1    0    0  501    0  0.00000000000E+00 -0.00000000000E+00 -0.19267272716E+04  0.19267272716E+04  0.00000000000E+00 0. -1.
         23    2    1    2    0    0 -0.33871687202E+03 -0.11892475333E+03 -0.60081026973E+03  0.70666394800E+03  0.97615259318E+02 0.  0.
        254    2    1    2    0    0  0.33871687202E+03  0.11892475333E+03 -0.10833076737E+04  0.14626726518E+04  0.91486805285E+03 0.  0.
         23    2    4    4    0    0 -0.13470420280E+03 -0.28926569933E+03 -0.23937057362E+03  0.40876697772E+03  0.89287756668E+02 0.  0.
         23    2    4    4    0    0  0.47342107482E+03  0.40819045267E+03 -0.84393710004E+03  0.10539056741E+04  0.87979436649E+02 0.  0.
          2    1    3    3  502    0 -0.24274585446E+03 -0.10254760251E+03 -0.50736311413E+03  0.57171574250E+03  0.00000000000E+00 0. -1.
         -2    1    3    3    0  502 -0.95971017557E+02 -0.16377150820E+02 -0.93447155596E+02  0.13494820551E+03  0.00000000000E+00 0.  1.
         13    1    5    5    0    0 -0.54036722238E+02 -0.21492004294E+03 -0.16301416886E+03  0.27510763613E+03  0.00000000000E+00 0. -1.
        -13    1    5    5    0    0 -0.80667480564E+02 -0.74345656397E+02 -0.76356404759E+02  0.13365934159E+03  0.00000000000E+00 0.  1.
          1    1    6    6  503    0  0.27083382330E+03  0.26697924052E+03 -0.45256850106E+03  0.59114052717E+03  0.00000000000E+00 0. -1.
         -1    1    6    6    0  503  0.20258725152E+03  0.14121121215E+03 -0.39136859898E+03  0.46276514690E+03  0.00000000000E+00 0.  1.
<mgrwt>
<rscale>  0 0.13673946E+04</rscale>
<asrwt>0</asrwt>
<pdfrwt beam="1">  1        2 0.29641958E+00 0.13673946E+04</pdfrwt>
<pdfrwt beam="2">  1       -2 0.37324512E-01 0.13673946E+04</pdfrwt>
<totfact> 0.48475540E+01</totfact>
</mgrwt>
</event>
<event>
12    3  0.4769008E-008  0.1502874E+04  0.7818608E-02  0.8882544E-01
          2   -1    0    0  501    0  0.00000000000E+00  0.00000000000E+00  0.24661222183E+04  0.24661222183E+04  0.00000000000E+00 0. -1.
         -2   -1    0    0    0  501 -0.00000000000E+00 -0.00000000000E+00 -0.22896576851E+03  0.22896576851E+03  0.00000000000E+00 0.  1.
         23    2    1    2    0    0  0.93047456077E+02 -0.11618296138E+03  0.15603893684E+04  0.15702535030E+04  0.93406493265E+02 0.  0.
        254    2    1    2    0    0 -0.93047456077E+02  0.11618296138E+03  0.67676708138E+03  0.11248344838E+04  0.88604888352E+03 0.  0.
         23    2    4    4    0    0 -0.58518737611E+01  0.15444857537E+03  0.87096268140E+03  0.88926170287E+03  0.91223773991E+02 0.  0.
         23    2    4    4    0    0 -0.87195582316E+02 -0.38265613982E+02 -0.19419560002E+03  0.23557278096E+03  0.93355649398E+02 0.  0.
          3    1    3    3  502    0  0.68083018800E+02 -0.61290789403E+02  0.12887279846E+04  0.12919797508E+04  0.00000000000E+00 0. -1.
         -3    1    3    3    0  502  0.24964437278E+02 -0.54892171982E+02  0.27166138389E+03  0.27827375221E+03  0.00000000000E+00 0.  1.
         13    1    5    5    0    0 -0.11715782513E+02  0.14767607864E+03  0.59536674131E+03  0.61352020376E+03  0.00000000000E+00 0.  1.
        -13    1    5    5    0    0  0.58639087520E+01  0.67724967240E+01  0.27559594010E+03  0.27574149912E+03  0.00000000000E+00 0. -1.
          1    1    6    6  503    0  0.99540175810E+01 -0.19640490670E+02 -0.57732128704E+01  0.22763157220E+02  0.00000000000E+00 0. -1.
         -1    1    6    6    0  503 -0.97149599897E+02 -0.18625123312E+02 -0.18842238715E+03  0.21280962374E+03  0.00000000000E+00 0.  1.
<mgrwt>
<rscale>  0 0.15028740E+04</rscale>
<asrwt>0</asrwt>
<pdfrwt beam="1">  1        2 0.37940340E+00 0.15028740E+04</pdfrwt>
<pdfrwt beam="2">  1       -2 0.35225504E-01 0.15028740E+04</pdfrwt>
<totfact> 0.26689187E+01</totfact>
</mgrwt>
</event>
<event>
12    3  0.4769008E-008  0.1138935E+04  0.7818608E-02  0.9168053E-01
          2   -1    0    0  501    0  0.00000000000E+00  0.00000000000E+00  0.54521580671E+03  0.54521580671E+03  0.00000000000E+00 0. -1.
         -2   -1    0    0    0  501 -0.00000000000E+00 -0.00000000000E+00 -0.59479791370E+03  0.59479791370E+03  0.00000000000E+00 0.  1.
         23    2    1    2    0    0  0.64237027499E+02  0.18608180468E+03  0.41498347568E+02  0.22064899591E+03  0.90614749422E+02 0.  0.
        254    2    1    2    0    0 -0.64237027499E+02 -0.18608180468E+03 -0.91080454551E+02  0.91936472450E+03  0.89341088739E+03 0.  0.
         23    2    4    4    0    0  0.40312943921E+03 -0.10415561144E+03 -0.92476401094E+02  0.43661591055E+03  0.93380042991E+02 0.  0.
         23    2    4    4    0    0 -0.46736646671E+03 -0.81926193236E+02  0.13959465433E+01  0.48274881395E+03  0.88888432078E+02 0.  0.
          3    1    3    3  502    0  0.56711907011E+02  0.10224999203E+03  0.64310661704E+02  0.13344348045E+03  0.00000000000E+00 0. -1.
         -3    1    3    3    0  502  0.75251204886E+01  0.83831812653E+02 -0.22812314136E+02  0.87205515464E+02  0.00000000000E+00 0.  1.
         13    1    5    5    0    0  0.10364145272E+03 -0.57948164044E+02  0.33654257732E+01  0.11878916840E+03  0.00000000000E+00 0. -1.
        -13    1    5    5    0    0  0.29948798649E+03 -0.46207447399E+02 -0.95841826867E+02  0.31782674215E+03  0.00000000000E+00 0.  1.
          4    1    6    6  503    0 -0.16750663353E+03 -0.41028627903E+02  0.41734903292E+02  0.17743624978E+03  0.00000000000E+00 0.  1.
         -4    1    6    6    0  503 -0.29985983318E+03 -0.40897565333E+02 -0.40338956749E+02  0.30531256416E+03  0.00000000000E+00 0. -1.
<mgrwt>
<rscale>  0 0.11389350E+04</rscale>
<asrwt>0</asrwt>
<pdfrwt beam="1">  1        2 0.83879355E-01 0.11389350E+04</pdfrwt>
<pdfrwt beam="2">  1       -2 0.91507371E-01 0.11389350E+04</pdfrwt>
<totfact> 0.56058032E+01</totfact>
</mgrwt>
</event>
<event>
12    3  0.4769008E-008  0.1705993E+04  0.7818608E-02  0.8757954E-01
         -1   -1    0    0    0  501 -0.00000000000E+00  0.00000000000E+00  0.57457121625E+03  0.57457121625E+03  0.00000000000E+00 0.  1.
          1   -1    0    0  501    0  0.00000000000E+00 -0.00000000000E+00 -0.12663403180E+04  0.12663403180E+04  0.00000000000E+00 0. -1.
         23    2    1    2    0    0 -0.51247954794E+03 -0.33977567936E+03 -0.25646373594E+03  0.67304950555E+03  0.95599109412E+02 0.  0.
        254    2    1    2    0    0  0.51247954794E+03  0.33977567936E+03 -0.43530536584E+03  0.11678620287E+04  0.89237220782E+03 0.  0.
         23    2    4    4    0    0  0.28711709795E+03  0.47203878580E+03 -0.61993270978E+03  0.83519232477E+03  0.89290601156E+02 0.  0.
         23    2    4    4    0    0  0.22536244999E+03 -0.13226310644E+03  0.18462734395E+03  0.33266970397E+03  0.91104953837E+02 0.  0.
          1    1    3    3  502    0 -0.14925929319E+03 -0.13772168598E+03 -0.11838805906E+03  0.23507728925E+03  0.00000000000E+00 0. -1.
         -1    1    3    3    0  502 -0.36322025475E+03 -0.20205399338E+03 -0.13807567688E+03  0.43797221630E+03  0.00000000000E+00 0.  1.
         13    1    5    5    0    0  0.27831921940E+03  0.45317875911E+03 -0.61634821942E+03  0.81407475282E+03  0.00000000000E+00 0. -1.
        -13    1    5    5    0    0  0.87978785535E+01  0.18860026687E+02 -0.35844903602E+01  0.21117571944E+02  0.00000000000E+00 0.  1.
          3    1    6    6  503    0  0.16294794483E+03 -0.11992900383E+03  0.17657615333E+03  0.26854075409E+03  0.00000000000E+00 0. -1.
         -3    1    6    6    0  503  0.62414505161E+02 -0.12334102605E+02  0.80511906196E+01  0.64128949874E+02  0.00000000000E+00 0.  1.
<mgrwt>
<rscale>  0 0.17059926E+04</rscale>
<asrwt>0</asrwt>
<pdfrwt beam="1">  1        1 0.19482159E+00 0.17059926E+04</pdfrwt>
<pdfrwt beam="2">  1       -1 0.88395572E-01 0.17059926E+04</pdfrwt>
<totfact> 0.11432736E+01</totfact>
</mgrwt>
</event>
<event>
12    3  0.4769008E-008  0.1614650E+04  0.7818608E-02  0.8811598E-01
         -1   -1    0    0    0  501 -0.00000000000E+00  0.00000000000E+00  0.13693083831E+03  0.13693083831E+03  0.00000000000E+00 0.  1.
          1   -1    0    0  501    0  0.00000000000E+00 -0.00000000000E+00 -0.47598772522E+04  0.47598772522E+04  0.00000000000E+00 0. -1.
         23    2    1    2    0    0 -0.37409452135E+03  0.32295077160E+03 -0.23379296700E+04  0.23913888750E+04  0.92637454943E+02 0.  0.
        254    2    1    2    0    0  0.37409452135E+03 -0.32295077160E+03 -0.22850167440E+04  0.25054192155E+04  0.90087735767E+03 0.  0.
         23    2    4    4    0    0  0.41974083072E+03 -0.53132777684E+03 -0.21079114747E+04  0.22158284523E+04  0.90074267229E+02 0.  0.
         23    2    4    4    0    0 -0.45646309363E+02  0.20837700524E+03 -0.17710526925E+03  0.28959076317E+03  0.83618011518E+02 0.  0.
          2    1    3    3  502    0 -0.14724025249E+03  0.13407032453E+03 -0.73464207756E+03  0.76115276127E+03  0.00000000000E+00 0. -1.
         -2    1    3    3    0  502 -0.22685426887E+03  0.18888044707E+03 -0.16032875924E+04  0.16302361137E+04  0.00000000000E+00 0.  1.
         13    1    5    5    0    0  0.15755896438E+03 -0.27111634010E+03 -0.94715266072E+03  0.99771090995E+03  0.00000000000E+00 0. -1.
        -13    1    5    5    0    0  0.26218186633E+03 -0.26021143674E+03 -0.11607588140E+04  0.12181175424E+04  0.00000000000E+00 0.  1.
          1    1    6    6  503    0  0.11336958579E+01  0.34985985926E+01 -0.36626305584E+02  0.36810483821E+02  0.00000000000E+00 0. -1.
         -1    1    6    6    0  503 -0.46780005221E+02  0.20487840664E+03 -0.14047896367E+03  0.25278027935E+03  0.00000000000E+00 0.  1.
<mgrwt>
<rscale>  0 0.16146504E+04</rscale>
<asrwt>0</asrwt>
<pdfrwt beam="1">  1        1 0.73228875E+00 0.16146504E+04</pdfrwt>
<pdfrwt beam="2">  1       -1 0.21066285E-01 0.16146504E+04</pdfrwt>
<totfact> 0.31244354E-01</totfact>
</mgrwt>
</event>
<event>
12    3  0.4769008E-008  0.1272907E+04  0.7818608E-02  0.9051331E-01
         -2   -1    0    0    0  501 -0.00000000000E+00  0.00000000000E+00  0.26130721652E+03  0.26130721652E+03  0.00000000000E+00 0.  1.
          2   -1    0    0  501    0  0.00000000000E+00 -0.00000000000E+00 -0.15501786679E+04  0.15501786679E+04  0.00000000000E+00 0. -1.
         23    2    1    2    0    0  0.29050761891E+03 -0.20755436408E+02 -0.35679656720E+03  0.47016049549E+03  0.94454414228E+02 0.  0.
        254    2    1    2    0    0 -0.29050761891E+03  0.20755436408E+02 -0.93207488420E+03  0.13413253889E+04  0.91954594474E+03 0.  0.
         23    2    4    4    0    0 -0.21474993414E+03 -0.31382982146E+03 -0.55413142028E+02  0.39547573492E+03  0.93401014730E+02 0.  0.
         23    2    4    4    0    0 -0.75757684767E+02  0.33458525787E+03 -0.87666174218E+03  0.94584965403E+03  0.91701887941E+02 0.  0.
          3    1    3    3  502    0  0.54371968246E+02  0.27235805204E+01 -0.13410293610E+03  0.14473191180E+03  0.00000000000E+00 0. -1.
         -3    1    3    3    0  502  0.23613565066E+03 -0.23479016929E+02 -0.22269363109E+03  0.32542858368E+03  0.00000000000E+00 0.  1.
         13    1    5    5    0    0 -0.29632269167E+01 -0.36014787181E+02 -0.26763481768E+02  0.44968094976E+02  0.00000000000E+00 0. -1.
        -13    1    5    5    0    0 -0.21178670722E+03 -0.27781503428E+03 -0.28649660260E+02  0.35050763994E+03  0.00000000000E+00 0.  1.
          3    1    6    6  503    0  0.48142327643E+01  0.24882428109E+01 -0.64421932436E+02  0.64649466883E+02  0.00000000000E+00 0. -1.
         -3    1    6    6    0  503 -0.80571917531E+02  0.33209701505E+03 -0.81223980974E+03  0.88120018715E+03  0.00000000000E+00 0.  1.
<mgrwt>
<rscale>  0 0.12729067E+04</rscale>
<asrwt>0</asrwt>
<pdfrwt beam="1">  1        2 0.23848903E+00 0.12729067E+04</pdfrwt>
<pdfrwt beam="2">  1       -2 0.40201110E-01 0.12729067E+04</pdfrwt>
<totfact> 0.68369807E+01</totfact>
</mgrwt>
</event>
<event>
12    3  0.4769008E-008  0.2259325E+04  0.7818608E-02  0.8494133E-01
         -2   -1    0    0    0  501 -0.00000000000E+00  0.00000000000E+00  0.84061927062E+03  0.84061927062E+03  0.00000000000E+00 0.  1.
          2   -1    0    0  501    0  0.00000000000E+00 -0.00000000000E+00 -0.15180924260E+04  0.15180924260E+04  0.00000000000E+00 0. -1.
         23    2    1    2    0    0  0.41893049863E+03 -0.37092082992E+03  0.51191120267E+03  0.76391233007E+03  0.91782045427E+02 0.  0.
        254    2    1    2    0    0 -0.41893049863E+03  0.37092082992E+03 -0.11893843580E+04  0.15947993665E+04  0.90314165202E+03 0.  0.
         23    2    4    4    0    0 -0.61260885484E+03  0.42131204640E+03 -0.57856141846E+03  0.94638510792E+03  0.90099989418E+02 0.  0.
         23    2    4    4    0    0  0.19367835621E+03 -0.50391216479E+02 -0.61082293958E+03  0.64841425862E+03  0.85356938208E+02 0.  0.
          2    1    3    3  502    0  0.12727999576E+03 -0.14625530019E+03  0.12989671072E+03  0.23337516065E+03  0.00000000000E+00 0. -1.
         -2    1    3    3    0  502  0.29165050287E+03 -0.22466552973E+03  0.38201449195E+03  0.53053716942E+03  0.00000000000E+00 0.  1.
         13    1    5    5    0    0 -0.41257724990E+03  0.25351246541E+03 -0.41933816054E+03  0.64057243942E+03  0.00000000000E+00 0.  1.
        -13    1    5    5    0    0 -0.20003160494E+03  0.16779958099E+03 -0.15922325791E+03  0.30581266850E+03  0.00000000000E+00 0. -1.
          4    1    6    6  503    0 -0.90039266427E+00  0.94176196555E+01 -0.68415437347E+02  0.69066448687E+02  0.00000000000E+00 0. -1.
         -4    1    6    6    0  503  0.19457874888E+03 -0.59808836134E+02 -0.54240750224E+03  0.57934780994E+03  0.00000000000E+00 0.  1.
<mgrwt>
<rscale>  0 0.22593253E+04</rscale>
<asrwt>0</asrwt>
<pdfrwt beam="1">  1        2 0.23355268E+00 0.22593253E+04</pdfrwt>
<pdfrwt beam="2">  1       -2 0.12932604E+00 0.22593253E+04</pdfrwt>
<totfact> 0.49638915E+00</totfact>
</mgrwt>
</event>
<event>
12    3  0.4769008E-008  0.1759563E+04  0.7818608E-02  0.8728104E-01
         -1   -1    0    0    0  501 -0.00000000000E+00  0.00000000000E+00  0.16208400838E+03  0.16208400838E+03  0.00000000000E+00 0.  1.
          1   -1    0    0  501    0  0.00000000000E+00 -0.00000000000E+00 -0.47753959069E+04  0.47753959069E+04  0.00000000000E+00 0. -1.
         23    2    1    2    0    0  0.45846341349E+03  0.26434184729E+03 -0.65891743220E+03  0.84977858447E+03  0.88803977550E+02 0.  0.
        254    2    1    2    0    0 -0.45846341349E+03 -0.26434184729E+03 -0.39543944664E+04  0.40877013309E+04  0.88994452686E+03 0.  0.
         23    2    4    4    0    0 -0.37785728160E+03 -0.28837560643E+03 -0.83024283402E+03  0.96105350219E+03  0.91564485442E+02 0.  0.
         23    2    4    4    0    0 -0.80606131892E+02  0.24033759135E+02 -0.31241516323E+04  0.31266478287E+04  0.92348538159E+02 0.  0.
          2    1    3    3  502    0  0.16049017173E+03  0.80772409315E+02 -0.16156057736E+03  0.24162594539E+03  0.00000000000E+00 0. -1.
         -2    1    3    3    0  502  0.29797324176E+03  0.18356943798E+03 -0.49735685484E+03  0.60815263908E+03  0.00000000000E+00 0.  1.
         13    1    5    5    0    0 -0.29224536385E+03 -0.20142582688E+03 -0.68384851829E+03  0.77047291477E+03  0.00000000000E+00 0. -1.
        -13    1    5    5    0    0 -0.85611917744E+02 -0.86949779550E+02 -0.14639431573E+03  0.19058058742E+03  0.00000000000E+00 0.  1.
          2    1    6    6  503    0 -0.78599748232E+01 -0.18908498596E+02 -0.16176774761E+04  0.16178070735E+04  0.00000000000E+00 0. -1.
         -2    1    6    6    0  503 -0.72746157069E+02  0.42942257731E+02 -0.15064741563E+04  0.15088407551E+04  0.00000000000E+00 0.  1.
<mgrwt>
<rscale>  0 0.17595628E+04</rscale>
<asrwt>0</asrwt>
<pdfrwt beam="1">  1        1 0.73467631E+00 0.17595628E+04</pdfrwt>
<pdfrwt beam="2">  1       -1 0.24936001E-01 0.17595628E+04</pdfrwt>
<totfact> 0.22112067E-01</totfact>
</mgrwt>
</event>
<event>
12    3  0.4769008E-008  0.1496277E+04  0.7818608E-02  0.8886932E-01
          2   -1    0    0  501    0  0.00000000000E+00  0.00000000000E+00  0.66350611446E+03  0.66350611446E+03  0.00000000000E+00 0. -1.
         -2   -1    0    0    0  501 -0.00000000000E+00 -0.00000000000E+00 -0.84356632854E+03  0.84356632854E+03  0.00000000000E+00 0.  1.
         23    2    1    2    0    0  0.46892438781E+03  0.10094025166E+03  0.41125078498E+02  0.49022710686E+03  0.92478799336E+02 0.  0.
        254    2    1    2    0    0 -0.46892438781E+03 -0.10094025166E+03 -0.22118529258E+03  0.10168453361E+04  0.86889152837E+03 0.  0.
         23    2    4    4    0    0 -0.30058390311E+03 -0.22886418905E+03 -0.51333825518E+03  0.64383357935E+03  0.90972599350E+02 0.  0.
         23    2    4    4    0    0 -0.16834048471E+03  0.12792393739E+03  0.29215296260E+03  0.37301175678E+03  0.95296193987E+02 0.  0.
          2    1    3    3  502    0  0.46590671741E+03  0.98438894278E+02  0.51660177335E+02  0.47898649162E+03  0.00000000000E+00 0. -1.
         -2    1    3    3    0  502  0.30176704058E+01  0.25013573853E+01 -0.10535098838E+02  0.11240615240E+02  0.00000000000E+00 0.  1.
         13    1    5    5    0    0 -0.44752016650E+02 -0.74840043135E+02 -0.15024730923E+03  0.17371824597E+03  0.00000000000E+00 0.  1.
        -13    1    5    5    0    0 -0.25583188646E+03 -0.15402414592E+03 -0.36309094595E+03  0.47011533339E+03  0.00000000000E+00 0. -1.
          4    1    6    6  503    0 -0.59525992961E+02  0.68164214225E+02  0.19634437814E+03  0.21619625058E+03  0.00000000000E+00 0. -1.
         -4    1    6    6    0  503 -0.10881449175E+03  0.59759723163E+02  0.95808584465E+02  0.15681550620E+03  0.00000000000E+00 0.  1.
<mgrwt>
<rscale>  0 0.14962773E+04</rscale>
<asrwt>0</asrwt>
<pdfrwt beam="1">  1        2 0.10207786E+00 0.14962773E+04</pdfrwt>
<pdfrwt beam="2">  1       -2 0.12977943E+00 0.14962773E+04</pdfrwt>
<totfact> 0.18469135E+01</totfact>
</mgrwt>
</event>
<event>
12    3  0.4769008E-008  0.1503353E+04  0.7818608E-02  0.8882226E-01
          1   -1    0    0  501    0  0.00000000000E+00  0.00000000000E+00  0.10023317743E+04  0.10023317743E+04  0.00000000000E+00 0. -1.
         -1   -1    0    0    0  501 -0.00000000000E+00 -0.00000000000E+00 -0.56370338950E+03  0.56370338950E+03  0.00000000000E+00 0.  1.
         23    2    1    2    0    0  0.44193039747E+01 -0.48189648566E+03  0.19948839162E+03  0.52960885868E+03  0.91903055798E+02 0.  0.
        254    2    1    2    0    0 -0.44193039747E+01  0.48189648566E+03  0.23913999315E+03  0.10364263051E+04  0.88585991920E+03 0.  0.
         23    2    4    4    0    0  0.30509110542E+03  0.53837706257E+03 -0.77779522607E+01  0.62532653407E+03  0.89679058666E+02 0.  0.
         23    2    4    4    0    0 -0.30951040940E+03 -0.56480576912E+02  0.24691794541E+03  0.41109977103E+03  0.95119928951E+02 0.  0.
          2    1    3    3  502    0  0.67419101129E+01 -0.47673779603E+03  0.20735139805E+03  0.51992209204E+03  0.00000000000E+00 0. -1.
         -2    1    3    3    0  502 -0.23226061382E+01 -0.51586896290E+01 -0.78630064274E+01  0.96867666452E+01  0.00000000000E+00 0.  1.
         13    1    5    5    0    0  0.29323220876E+03  0.53660511426E+03 -0.89109993618E+00  0.61149895418E+03  0.00000000000E+00 0.  1.
        -13    1    5    5    0    0  0.11858896656E+02  0.17719483138E+01 -0.68868523245E+01  0.13827579892E+02  0.00000000000E+00 0. -1.
          2    1    6    6  503    0 -0.14730420271E+03 -0.29750668394E+02  0.17770819192E+03  0.23273124389E+03  0.00000000000E+00 0.  1.
         -2    1    6    6    0  503 -0.16220620669E+03 -0.26729908518E+02  0.69209753491E+02  0.17836852715E+03  0.00000000000E+00 0. -1.
<mgrwt>
<rscale>  0 0.15033533E+04</rscale>
<asrwt>0</asrwt>
<pdfrwt beam="1">  1        1 0.15420489E+00 0.15033533E+04</pdfrwt>
<pdfrwt beam="2">  1       -1 0.86723599E-01 0.15033533E+04</pdfrwt>
<totfact> 0.19100970E+01</totfact>
</mgrwt>
</event>
<event>
12    3  0.4769008E-008  0.9980801E+03  0.7818608E-02  0.9310653E-01
          2   -1    0    0  501    0  0.00000000000E+00  0.00000000000E+00  0.25434458967E+03  0.25434458967E+03  0.00000000000E+00 0. -1.
         -2   -1    0    0    0  501 -0.00000000000E+00 -0.00000000000E+00 -0.97914798724E+03  0.97914798724E+03  0.00000000000E+00 0.  1.
         23    2    1    2    0    0 -0.22310910072E+02  0.15737202453E+02 -0.13024341013E+03  0.16567588981E+03  0.98690011308E+02 0.  0.
        254    2    1    2    0    0  0.22310910072E+02 -0.15737202453E+02 -0.59455998744E+03  0.10678166871E+04  0.88655821148E+03 0.  0.
         23    2    4    4    0    0  0.41876697449E+03 -0.15246847021E+03 -0.35421393486E+03  0.57692312873E+03  0.93596856168E+02 0.  0.
         23    2    4    4    0    0 -0.39645606442E+03  0.13673126776E+03 -0.24034605258E+03  0.49089355837E+03  0.85658683528E+02 0.  0.
          1    1    3    3  502    0  0.14292245975E+02  0.39321456034E+02 -0.18495382102E+02  0.45744118297E+02  0.00000000000E+00 0. -1.
         -1    1    3    3    0  502 -0.36603156047E+02 -0.23584253581E+02 -0.11174802803E+03  0.11993177151E+03  0.00000000000E+00 0.  1.
         13    1    5    5    0    0  0.11406949267E+03 -0.97808329186E+01 -0.56530378493E+02  0.12768397528E+03  0.00000000000E+00 0. -1.
        -13    1    5    5    0    0  0.30469748182E+03 -0.14268763729E+03 -0.29768355637E+03  0.44923915345E+03  0.00000000000E+00 0.  1.
          4    1    6    6  503    0 -0.85583607287E+02  0.24332066492E+02 -0.93836819899E+02  0.12931338703E+03  0.00000000000E+00 0. -1.
         -4    1    6    6    0  503 -0.31087245713E+03  0.11239920127E+03 -0.14650923268E+03  0.36158017134E+03  0.00000000000E+00 0.  1.
<mgrwt>
<rscale>  0 0.99808014E+03</rscale>
<asrwt>0</asrwt>
<pdfrwt beam="1">  1        2 0.39129938E-01 0.99808014E+03</pdfrwt>
<pdfrwt beam="2">  1       -2 0.15063815E+00 0.99808014E+03</pdfrwt>
<totfact> 0.39016468E+01</totfact>
</mgrwt>
</event>
<event>
12    3  0.4769008E-008  0.3197429E+04  0.7818608E-02  0.8189497E-01
         -2   -1    0    0    0  501 -0.00000000000E+00  0.00000000000E+00  0.16548232855E+04  0.16548232855E+04  0.00000000000E+00 0.  1.
          2   -1    0    0  501    0  0.00000000000E+00 -0.00000000000E+00 -0.15445078496E+04  0.15445078496E+04  0.00000000000E+00 0. -1.
         23    2    1    2    0    0 -0.75616431679E+03  0.19391979309E+02  0.13122416523E+04  0.15172954904E+04  0.89704672816E+02 0.  0.
        254    2    1    2    0    0  0.75616431679E+03 -0.19391979309E+02 -0.12019262164E+04  0.16820356447E+04  0.90136383187E+03 0.  0.
         23    2    4    4    0    0  0.30600126996E+03  0.67232243822E+02  0.64010880024E+02  0.33245441885E+03  0.90948315142E+02 0.  0.
         23    2    4    4    0    0  0.45016304683E+03 -0.86624223131E+02 -0.12659370965E+04  0.13495812258E+04  0.92855953868E+02 0.  0.
          2    1    3    3  502    0 -0.31319219476E+03 -0.25883520076E+02  0.60000462842E+03  0.67732183015E+03  0.00000000000E+00 0. -1.
         -2    1    3    3    0  502 -0.44297212203E+03  0.45275499385E+02  0.71223702390E+03  0.83997366027E+03  0.00000000000E+00 0.  1.
         13    1    5    5    0    0  0.23701511606E+03  0.78034124871E+02  0.20928854647E+02  0.25040668290E+03  0.00000000000E+00 0. -1.
        -13    1    5    5    0    0  0.68986153900E+02 -0.10801881049E+02  0.43082025377E+02  0.82047735951E+02  0.00000000000E+00 0.  1.
          3    1    6    6  503    0  0.27875270384E+03 -0.89399992622E+02 -0.87614060642E+03  0.92375201802E+03  0.00000000000E+00 0. -1.
         -3    1    6    6    0  503  0.17141034299E+03  0.27757694912E+01 -0.38979649004E+03  0.42582920781E+03  0.00000000000E+00 0.  1.
<mgrwt>
<rscale>  0 0.31974287E+04</rscale>
<asrwt>0</asrwt>
<pdfrwt beam="1">  1        2 0.23761659E+00 0.31974287E+04</pdfrwt>
<pdfrwt beam="2">  1       -2 0.25458820E+00 0.31974287E+04</pdfrwt>
<totfact> 0.60769848E-01</totfact>
</mgrwt>
</event>
<event>
12    3  0.4769008E-008  0.3339651E+04  0.7818608E-02  0.8152879E-01
          2   -1    0    0  501    0  0.00000000000E+00  0.00000000000E+00  0.12429386325E+04  0.12429386325E+04  0.00000000000E+00 0. -1.
         -2   -1    0    0    0  501 -0.00000000000E+00 -0.00000000000E+00 -0.22433261360E+04  0.22433261360E+04  0.00000000000E+00 0.  1.
         23    2    1    2    0    0 -0.50107070510E+03 -0.14195902776E+04 -0.15554014216E+03  0.15156948977E+04  0.82643084392E+02 0.  0.
        254    2    1    2    0    0  0.50107070510E+03  0.14195902776E+04 -0.84484736139E+03  0.19705698708E+04  0.95030002841E+03 0.  0.
         23    2    4    4    0    0  0.66418117458E+03  0.13662644708E+04 -0.55137122598E+03  0.16187235829E+04  0.91872587256E+02 0.  0.
         23    2    4    4    0    0 -0.16311046948E+03  0.53325806760E+02 -0.29347613541E+03  0.35184628786E+03  0.90658156308E+02 0.  0.
          4    1    3    3  502    0 -0.46465325637E+03 -0.13095597566E+04 -0.16548030353E+03  0.13993688347E+04  0.00000000000E+00 0. -1.
         -4    1    3    3    0  502 -0.36417448735E+02 -0.11003052097E+03  0.99401613665E+01  0.11632606296E+03  0.00000000000E+00 0.  1.
         13    1    5    5    0    0  0.74338246465E+02  0.22922503226E+03 -0.90375700772E+02  0.25736755349E+03  0.00000000000E+00 0. -1.
        -13    1    5    5    0    0  0.58984292812E+03  0.11370394385E+04 -0.46099552521E+03  0.13613560294E+04  0.00000000000E+00 0.  1.
          4    1    6    6  503    0 -0.30482538107E+02  0.38077720589E+02 -0.32220973938E+02  0.58457583736E+02  0.00000000000E+00 0. -1.
         -4    1    6    6    0  503 -0.13262793137E+03  0.15248086171E+02 -0.26125516147E+03  0.29338870412E+03  0.00000000000E+00 0.  1.
<mgrwt>
<rscale>  0 0.33396507E+04</rscale>
<asrwt>0</asrwt>
<pdfrwt beam="1">  1        2 0.19122133E+00 0.33396507E+04</pdfrwt>
<pdfrwt beam="2">  1       -2 0.34512710E+00 0.33396507E+04</pdfrwt>
<totfact> 0.24814836E-01</totfact>
</mgrwt>
</event>
<event>
12    3  0.4769008E-008  0.2329773E+04  0.7818608E-02  0.8466274E-01
         -2   -1    0    0    0  501 -0.00000000000E+00  0.00000000000E+00  0.38043809289E+03  0.38043809289E+03  0.00000000000E+00 0.  1.
          2   -1    0    0  501    0  0.00000000000E+00 -0.00000000000E+00 -0.35668365728E+04  0.35668365728E+04  0.00000000000E+00 0. -1.
         23    2    1    2    0    0  0.58025249112E+03 -0.66338756311E+03 -0.21226360161E+04  0.23003436892E+04  0.96028219504E+02 0.  0.
        254    2    1    2    0    0 -0.58025249112E+03  0.66338756311E+03 -0.10637624638E+04  0.16469309765E+04  0.89666886294E+03 0.  0.
         23    2    4    4    0    0 -0.23401629140E+02  0.50800839284E+03 -0.11053397067E+03  0.52857119217E+03  0.92463955547E+02 0.  0.
         23    2    4    4    0    0 -0.55685086198E+03  0.15537917027E+03 -0.95322849311E+03  0.11183597844E+04  0.88648057837E+02 0.  0.
          3    1    3    3  502    0  0.48555132294E+03 -0.60161751503E+03 -0.18284599910E+04  0.19851875630E+04  0.00000000000E+00 0. -1.
         -3    1    3    3    0  502  0.94701168173E+02 -0.61770048073E+02 -0.29417602513E+03  0.31515612615E+03  0.00000000000E+00 0.  1.
         13    1    5    5    0    0 -0.42701639753E+02  0.48120673053E+03 -0.11036168538E+03  0.49554318595E+03  0.00000000000E+00 0. -1.
        -13    1    5    5    0    0  0.19300010614E+02  0.26801662313E+02 -0.17228528710E+00  0.33028006217E+02  0.00000000000E+00 0.  1.
          3    1    6    6  503    0 -0.34890204486E+03  0.11074773346E+03 -0.67825665100E+03  0.77073327552E+03  0.00000000000E+00 0. -1.
         -3    1    6    6    0  503 -0.20794881712E+03  0.44631436806E+02 -0.27497184211E+03  0.34762650883E+03  0.00000000000E+00 0.  1.
<mgrwt>
<rscale>  0 0.23297730E+04</rscale>
<asrwt>0</asrwt>
<pdfrwt beam="1">  1        2 0.54874405E+00 0.23297730E+04</pdfrwt>
<pdfrwt beam="2">  1       -2 0.58528941E-01 0.23297730E+04</pdfrwt>
<totfact> 0.18050119E+00</totfact>
</mgrwt>
</event>
<event>
12    3  0.4769008E-008  0.1827295E+04  0.7818608E-02  0.8691917E-01
          2   -1    0    0  501    0  0.00000000000E+00  0.00000000000E+00  0.14212404570E+04  0.14212404570E+04  0.00000000000E+00 0. -1.
         -2   -1    0    0    0  501 -0.00000000000E+00 -0.00000000000E+00 -0.58734046566E+03  0.58734046566E+03  0.00000000000E+00 0.  1.
         23    2    1    2    0    0  0.10769950630E+03  0.67964794274E+03  0.33181567098E+03  0.76956020067E+03  0.92740245884E+02 0.  0.
        254    2    1    2    0    0 -0.10769950630E+03 -0.67964794274E+03  0.50208432040E+03  0.12390207220E+04  0.89975728679E+03 0.  0.
         23    2    4    4    0    0 -0.43266476121E+03 -0.65839878822E+03  0.34827662418E+03  0.86623606615E+03  0.91545373690E+02 0.  0.
         23    2    4    4    0    0  0.32496525490E+03 -0.21249154528E+02  0.15380769622E+03  0.37278465589E+03  0.96216676229E+02 0.  0.
          4    1    3    3  502    0  0.38341350609E+02  0.82358640865E+02  0.65076668827E+02  0.11174962066E+03  0.00000000000E+00 0. -1.
         -4    1    3    3    0  502  0.69358155692E+02  0.59728930188E+03  0.26673900216E+03  0.65781058001E+03  0.00000000000E+00 0.  1.
         13    1    5    5    0    0 -0.37758398496E+03 -0.60629936962E+03  0.29121876445E+03  0.77134749631E+03  0.00000000000E+00 0. -1.
        -13    1    5    5    0    0 -0.55080776246E+02 -0.52099418599E+02  0.57057859731E+02  0.94888569845E+02  0.00000000000E+00 0.  1.
          4    1    6    6  503    0  0.27253471480E+03 -0.40557188758E+01  0.16189129231E+03  0.31701799657E+03  0.00000000000E+00 0. -1.
         -4    1    6    6    0  503  0.52430540106E+02 -0.17193435652E+02 -0.80835960875E+01  0.55766659314E+02  0.00000000000E+00 0.  1.
<mgrwt>
<rscale>  0 0.18272953E+04</rscale>
<asrwt>0</asrwt>
<pdfrwt beam="1">  1        2 0.21865238E+00 0.18272953E+04</pdfrwt>
<pdfrwt beam="2">  1       -2 0.90360072E-01 0.18272953E+04</pdfrwt>
<totfact> 0.13880894E+01</totfact>
</mgrwt>
</event>
<event>
12    3  0.4769008E-008  0.2596864E+04  0.7818608E-02  0.8369267E-01
          2   -1    0    0  501    0  0.00000000000E+00  0.00000000000E+00  0.10838473795E+04  0.10838473795E+04  0.00000000000E+00 0. -1.
         -2   -1    0    0    0  501 -0.00000000000E+00 -0.00000000000E+00 -0.15555015568E+04  0.15555015568E+04  0.00000000000E+00 0.  1.
         23    2    1    2    0    0 -0.83179692934E+03 -0.71286912778E+02  0.58469756907E+03  0.10232076925E+04  0.90082068488E+02 0.  0.
        254    2    1    2    0    0  0.83179692934E+03  0.71286912778E+02 -0.10563517463E+04  0.16161412438E+04  0.89390466635E+03 0.  0.
         23    2    4    4    0    0  0.99797798224E+03  0.11201323599E+03 -0.76316327678E+03  0.12649230023E+04  0.95420105704E+02 0.  0.
         23    2    4    4    0    0 -0.16618105289E+03 -0.40726323211E+02 -0.29318846950E+03  0.35121824156E+03  0.90111036011E+02 0.  0.
          3    1    3    3  502    0 -0.28388039252E+03 -0.39882316833E+02  0.25013394379E+03  0.38045455220E+03  0.00000000000E+00 0. -1.
         -3    1    3    3    0  502 -0.54791653683E+03 -0.31404595945E+02  0.33456362528E+03  0.64275314028E+03  0.00000000000E+00 0.  1.
         13    1    5    5    0    0  0.87820072100E+03  0.94530334298E+02 -0.70749321215E+03  0.11316886214E+04  0.00000000000E+00 0. -1.
        -13    1    5    5    0    0  0.11977726124E+03  0.17482901691E+02 -0.55670064631E+02  0.13323438091E+03  0.00000000000E+00 0.  1.
          3    1    6    6  503    0 -0.17701476711E+03 -0.42714521896E+02 -0.28040870043E+03  0.33434682208E+03  0.00000000000E+00 0. -1.
         -3    1    6    6    0  503  0.10833714217E+02  0.19881986854E+01 -0.12779769068E+02  0.16871419477E+02  0.00000000000E+00 0.  1.
<mgrwt>
<rscale>  0 0.25968645E+04</rscale>
<asrwt>0</asrwt>
<pdfrwt beam="1">  1        2 0.16674575E+00 0.25968645E+04</pdfrwt>
<pdfrwt beam="2">  1       -2 0.23930793E+00 0.25968645E+04</pdfrwt>
<totfact> 0.14755659E+00</totfact>
</mgrwt>
</event>
<event>
12    3  0.4769008E-008  0.3219857E+04  0.7818608E-02  0.8183593E-01
         -1   -1    0    0    0  501 -0.00000000000E+00  0.00000000000E+00  0.17402896602E+04  0.17402896602E+04  0.00000000000E+00 0.  1.
          1   -1    0    0  501    0  0.00000000000E+00 -0.00000000000E+00 -0.14893326300E+04  0.14893326300E+04  0.00000000000E+00 0. -1.
         23    2    1    2    0    0  0.95844077406E+03 -0.18598686915E+03 -0.10035620732E+04  0.14033424732E+04  0.95044354925E+02 0.  0.
        254    2    1    2    0    0 -0.95844077406E+03  0.18598686915E+03  0.12545191033E+04  0.18262798170E+04  0.89904391245E+03 0.  0.
         23    2    4    4    0    0 -0.18765858650E+03 -0.32260404149E+03  0.50102628091E+03  0.63136182898E+03  0.91111537506E+02 0.  0.
         23    2    4    4    0    0 -0.77078218755E+03  0.50859091063E+03  0.75349282244E+03  0.11949179880E+04  0.85484908790E+02 0.  0.
          4    1    3    3  502    0  0.34704137863E+03 -0.99082649589E+02 -0.41897519572E+03  0.55298761700E+03  0.00000000000E+00 0. -1.
         -4    1    3    3    0  502  0.61139939543E+03 -0.86904219560E+02 -0.58458687748E+03  0.85035485618E+03  0.00000000000E+00 0.  1.
         13    1    5    5    0    0 -0.13063608259E+03 -0.13665131950E+03  0.22893675981E+03  0.29690302994E+03  0.00000000000E+00 0.  1.
        -13    1    5    5    0    0 -0.57022503912E+02 -0.18595272198E+03  0.27208952109E+03  0.33445879904E+03  0.00000000000E+00 0. -1.
          1    1    6    6  503    0 -0.71663751721E+03  0.47697230496E+03  0.72732663818E+03  0.11269764635E+04  0.00000000000E+00 0. -1.
         -1    1    6    6    0  503 -0.54144670348E+02  0.31618605674E+02  0.26166184255E+02  0.67941524492E+02  0.00000000000E+00 0.  1.
<mgrwt>
<rscale>  0 0.32198572E+04</rscale>
<asrwt>0</asrwt>
<pdfrwt beam="1">  1        1 0.22912810E+00 0.32198572E+04</pdfrwt>
<pdfrwt beam="2">  1       -1 0.26773687E+00 0.32198572E+04</pdfrwt>
<totfact> 0.29703220E-01</totfact>
</mgrwt>
</event>
<event>
12    3  0.4769008E-008  0.1651577E+04  0.7818608E-02  0.8789474E-01
         -2   -1    0    0    0  501 -0.00000000000E+00  0.00000000000E+00  0.79505950274E+03  0.79505950274E+03  0.00000000000E+00 0.  1.
          2   -1    0    0  501    0  0.00000000000E+00 -0.00000000000E+00 -0.85770471258E+03  0.85770471258E+03  0.00000000000E+00 0. -1.
         23    2    1    2    0    0 -0.19493092663E+03 -0.26508063686E+03 -0.50223693134E+03  0.60741689041E+03  0.91910463843E+02 0.  0.
        254    2    1    2    0    0  0.19493092663E+03  0.26508063686E+03  0.43959172150E+03  0.10453473249E+04  0.88951916105E+03 0.  0.
         23    2    4    4    0    0  0.40373578383E+03  0.40402554430E+03  0.60699686518E+02  0.58193767429E+03  0.93422594838E+02 0.  0.
         23    2    4    4    0    0 -0.20880485719E+03 -0.13894490744E+03  0.37889203498E+03  0.46340965061E+03  0.91017440181E+02 0.  0.
          3    1    3    3  502    0 -0.20410204310E+03 -0.24227890798E+03 -0.45954770413E+03  0.55815840550E+03  0.00000000000E+00 0. -1.
         -3    1    3    3    0  502  0.91711164678E+01 -0.22801728880E+02 -0.42689227206E+02  0.49258484920E+02  0.00000000000E+00 0.  1.
         13    1    5    5    0    0  0.75483980192E+02  0.11272873428E+03 -0.15345311789E+02  0.13653233094E+03  0.00000000000E+00 0. -1.
        -13    1    5    5    0    0  0.32825180363E+03  0.29129681002E+03  0.76044998307E+02  0.44540534335E+03  0.00000000000E+00 0.  1.
          1    1    6    6  503    0 -0.19165179616E+02 -0.51331096626E+02  0.11014837383E+03  0.12302377757E+03  0.00000000000E+00 0. -1.
         -1    1    6    6    0  503 -0.18963967758E+03 -0.87613810813E+02  0.26874366116E+03  0.34038587304E+03  0.00000000000E+00 0.  1.
<mgrwt>
<rscale>  0 0.16515766E+04</rscale>
<asrwt>0</asrwt>
<pdfrwt beam="1">  1        2 0.13195457E+00 0.16515766E+04</pdfrwt>
<pdfrwt beam="2">  1       -2 0.12231685E+00 0.16515766E+04</pdfrwt>
<totfact> 0.15158256E+01</totfact>
</mgrwt>
</event>
<event>
12    3  0.4769008E-008  0.2902044E+04  0.7818608E-02  0.8272269E-01
          2   -1    0    0  501    0  0.00000000000E+00  0.00000000000E+00  0.38650459646E+04  0.38650459646E+04  0.00000000000E+00 0. -1.
         -2   -1    0    0    0  501 -0.00000000000E+00 -0.00000000000E+00 -0.54474524706E+03  0.54474524706E+03  0.00000000000E+00 0.  1.
         23    2    1    2    0    0  0.10175722945E+04 -0.57974204284E+03  0.23420700507E+04  0.26201428862E+04  0.91117567227E+02 0.  0.
        254    2    1    2    0    0 -0.10175722945E+04  0.57974204284E+03  0.97823066685E+03  0.17896483254E+04  0.93506774106E+03 0.  0.
         23    2    4    4    0    0 -0.10856127878E+04  0.31549297756E+03  0.51825903334E+03  0.12469814237E+04  0.90990667491E+02 0.  0.
         23    2    4    4    0    0  0.68040493275E+02  0.26424906529E+03  0.45997163350E+03  0.54266690171E+03  0.91958606729E+02 0.  0.
          3    1    3    3  502    0  0.93199821318E+03 -0.50715337015E+03  0.20779710550E+04  0.23331928587E+04  0.00000000000E+00 0. -1.
         -3    1    3    3    0  502  0.85574081344E+02 -0.72588672698E+02  0.26409899564E+03  0.28695002753E+03  0.00000000000E+00 0.  1.
         13    1    5    5    0    0 -0.87398965695E+03  0.27895849663E+03  0.39033546911E+03  0.99701431371E+03  0.00000000000E+00 0. -1.
        -13    1    5    5    0    0 -0.21162313085E+03  0.36534480929E+02  0.12792356423E+03  0.24996711002E+03  0.00000000000E+00 0.  1.
          3    1    6    6  503    0  0.88234431371E+02  0.21184742415E+03  0.33998210172E+03  0.41018590357E+03  0.00000000000E+00 0. -1.
         -3    1    6    6    0  503 -0.20193938096E+02  0.52401641132E+02  0.11998953178E+03  0.13248099814E+03  0.00000000000E+00 0.  1.
<mgrwt>
<rscale>  0 0.29020444E+04</rscale>
<asrwt>0</asrwt>
<pdfrwt beam="1">  1        2 0.59462244E+00 0.29020444E+04</pdfrwt>
<pdfrwt beam="2">  1       -2 0.83806963E-01 0.29020444E+04</pdfrwt>
<totfact> 0.46991555E-01</totfact>
</mgrwt>
</event>
<event>
12    3  0.4769008E-008  0.1799093E+04  0.7818608E-02  0.8706782E-01
         -3   -1    0    0    0  501 -0.00000000000E+00  0.00000000000E+00  0.69070247121E+03  0.69070247121E+03  0.00000000000E+00 0.  1.
          3   -1    0    0  501    0  0.00000000000E+00 -0.00000000000E+00 -0.11715375746E+04  0.11715375746E+04  0.00000000000E+00 0. -1.
         23    2    1    2    0    0 -0.61785768594E+03  0.12927380681E+03 -0.36616172961E+03  0.73477381312E+03  0.85780574794E+02 0.  0.
        254    2    1    2    0    0  0.61785768594E+03 -0.12927380681E+03 -0.11467337381E+03  0.11274662327E+04  0.92713013437E+03 0.  0.
         23    2    4    4    0    0  0.29136523116E+03 -0.74203657429E+02 -0.51297443687E+03  0.60153403428E+03  0.91107303840E+02 0.  0.
         23    2    4    4    0    0  0.32649245478E+03 -0.55070149382E+02  0.39830106306E+03  0.52593219844E+03  0.91273742847E+02 0.  0.
          4    1    3    3  502    0 -0.67024102664E+02  0.26373043818E+02 -0.15307807504E+02  0.73634888122E+02  0.00000000000E+00 0. -1.
         -4    1    3    3    0  502 -0.55083358328E+03  0.10290076299E+03 -0.35085392211E+03  0.66113892500E+03  0.00000000000E+00 0.  1.
         13    1    5    5    0    0  0.79213184560E+02  0.11728294532E+02 -0.89030205755E+02  0.11974413989E+03  0.00000000000E+00 0. -1.
        -13    1    5    5    0    0  0.21215204660E+03 -0.85931951961E+02 -0.42394423112E+03  0.48178989440E+03  0.00000000000E+00 0.  1.
          3    1    6    6  503    0  0.18367930663E+02 -0.13982874356E+02  0.33541977087E+01  0.23327072135E+02  0.00000000000E+00 0. -1.
         -3    1    6    6    0  503  0.30812452412E+03 -0.41087275026E+02  0.39494686535E+03  0.50260512630E+03  0.00000000000E+00 0.  1.
<mgrwt>
<rscale>  0 0.17990930E+04</rscale>
<asrwt>0</asrwt>
<pdfrwt beam="1">  1        3 0.18023655E+00 0.17990930E+04</pdfrwt>
<pdfrwt beam="2">  1       -3 0.10626192E+00 0.17990930E+04</pdfrwt>
<totfact> 0.36998476E-01</totfact>
</mgrwt>
</event>
<event>
12    3  0.4769008E-008  0.2498472E+04  0.7818608E-02  0.8403530E-01
         -2   -1    0    0    0  501 -0.00000000000E+00  0.00000000000E+00  0.98068490625E+03  0.98068490625E+03  0.00000000000E+00 0.  1.
          2   -1    0    0  501    0  0.00000000000E+00 -0.00000000000E+00 -0.15913269639E+04  0.15913269639E+04  0.00000000000E+00 0. -1.
         23    2    1    2    0    0  0.76781683488E+03  0.76808896744E+03 -0.28594834051E+03  0.11267701689E+04  0.91330204528E+02 0.  0.
        254    2    1    2    0    0 -0.76781683488E+03 -0.76808896744E+03 -0.32469371717E+03  0.14452417013E+04  0.89654571066E+03 0.  0.
         23    2    4    4    0    0 -0.50519152046E+03 -0.43954497430E+03  0.25571467917E+03  0.72259253447E+03  0.91278239156E+02 0.  0.
         23    2    4    4    0    0 -0.26262531441E+03 -0.32854399315E+03 -0.58040839634E+03  0.72264916681E+03  0.91840625799E+02 0.  0.
          1    1    3    3  502    0  0.73929890961E+03  0.75988795567E+03 -0.27694090525E+03  0.10957594845E+04  0.00000000000E+00 0. -1.
         -1    1    3    3    0  502  0.28517925270E+02  0.82010117741E+01 -0.90074352629E+01  0.31010684382E+02  0.00000000000E+00 0.  1.
         13    1    5    5    0    0 -0.29652564412E+03 -0.19983726682E+03  0.12225541271E+03  0.37790048527E+03  0.00000000000E+00 0.  1.
        -13    1    5    5    0    0 -0.20866587635E+03 -0.23970770748E+03  0.13345926646E+03  0.34469204920E+03  0.00000000000E+00 0. -1.
          3    1    6    6  503    0 -0.76650313030E+02 -0.71771330789E+02 -0.88025576793E+02  0.13702151868E+03  0.00000000000E+00 0. -1.
         -3    1    6    6    0  503 -0.18597500138E+03 -0.25677266236E+03 -0.49238281955E+03  0.58562764813E+03  0.00000000000E+00 0.  1.
<mgrwt>
<rscale>  0 0.24984718E+04</rscale>
<asrwt>0</asrwt>
<pdfrwt beam="1">  1        2 0.24481953E+00 0.24984718E+04</pdfrwt>
<pdfrwt beam="2">  1       -2 0.15087460E+00 0.24984718E+04</pdfrwt>
<totfact> 0.29682650E+00</totfact>
</mgrwt>
</event>
<event>
12    3  0.4769008E-008  0.1430356E+04  0.7818608E-02  0.8932134E-01
          1   -1    0    0  501    0  0.00000000000E+00  0.00000000000E+00  0.88846814634E+03  0.88846814634E+03  0.00000000000E+00 0. -1.
         -1   -1    0    0    0  501 -0.00000000000E+00 -0.00000000000E+00 -0.57568694087E+03  0.57568694087E+03  0.00000000000E+00 0.  1.
         23    2    1    2    0    0  0.27870760776E+03  0.18723978306E+02  0.43025384558E+03  0.52161077757E+03  0.94503511313E+02 0.  0.
        254    2    1    2    0    0 -0.27870760776E+03 -0.18723978306E+02 -0.11747264011E+03  0.94254430965E+03  0.89250290559E+03 0.  0.
         23    2    4    4    0    0 -0.54694547572E+03 -0.94742111211E+02 -0.25585536808E+03  0.61821723146E+03  0.92763973930E+02 0.  0.
         23    2    4    4    0    0  0.26823786795E+03  0.76018132905E+02  0.13838272797E+03  0.32432707819E+03  0.91148032947E+02 0.  0.
          4    1    3    3  502    0  0.47859842384E+02  0.75679034251E+01  0.23663365431E+02  0.53923951439E+02  0.00000000000E+00 0.  1.
         -4    1    3    3    0  502  0.23084776538E+03  0.11156074881E+02  0.40659048015E+03  0.46768682613E+03  0.00000000000E+00 0. -1.
         13    1    5    5    0    0 -0.90213099297E+02  0.38448011945E+01 -0.74293386883E+02  0.11693029169E+03  0.00000000000E+00 0.  1.
        -13    1    5    5    0    0 -0.45673237642E+03 -0.98586912405E+02 -0.18156198120E+03  0.50128693977E+03  0.00000000000E+00 0. -1.
          2    1    6    6  503    0  0.25370769504E+03  0.51227938102E+02  0.10256774073E+03  0.27840983748E+03  0.00000000000E+00 0. -1.
         -2    1    6    6    0  503  0.14530172912E+02  0.24790194803E+02  0.35814987245E+02  0.45917240712E+02  0.00000000000E+00 0.  1.
<mgrwt>
<rscale>  0 0.14303559E+04</rscale>
<asrwt>0</asrwt>
<pdfrwt beam="1">  1        1 0.13668741E+00 0.14303559E+04</pdfrwt>
<pdfrwt beam="2">  1       -1 0.88567222E-01 0.14303559E+04</pdfrwt>
<totfact> 0.22649194E+01</totfact>
</mgrwt>
</event>
<event>
12    3  0.4769008E-008  0.2008766E+04  0.7818608E-02  0.8602533E-01
         -2   -1    0    0    0  501 -0.00000000000E+00  0.00000000000E+00  0.19088983763E+04  0.19088983763E+04  0.00000000000E+00 0.  1.
          2   -1    0    0  501    0  0.00000000000E+00 -0.00000000000E+00 -0.52846468839E+03  0.52846468839E+03  0.00000000000E+00 0. -1.
         23    2    1    2    0    0  0.42468931927E+03  0.26016502034E+03 -0.20402062288E+03  0.54561399079E+03  0.89573191678E+02 0.  0.
        254    2    1    2    0    0 -0.42468931927E+03 -0.26016502034E+03  0.15844543108E+04  0.18917490739E+04  0.90563361240E+03 0.  0.
         23    2    4    4    0    0 -0.20393853658E+03  0.21608585844E+03  0.11873141570E+04  0.12271427340E+04  0.88771376303E+02 0.  0.
         23    2    4    4    0    0 -0.22075078269E+03 -0.47625087879E+03  0.39714015382E+03  0.66460633994E+03  0.91844856718E+02 0.  0.
          1    1    3    3  502    0  0.39099080814E+03  0.20839676701E+03 -0.19105023217E+03  0.48249685570E+03  0.00000000000E+00 0. -1.
         -1    1    3    3    0  502  0.33698511128E+02  0.51768253337E+02 -0.12970390710E+02  0.63117135082E+02  0.00000000000E+00 0.  1.
         13    1    5    5    0    0 -0.50024059556E+02  0.91680117174E+02  0.54925654377E+03  0.55909784590E+03  0.00000000000E+00 0.  1.
        -13    1    5    5    0    0 -0.15391447703E+03  0.12440574127E+03  0.63805761323E+03  0.66804488809E+03  0.00000000000E+00 0. -1.
          1    1    6    6  503    0  0.34746243672E+01 -0.32267508446E+02  0.43675270555E+02  0.54413181986E+02  0.00000000000E+00 0. -1.
         -1    1    6    6    0  503 -0.22422540706E+03 -0.44398337034E+03  0.35346488327E+03  0.61019315795E+03  0.00000000000E+00 0.  1.
<mgrwt>
<rscale>  0 0.20087662E+04</rscale>
<asrwt>0</asrwt>
<pdfrwt beam="1">  1        2 0.81302260E-01 0.20087662E+04</pdfrwt>
<pdfrwt beam="2">  1       -2 0.29367667E+00 0.20087662E+04</pdfrwt>
<totfact> 0.18632290E+00</totfact>
</mgrwt>
</event>
<event>
12    3  0.4769008E-008  0.2284554E+04  0.7818608E-02  0.8484036E-01
         -2   -1    0    0    0  501 -0.00000000000E+00  0.00000000000E+00  0.12507440407E+04  0.12507440407E+04  0.00000000000E+00 0. -1.
          2   -1    0    0  501    0  0.00000000000E+00 -0.00000000000E+00 -0.10432160418E+04  0.10432160418E+04  0.00000000000E+00 0.  1.
         23    2    1    2    0    0  0.48957626353E+03 -0.17245511349E+03  0.87817293196E+03  0.10239530177E+04  0.88692728154E+02 0.  0.
        254    2    1    2    0    0 -0.48957626353E+03  0.17245511349E+03 -0.67064493311E+03  0.12700070648E+04  0.94537169114E+03 0.  0.
         23    2    4    4    0    0 -0.26537821120E+03 -0.32616404747E+03 -0.55572229047E+03  0.70276626885E+03  0.90799689776E+02 0.  0.
         23    2    4    4    0    0 -0.22419805233E+03  0.49861916096E+03 -0.11492264264E+03  0.56724079598E+03  0.98331442001E+02 0.  0.
          3    1    3    3  502    0  0.70479622980E+02 -0.45963215611E+02  0.96409237402E+02  0.12796380543E+03  0.00000000000E+00 0.  1.
         -3    1    3    3    0  502  0.41909664055E+03 -0.12649189788E+03  0.78176369455E+03  0.89598921225E+03  0.00000000000E+00 0. -1.
         13    1    5    5    0    0 -0.22434611907E+03 -0.24057146538E+03 -0.37648457052E+03  0.49994644007E+03  0.00000000000E+00 0. -1.
        -13    1    5    5    0    0 -0.41032092131E+02 -0.85592582093E+02 -0.17923771995E+03  0.20281982879E+03  0.00000000000E+00 0.  1.
          3    1    6    6  503    0 -0.77520776761E+01  0.10840615211E+03 -0.32792144315E+02  0.11352230288E+03  0.00000000000E+00 0. -1.
         -3    1    6    6    0  503 -0.21644597465E+03  0.39021300885E+03 -0.82130498326E+02  0.45371849309E+03  0.00000000000E+00 0.  1.
<mgrwt>
<rscale>  0 0.22845536E+04</rscale>
<asrwt>0</asrwt>
<pdfrwt beam="1">  1        2 0.16049478E+00 0.22845536E+04</pdfrwt>
<pdfrwt beam="2">  1       -2 0.19242216E+00 0.22845536E+04</pdfrwt>
<totfact> 0.32036892E+00</totfact>
</mgrwt>
</event>
<event>
12    3  0.4769008E-008  0.1939432E+04  0.7818608E-02  0.8635474E-01
         -1   -1    0    0    0  501 -0.00000000000E+00  0.00000000000E+00  0.15580064042E+04  0.15580064042E+04  0.00000000000E+00 0.  1.
          1   -1    0    0  501    0  0.00000000000E+00 -0.00000000000E+00 -0.60355929314E+03  0.60355929314E+03  0.00000000000E+00 0. -1.
         23    2    1    2    0    0 -0.33040277393E+03 -0.58589739224E+02  0.11277996938E+04  0.11803337815E+04  0.93042655073E+02 0.  0.
        254    2    1    2    0    0  0.33040277393E+03  0.58589739224E+02 -0.17335258283E+03  0.98123191583E+03  0.90563028003E+03 0.  0.
         23    2    4    4    0    0  0.12141233854E+03  0.19137818013E+03  0.33166908207E+03  0.41170323546E+03  0.90158806056E+02 0.  0.
         23    2    4    4    0    0  0.20899043539E+03 -0.13278844090E+03 -0.50502166490E+03  0.56952868037E+03  0.89477726928E+02 0.  0.
          3    1    3    3  502    0 -0.11898047420E+02  0.15895433425E+02  0.91808335572E+02  0.93930819312E+02  0.00000000000E+00 0. -1.
         -3    1    3    3    0  502 -0.31850472651E+03 -0.74485172649E+02  0.10359913583E+04  0.10864029622E+04  0.00000000000E+00 0.  1.
         13    1    5    5    0    0  0.64173053934E+02  0.17070212063E+03  0.26163773127E+03  0.31892271362E+03  0.00000000000E+00 0. -1.
        -13    1    5    5    0    0  0.57239284603E+02  0.20676059499E+02  0.70031350808E+02  0.92780521848E+02  0.00000000000E+00 0.  1.
          1    1    6    6  503    0  0.67363986379E+02 -0.76105177754E+02 -0.13256816899E+03  0.16704557513E+03  0.00000000000E+00 0. -1.
         -1    1    6    6    0  503  0.14162644901E+03 -0.56683263149E+02 -0.37245349592E+03  0.40248310524E+03  0.00000000000E+00 0.  1.
<mgrwt>
<rscale>  0 0.19394321E+04</rscale>
<asrwt>0</asrwt>
<pdfrwt beam="1">  1        1 0.92855277E-01 0.19394321E+04</pdfrwt>
<pdfrwt beam="2">  1       -1 0.23969329E+00 0.19394321E+04</pdfrwt>
<totfact> 0.25788456E+00</totfact>
</mgrwt>
</event>
<event>
12    3  0.4769008E-008  0.1953622E+04  0.7818608E-02  0.8628616E-01
         -1   -1    0    0    0  501 -0.00000000000E+00  0.00000000000E+00  0.36232441932E+03  0.36232441932E+03  0.00000000000E+00 0.  1.
          1   -1    0    0  501    0  0.00000000000E+00 -0.00000000000E+00 -0.26334402289E+04  0.26334402289E+04  0.00000000000E+00 0. -1.
         23    2    1    2    0    0  0.20755548089E+03  0.28722881801E+03 -0.18655583347E+04  0.19011147135E+04  0.91376047122E+02 0.  0.
        254    2    1    2    0    0 -0.20755548089E+03 -0.28722881801E+03 -0.40555747483E+03  0.10946499347E+04  0.95299629729E+03 0.  0.
         23    2    4    4    0    0 -0.34590459063E+02  0.30713429740E+03  0.42930533060E+02  0.32504564732E+03  0.91014645381E+02 0.  0.
         23    2    4    4    0    0 -0.17296502183E+03 -0.59436311541E+03 -0.44848800789E+03  0.76960428740E+03  0.89246031987E+02 0.  0.
          2    1    3    3  502    0  0.83804951294E+02  0.19236933121E+03 -0.11017426366E+04  0.11215462838E+04  0.00000000000E+00 0. -1.
         -2    1    3    3    0  502  0.12375052959E+03  0.94859486805E+02 -0.76381569816E+03  0.77956842969E+03  0.00000000000E+00 0.  1.
         13    1    5    5    0    0 -0.47888011020E+02  0.27056546007E+03  0.11475144190E+02  0.27501019748E+03  0.00000000000E+00 0.  1.
        -13    1    5    5    0    0  0.13297551957E+02  0.36568837329E+02  0.31455388870E+02  0.50035449840E+02  0.00000000000E+00 0. -1.
          2    1    6    6  503    0 -0.72692289567E+02 -0.12907799359E+03 -0.85728586847E+02  0.17115691045E+03  0.00000000000E+00 0. -1.
         -2    1    6    6    0  503 -0.10027273226E+03 -0.46528512182E+03 -0.36275942104E+03  0.59844737695E+03  0.00000000000E+00 0.  1.
<mgrwt>
<rscale>  0 0.19536220E+04</rscale>
<asrwt>0</asrwt>
<pdfrwt beam="1">  1        1 0.40514464E+00 0.19536220E+04</pdfrwt>
<pdfrwt beam="2">  1       -1 0.55742219E-01 0.19536220E+04</pdfrwt>
<totfact> 0.33172202E+00</totfact>
</mgrwt>
</event>
<event>
12    3  0.4769008E-008  0.1167117E+04  0.7818608E-02  0.9142136E-01
          2   -1    0    0  501    0  0.00000000000E+00  0.00000000000E+00  0.26654561497E+03  0.26654561497E+03  0.00000000000E+00 0.  1.
         -2   -1    0    0    0  501 -0.00000000000E+00 -0.00000000000E+00 -0.12776062022E+04  0.12776062022E+04  0.00000000000E+00 0. -1.
         23    2    1    2    0    0 -0.10517041491E+02  0.15603913577E+03  0.22202347710E+02  0.18221553875E+03  0.90833574546E+02 0.  0.
        254    2    1    2    0    0  0.10517041491E+02 -0.15603913577E+03 -0.10332629350E+04  0.13619362784E+04  0.87337237975E+03 0.  0.
         23    2    4    4    0    0 -0.33397506313E+03  0.12033577925E+03 -0.73189771042E+03  0.81933526065E+03  0.98061043571E+02 0.  0.
         23    2    4    4    0    0  0.34449210462E+03 -0.27637491502E+03 -0.30136522454E+03  0.54260101778E+03  0.92395682469E+02 0.  0.
          4    1    3    3  502    0 -0.32504697078E+02  0.15587677176E+02 -0.78924971630E+01  0.36902879607E+02  0.00000000000E+00 0. -1.
         -4    1    3    3    0  502  0.21987655587E+02  0.14045145859E+03  0.30094844873E+02  0.14531265914E+03  0.00000000000E+00 0.  1.
         13    1    5    5    0    0 -0.31176892637E+03  0.13654710616E+03 -0.66597369687E+03  0.74790770859E+03  0.00000000000E+00 0. -1.
        -13    1    5    5    0    0 -0.22206136757E+02 -0.16211326914E+02 -0.65924013552E+02  0.71427552057E+02  0.00000000000E+00 0.  1.
          3    1    6    6  503    0  0.17841943780E+03 -0.15855553684E+03 -0.21562823948E+03  0.32166580749E+03  0.00000000000E+00 0. -1.
         -3    1    6    6    0  503  0.16607266682E+03 -0.11781937818E+03 -0.85736985060E+02  0.22093521029E+03  0.00000000000E+00 0.  1.
<mgrwt>
<rscale>  0 0.11671167E+04</rscale>
<asrwt>0</asrwt>
<pdfrwt beam="1">  1        2 0.41007018E-01 0.11671167E+04</pdfrwt>
<pdfrwt beam="2">  1       -2 0.19655480E+00 0.11671167E+04</pdfrwt>
<totfact> 0.17351755E+01</totfact>
</mgrwt>
</event>
<event>
12    3  0.4769008E-008  0.1375870E+04  0.7818608E-02  0.8971473E-01
          2   -1    0    0  501    0  0.00000000000E+00  0.00000000000E+00  0.31838660509E+03  0.31838660509E+03  0.00000000000E+00 0. -1.
         -2   -1    0    0    0  501 -0.00000000000E+00 -0.00000000000E+00 -0.14864149045E+04  0.14864149045E+04  0.00000000000E+00 0.  1.
         23    2    1    2    0    0 -0.27528520300E+03  0.15375812271E+03 -0.43349641679E+02  0.33047696708E+03  0.88951284702E+02 0.  0.
        254    2    1    2    0    0  0.27528520300E+03 -0.15375812271E+03 -0.11246786577E+04  0.14743245425E+04  0.89961506777E+03 0.  0.
         23    2    4    4    0    0  0.42657261223E+03 -0.19931441082E+03 -0.11873490344E+04  0.12806392060E+04  0.92458740381E+02 0.  0.
         23    2    4    4    0    0 -0.15128740924E+03  0.45556288117E+02  0.62670376679E+02  0.19368533645E+03  0.92861067537E+02 0.  0.
          2    1    3    3  502    0 -0.24947558297E+03  0.10610609714E+03 -0.21192316511E+02  0.27192955821E+03  0.00000000000E+00 0. -1.
         -2    1    3    3    0  502 -0.25809620022E+02  0.47652025572E+02 -0.22157325168E+02  0.58547408870E+02  0.00000000000E+00 0.  1.
         13    1    5    5    0    0  0.13651344279E+03 -0.18048650802E+02 -0.35215923914E+03  0.37812405844E+03  0.00000000000E+00 0.  1.
        -13    1    5    5    0    0  0.29005916944E+03 -0.18126576002E+03 -0.83518979526E+03  0.90251514759E+03  0.00000000000E+00 0. -1.
          4    1    6    6  503    0 -0.26256355014E+02  0.38918196983E+02 -0.11262920484E+02  0.48279142627E+02  0.00000000000E+00 0. -1.
         -4    1    6    6    0  503 -0.12503105422E+03  0.66380911335E+01  0.73933297163E+02  0.14540619383E+03  0.00000000000E+00 0.  1.
<mgrwt>
<rscale>  0 0.13758700E+04</rscale>
<asrwt>0</asrwt>
<pdfrwt beam="1">  1        2 0.48982556E-01 0.13758700E+04</pdfrwt>
<pdfrwt beam="2">  1       -2 0.22867921E+00 0.13758700E+04</pdfrwt>
<totfact> 0.87293990E+00</totfact>
</mgrwt>
</event>
<event>
12    3  0.4769008E-008  0.1956775E+04  0.7818608E-02  0.8627101E-01
          2   -1    0    0  501    0  0.00000000000E+00  0.00000000000E+00  0.10961877562E+04  0.10961877562E+04  0.00000000000E+00 0. -1.
         -2   -1    0    0    0  501 -0.00000000000E+00 -0.00000000000E+00 -0.87324674888E+03  0.87324674888E+03  0.00000000000E+00 0.  1.
         23    2    1    2    0    0  0.11989103173E+03 -0.18523683407E+03 -0.65099702127E+03  0.69326801048E+03  0.90204592205E+02 0.  0.
        254    2    1    2    0    0 -0.11989103173E+03  0.18523683407E+03  0.87393802861E+03  0.12761664946E+04  0.90340837939E+03 0.  0.
         23    2    4    4    0    0 -0.39965268278E+03 -0.17633831042E+03  0.55192591451E+03  0.70963403716E+03  0.90226298909E+02 0.  0.
         23    2    4    4    0    0  0.27976165105E+03  0.36157514449E+03  0.32201211410E+03  0.56653245745E+03  0.90906860114E+02 0.  0.
          2    1    3    3  502    0  0.71564626325E+02 -0.37533061303E+02 -0.26875832209E+03  0.28064436949E+03  0.00000000000E+00 0. -1.
         -2    1    3    3    0  502  0.48326405409E+02 -0.14770377277E+03 -0.38223869918E+03  0.41262364099E+03  0.00000000000E+00 0.  1.
         13    1    5    5    0    0 -0.22084211682E+02  0.22464112421E+01  0.74620863160E+01  0.23418827923E+02  0.00000000000E+00 0. -1.
        -13    1    5    5    0    0 -0.37756847110E+03 -0.17858472166E+03  0.54446382820E+03  0.68621520924E+03  0.00000000000E+00 0.  1.
          4    1    6    6  503    0  0.14465384874E+03  0.23713086691E+03  0.23232853906E+03  0.36212198782E+03  0.00000000000E+00 0. -1.
         -4    1    6    6    0  503  0.13510780231E+03  0.12444427758E+03  0.89683575033E+02  0.20441046964E+03  0.00000000000E+00 0.  1.
<mgrwt>
<rscale>  0 0.19567753E+04</rscale>
<asrwt>0</asrwt>
<pdfrwt beam="1">  1        2 0.16864427E+00 0.19567753E+04</pdfrwt>
<pdfrwt beam="2">  1       -2 0.13434565E+00 0.19567753E+04</pdfrwt>
<totfact> 0.81579198E+00</totfact>
</mgrwt>
</event>
<event>
12    3  0.4769008E-008  0.2189678E+04  0.7818608E-02  0.8522737E-01
          2   -1    0    0  501    0  0.00000000000E+00  0.00000000000E+00  0.12739324530E+04  0.12739324530E+04  0.00000000000E+00 0. -1.
         -2   -1    0    0    0  501 -0.00000000000E+00 -0.00000000000E+00 -0.94092297642E+03  0.94092297642E+03  0.00000000000E+00 0.  1.
         23    2    1    2    0    0  0.36854337163E+03  0.27554254026E+03 -0.65036271073E+03  0.80164486626E+03  0.88965880143E+02 0.  0.
        254    2    1    2    0    0 -0.36854337163E+03 -0.27554254026E+03  0.98337218727E+03  0.14132105631E+04  0.90465204846E+03 0.  0.
         23    2    4    4    0    0 -0.10967651154E+03 -0.52479902175E+03  0.86476291409E+03  0.10215276423E+04  0.90889361256E+02 0.  0.
         23    2    4    4    0    0 -0.25886686009E+03  0.24925648148E+03  0.11860927318E+03  0.39168292083E+03  0.10102725360E+03 0.  0.
          2    1    3    3  502    0 -0.44569485156E+01  0.29835512717E+01 -0.24390320619E+01  0.58919305546E+01  0.00000000000E+00 0. -1.
         -2    1    3    3    0  502  0.37300032015E+03  0.27255898899E+03 -0.64792367867E+03  0.79575293571E+03  0.00000000000E+00 0.  1.
         13    1    5    5    0    0 -0.20832503752E+02 -0.28468239584E+03  0.40864108376E+03  0.49846323340E+03  0.00000000000E+00 0. -1.
        -13    1    5    5    0    0 -0.88844007785E+02 -0.24011662590E+03  0.45612183032E+03  0.52306440889E+03  0.00000000000E+00 0.  1.
          2    1    6    6  503    0 -0.49272168091E+02  0.18462701935E+02  0.49736084795E+02  0.72403701852E+02  0.00000000000E+00 0. -1.
         -2    1    6    6    0  503 -0.20959469200E+03  0.23079377955E+03  0.68873188390E+02  0.31927921898E+03  0.00000000000E+00 0.  1.
<mgrwt>
<rscale>  0 0.21896779E+04</rscale>
<asrwt>0</asrwt>
<pdfrwt beam="1">  1        2 0.19598961E+00 0.21896779E+04</pdfrwt>
<pdfrwt beam="2">  1       -2 0.14475738E+00 0.21896779E+04</pdfrwt>
<totfact> 0.51561418E+00</totfact>
</mgrwt>
</event>
<event>
12    3  0.4769008E-008  0.1421773E+04  0.7818608E-02  0.8938207E-01
         -1   -1    0    0    0  501 -0.00000000000E+00  0.00000000000E+00  0.42498097407E+03  0.42498097407E+03  0.00000000000E+00 0.  1.
          1   -1    0    0  501    0  0.00000000000E+00 -0.00000000000E+00 -0.11891353976E+04  0.11891353976E+04  0.00000000000E+00 0. -1.
         23    2    1    2    0    0  0.95204532915E+02 -0.47405421269E+02 -0.68038521778E+03  0.69687881259E+03  0.10679352888E+03 0.  0.
        254    2    1    2    0    0 -0.95204532915E+02  0.47405421269E+02 -0.83769205799E+02  0.91723755913E+03  0.90719142577E+03 0.  0.
         23    2    4    4    0    0 -0.14146254758E+03 -0.15179480761E+03  0.35715043602E+03  0.42279293768E+03  0.90244768362E+02 0.  0.
         23    2    4    4    0    0  0.46258014666E+02  0.19920022887E+03 -0.44091964182E+03  0.49444462145E+03  0.90800980351E+02 0.  0.
          2    1    3    3  502    0  0.10065791346E+03 -0.68028119185E+02 -0.63759339643E+03  0.64906485016E+03  0.00000000000E+00 0. -1.
         -2    1    3    3    0  502 -0.54533805492E+01  0.20622697916E+02 -0.42791821348E+02  0.47813962427E+02  0.00000000000E+00 0.  1.
         13    1    5    5    0    0  0.10827308960E+02 -0.54698559827E+01  0.39670738905E+02  0.41483942304E+02  0.00000000000E+00 0.  1.
        -13    1    5    5    0    0 -0.15228985654E+03 -0.14632495162E+03  0.31747969712E+03  0.38130899538E+03  0.00000000000E+00 0. -1.
          2    1    6    6  503    0  0.67547285328E+02  0.93016376516E+02 -0.21048229298E+03  0.23982801695E+03  0.00000000000E+00 0. -1.
         -2    1    6    6    0  503 -0.21289270661E+02  0.10618385236E+03 -0.23043734884E+03  0.25461660450E+03  0.00000000000E+00 0.  1.
<mgrwt>
<rscale>  0 0.14217734E+04</rscale>
<asrwt>0</asrwt>
<pdfrwt beam="1">  1        1 0.18294390E+00 0.14217734E+04</pdfrwt>
<pdfrwt beam="2">  1       -1 0.65381690E-01 0.14217734E+04</pdfrwt>
<totfact> 0.25123767E+01</totfact>
</mgrwt>
</event>
<event>
12    3  0.4769008E-008  0.1946764E+04  0.7818608E-02  0.8631923E-01
          2   -1    0    0  501    0  0.00000000000E+00  0.00000000000E+00  0.18888715152E+04  0.18888715152E+04  0.00000000000E+00 0. -1.
         -2   -1    0    0    0  501 -0.00000000000E+00 -0.00000000000E+00 -0.50160750762E+03  0.50160750762E+03  0.00000000000E+00 0.  1.
         23    2    1    2    0    0  0.66759300821E+03  0.36585894644E+03  0.60905217434E+03  0.97931742480E+03  0.92654595945E+02 0.  0.
        254    2    1    2    0    0 -0.66759300821E+03 -0.36585894644E+03  0.77821183329E+03  0.14111615981E+04  0.89790322702E+03 0.  0.
         23    2    4    4    0    0 -0.35042553733E+03 -0.60118576352E+03  0.71357464092E+03  0.10008941185E+04  0.91530808096E+02 0.  0.
         23    2    4    4    0    0 -0.31716747087E+03  0.23532681708E+03  0.64637192363E+02  0.41026747955E+03  0.90374347712E+02 0.  0.
          3    1    3    3  502    0  0.20612145224E+03  0.83986817876E+02  0.13585730805E+03  0.26076243365E+03  0.00000000000E+00 0. -1.
         -3    1    3    3    0  502  0.46147155596E+03  0.28187212856E+03  0.47319486628E+03  0.71855499114E+03  0.00000000000E+00 0.  1.
         13    1    5    5    0    0 -0.30116127292E+03 -0.56299154053E+03  0.66477664056E+03  0.92172966148E+03  0.00000000000E+00 0. -1.
        -13    1    5    5    0    0 -0.49264264415E+02 -0.38194222990E+02  0.48798000362E+02  0.79164457034E+02  0.00000000000E+00 0.  1.
          3    1    6    6  503    0 -0.26136051613E+03  0.23047800980E+03  0.47514127988E+02  0.35169166148E+03  0.00000000000E+00 0. -1.
         -3    1    6    6    0  503 -0.55806954743E+02  0.48488072809E+01  0.17123064376E+02  0.58575818077E+02  0.00000000000E+00 0.  1.
<mgrwt>
<rscale>  0 0.19467636E+04</rscale>
<asrwt>0</asrwt>
<pdfrwt beam="1">  1        2 0.29059561E+00 0.19467636E+04</pdfrwt>
<pdfrwt beam="2">  1       -2 0.77170387E-01 0.19467636E+04</pdfrwt>
<totfact> 0.10768508E+01</totfact>
</mgrwt>
</event>
<event>
12    3  0.4769008E-008  0.2564010E+04  0.7818608E-02  0.8380530E-01
          2   -1    0    0  501    0  0.00000000000E+00  0.00000000000E+00  0.70500582633E+03  0.70500582633E+03  0.00000000000E+00 0. -1.
         -2   -1    0    0    0  501 -0.00000000000E+00 -0.00000000000E+00 -0.23312383050E+04  0.23312383050E+04  0.00000000000E+00 0.  1.
         23    2    1    2    0    0  0.79728783186E+02 -0.16170067736E+02  0.59951365821E+03  0.61202032312E+03  0.92380190389E+02 0.  0.
        254    2    1    2    0    0 -0.79728783186E+02  0.16170067736E+02 -0.22257461369E+04  0.24242238083E+04  0.95723406572E+03 0.  0.
         23    2    4    4    0    0 -0.21088207456E+03  0.41193413870E+03 -0.15876561111E+04  0.16559841792E+04  0.86433157307E+02 0.  0.
         23    2    4    4    0    0  0.13115329138E+03 -0.39576407096E+03 -0.63809002582E+03  0.76823962906E+03  0.95931542739E+02 0.  0.
          4    1    3    3  502    0  0.60074359940E+02 -0.40330769920E+02  0.22805873120E+03  0.23926195811E+03  0.00000000000E+00 0. -1.
         -4    1    3    3    0  502  0.19654423246E+02  0.24160702184E+02  0.37145492701E+03  0.37275836501E+03  0.00000000000E+00 0.  1.
         13    1    5    5    0    0 -0.14090915044E+03  0.22718907255E+03 -0.78095119689E+03  0.82544232705E+03  0.00000000000E+00 0. -1.
        -13    1    5    5    0    0 -0.69972924123E+02  0.18474506615E+03 -0.80670491420E+03  0.83054185215E+03  0.00000000000E+00 0.  1.
          3    1    6    6  503    0 -0.20286228328E+00 -0.59099413610E+01  0.29035790623E+01  0.65878168893E+01  0.00000000000E+00 0. -1.
         -3    1    6    6    0  503  0.13135615366E+03 -0.38985412960E+03 -0.64099360488E+03  0.76165181217E+03  0.00000000000E+00 0.  1.
<mgrwt>
<rscale>  0 0.25640098E+04</rscale>
<asrwt>0</asrwt>
<pdfrwt beam="1">  1        2 0.10846243E+00 0.25640098E+04</pdfrwt>
<pdfrwt beam="2">  1       -2 0.35865205E+00 0.25640098E+04</pdfrwt>
<totfact> 0.49425097E-01</totfact>
</mgrwt>
</event>
<event>
12    3  0.4769008E-008  0.1275633E+04  0.7818608E-02  0.9049115E-01
          2   -1    0    0  501    0  0.00000000000E+00  0.00000000000E+00  0.89917725914E+03  0.89917725914E+03  0.00000000000E+00 0. -1.
         -2   -1    0    0    0  501 -0.00000000000E+00 -0.00000000000E+00 -0.45242450689E+03  0.45242450689E+03  0.00000000000E+00 0.  1.
         23    2    1    2    0    0  0.22846236933E+03  0.17048507632E+03  0.25481397179E+03  0.39336123663E+03  0.92426656413E+02 0.  0.
        254    2    1    2    0    0 -0.22846236933E+03 -0.17048507632E+03  0.19193878046E+03  0.95824052940E+03  0.89449661894E+03 0.  0.
         23    2    4    4    0    0 -0.18565561187E+03 -0.77521037507E+02 -0.34195937103E+03  0.40716246023E+03  0.91474259289E+02 0.  0.
         23    2    4    4    0    0 -0.42806757462E+02 -0.92964038809E+02  0.53389815149E+03  0.55107806917E+03  0.90360783340E+02 0.  0.
          4    1    3    3  502    0  0.32901094203E+02 -0.45930690495E+01  0.51773755733E+02  0.61515039347E+02  0.00000000000E+00 0. -1.
         -4    1    3    3    0  502  0.19556127512E+03  0.17507814537E+03  0.20304021606E+03  0.33184619728E+03  0.00000000000E+00 0.  1.
         13    1    5    5    0    0  0.52800025783E+01 -0.13109452428E+02 -0.53193364372E+02  0.55038806159E+02  0.00000000000E+00 0. -1.
        -13    1    5    5    0    0 -0.19093561444E+03 -0.64411585079E+02 -0.28876600665E+03  0.35212365407E+03  0.00000000000E+00 0.  1.
          2    1    6    6  503    0 -0.27128740643E+02 -0.73675875005E+02  0.18086065548E+03  0.19716662960E+03  0.00000000000E+00 0. -1.
         -2    1    6    6    0  503 -0.15678016819E+02 -0.19288163803E+02  0.35303749601E+03  0.35391143957E+03  0.00000000000E+00 0.  1.
<mgrwt>
<rscale>  0 0.12756329E+04</rscale>
<asrwt>0</asrwt>
<pdfrwt beam="1">  1        2 0.13833496E+00 0.12756329E+04</pdfrwt>
<pdfrwt beam="2">  1       -2 0.69603770E-01 0.12756329E+04</pdfrwt>
<totfact> 0.54270288E+01</totfact>
</mgrwt>
</event>
<event>
12    3  0.4769008E-008  0.1202976E+04  0.7818608E-02  0.9110255E-01
          2   -1    0    0  501    0  0.00000000000E+00  0.00000000000E+00  0.72698581645E+03  0.72698581645E+03  0.00000000000E+00 0. -1.
         -2   -1    0    0    0  501 -0.00000000000E+00 -0.00000000000E+00 -0.49765490641E+03  0.49765490641E+03  0.00000000000E+00 0.  1.
         23    2    1    2    0    0  0.86190101745E+02 -0.71597706440E+02 -0.18006182245E+03  0.22943428524E+03  0.87537798302E+02 0.  0.
        254    2    1    2    0    0 -0.86190101745E+02  0.71597706440E+02  0.40939273249E+03  0.99520643763E+03  0.90015469719E+03 0.  0.
         23    2    4    4    0    0 -0.83113875567E+02 -0.16807168909E+03 -0.22529217390E+03  0.31088577970E+03  0.10362140424E+03 0.  0.
         23    2    4    4    0    0 -0.30762261783E+01  0.23966939553E+03  0.63468490638E+03  0.68432065792E+03  0.89548590988E+02 0.  0.
          2    1    3    3  502    0  0.25769134212E+02  0.18311730082E+02 -0.25107762826E+02  0.40370378878E+02  0.00000000000E+00 0. -1.
         -2    1    3    3    0  502  0.60420967533E+02 -0.89909436522E+02 -0.15495405962E+03  0.18906390636E+03  0.00000000000E+00 0.  1.
         13    1    5    5    0    0 -0.28203003171E+02 -0.12273907962E+03 -0.80320396017E+02  0.14937087089E+03  0.00000000000E+00 0. -1.
        -13    1    5    5    0    0 -0.54910872396E+02 -0.45332609477E+02 -0.14497177788E+03  0.16151490882E+03  0.00000000000E+00 0.  1.
          1    1    6    6  503    0  0.75985781464E+01  0.88659076366E+02  0.35837175945E+03  0.36925396163E+03  0.00000000000E+00 0. -1.
         -1    1    6    6    0  503 -0.10674804325E+02  0.15101031917E+03  0.27631314693E+03  0.31506669629E+03  0.00000000000E+00 0.  1.
<mgrwt>
<rscale>  0 0.12029764E+04</rscale>
<asrwt>0</asrwt>
<pdfrwt beam="1">  1        2 0.11184397E+00 0.12029764E+04</pdfrwt>
<pdfrwt beam="2">  1       -2 0.76562293E-01 0.12029764E+04</pdfrwt>
<totfact> 0.58776011E+01</totfact>
</mgrwt>
</event>
<event>
12    3  0.4769008E-008  0.1388596E+04  0.7818608E-02  0.8962115E-01
          2   -1    0    0  501    0  0.00000000000E+00  0.00000000000E+00  0.10124709564E+04  0.10124709564E+04  0.00000000000E+00 0.  1.
         -2   -1    0    0    0  501 -0.00000000000E+00 -0.00000000000E+00 -0.47611180834E+03  0.47611180834E+03  0.00000000000E+00 0. -1.
         23    2    1    2    0    0 -0.34938484504E+03  0.10772015885E+03  0.36625067581E+03  0.52572122545E+03  0.92573466985E+02 0.  0.
        254    2    1    2    0    0  0.34938484504E+03 -0.10772015885E+03  0.17010847227E+03  0.96286153932E+03  0.87435235975E+03 0.  0.
         23    2    4    4    0    0 -0.16468670686E+03  0.24660777899E+03  0.54683421796E+01  0.31130488910E+03  0.94571259558E+02 0.  0.
         23    2    4    4    0    0  0.51407155190E+03 -0.35432793784E+03  0.16464013009E+03  0.65155665022E+03  0.87188577290E+02 0.  0.
          4    1    3    3  502    0 -0.37542680606E+01  0.18767633534E+02  0.28616993641E+02  0.34427473363E+02  0.00000000000E+00 0. -1.
         -4    1    3    3    0  502 -0.34563057698E+03  0.88952525319E+02  0.33763368217E+03  0.49129375208E+03  0.00000000000E+00 0.  1.
         13    1    5    5    0    0 -0.17302525356E+03  0.20601721352E+03 -0.27921967839E+01  0.26905134640E+03  0.00000000000E+00 0.  1.
        -13    1    5    5    0    0  0.83385467058E+01  0.40590565466E+02  0.82605389635E+01  0.42253542692E+02  0.00000000000E+00 0. -1.
          1    1    6    6  503    0  0.18409255536E+03 -0.13941676171E+03  0.19045945259E+02  0.23171070415E+03  0.00000000000E+00 0. -1.
         -1    1    6    6    0  503  0.32997899654E+03 -0.21491117613E+03  0.14559418483E+03  0.41984594608E+03  0.00000000000E+00 0.  1.
<mgrwt>
<rscale>  0 0.13885955E+04</rscale>
<asrwt>0</asrwt>
<pdfrwt beam="1">  1        2 0.15576476E+00 0.13885955E+04</pdfrwt>
<pdfrwt beam="2">  1       -2 0.73247971E-01 0.13885955E+04</pdfrwt>
<totfact> 0.40540214E+01</totfact>
</mgrwt>
</event>
<event>
12    3  0.4769008E-008  0.1792591E+04  0.7818608E-02  0.8710249E-01
          2   -1    0    0  501    0  0.00000000000E+00  0.00000000000E+00  0.14912028677E+04  0.14912028677E+04  0.00000000000E+00 0. -1.
         -2   -1    0    0    0  501 -0.00000000000E+00 -0.00000000000E+00 -0.53872317218E+03  0.53872317218E+03  0.00000000000E+00 0.  1.
         23    2    1    2    0    0 -0.10873886366E+03 -0.51761880558E+03 -0.10451654337E+03  0.54629333129E+03  0.88087045681E+02 0.  0.
        254    2    1    2    0    0  0.10873886366E+03  0.51761880558E+03  0.10569962389E+04  0.14836327086E+04  0.89675615223E+03 0.  0.
         23    2    4    4    0    0 -0.34068969815E+03  0.20777851553E+03  0.18235687448E+03  0.44850041045E+03  0.93044110819E+02 0.  0.
         23    2    4    4    0    0  0.44942856181E+03  0.30984029005E+03  0.87463936441E+03  0.10351322981E+04  0.92292032977E+02 0.  0.
          1    1    3    3  502    0 -0.79953806329E+01 -0.81119584509E+02  0.14468662823E+02  0.82786806354E+02  0.00000000000E+00 0. -1.
         -1    1    3    3    0  502 -0.10074348302E+03 -0.43649922107E+03 -0.11898520620E+03  0.46350652494E+03  0.00000000000E+00 0.  1.
         13    1    5    5    0    0 -0.13999428219E+03  0.70217094521E+02  0.24645613800E+02  0.15854414429E+03  0.00000000000E+00 0. -1.
        -13    1    5    5    0    0 -0.20069541596E+03  0.13756142101E+03  0.15771126068E+03  0.28995626616E+03  0.00000000000E+00 0.  1.
          4    1    6    6  503    0  0.16197012347E+03  0.76699934963E+02  0.22726766389E+03  0.28942666078E+03  0.00000000000E+00 0.  1.
         -4    1    6    6    0  503  0.28745843833E+03  0.23314035508E+03  0.64737170052E+03  0.74570563734E+03  0.00000000000E+00 0. -1.
<mgrwt>
<rscale>  0 0.17925909E+04</rscale>
<asrwt>0</asrwt>
<pdfrwt beam="1">  1        2 0.22941582E+00 0.17925909E+04</pdfrwt>
<pdfrwt beam="2">  1       -2 0.82880489E-01 0.17925909E+04</pdfrwt>
<totfact> 0.15478003E+01</totfact>
</mgrwt>
</event>
<event>
12    3  0.4769008E-008  0.1450937E+04  0.7818608E-02  0.8917751E-01
         -1   -1    0    0    0  501 -0.00000000000E+00  0.00000000000E+00  0.74750898495E+03  0.74750898495E+03  0.00000000000E+00 0.  1.
          1   -1    0    0  501    0  0.00000000000E+00 -0.00000000000E+00 -0.70407771003E+03  0.70407771003E+03  0.00000000000E+00 0. -1.
         23    2    1    2    0    0 -0.90500849461E+02 -0.93576270992E+02 -0.42328528706E+03  0.45187779662E+03  0.89867605887E+02 0.  0.
        254    2    1    2    0    0  0.90500849461E+02  0.93576270992E+02  0.46671656199E+03  0.99970889836E+03  0.87444074126E+03 0.  0.
         23    2    4    4    0    0 -0.76017741989E+02 -0.24515618644E+03 -0.11878544355E+03  0.29700005117E+03  0.90657575234E+02 0.  0.
         23    2    4    4    0    0  0.16651859145E+03  0.33873245743E+03  0.58550200554E+03  0.70270884719E+03  0.92298463745E+02 0.  0.
          3    1    3    3  502    0 -0.10243674934E+03 -0.99462727685E+02 -0.40364242195E+03  0.42815105584E+03  0.00000000000E+00 0. -1.
         -3    1    3    3    0  502  0.11935899883E+02  0.58864566932E+01 -0.19642865112E+02  0.23726740784E+02  0.00000000000E+00 0.  1.
         13    1    5    5    0    0  0.78623956290E+01 -0.12308965772E+03 -0.42943167376E+02  0.13060243768E+03  0.00000000000E+00 0. -1.
        -13    1    5    5    0    0 -0.83880137618E+02 -0.12206652872E+03 -0.75842276171E+02  0.16639761349E+03  0.00000000000E+00 0.  1.
          3    1    6    6  503    0  0.35243213185E+02  0.15747058527E+02  0.42483308627E+02  0.57401092671E+02  0.00000000000E+00 0. -1.
         -3    1    6    6    0  503  0.13127537826E+03  0.32298539891E+03  0.54301869691E+03  0.64530775452E+03  0.00000000000E+00 0.  1.
<mgrwt>
<rscale>  0 0.14509368E+04</rscale>
<asrwt>0</asrwt>
<pdfrwt beam="1">  1        1 0.10831965E+00 0.14509368E+04</pdfrwt>
<pdfrwt beam="2">  1       -1 0.11500138E+00 0.14509368E+04</pdfrwt>
<totfact> 0.18007037E+01</totfact>
</mgrwt>
</event>
<event>
12    3  0.4769008E-008  0.2701294E+04  0.7818608E-02  0.8334585E-01
         -2   -1    0    0    0  501 -0.00000000000E+00  0.00000000000E+00  0.11844165658E+04  0.11844165658E+04  0.00000000000E+00 0.  1.
          2   -1    0    0  501    0  0.00000000000E+00 -0.00000000000E+00 -0.15402070743E+04  0.15402070743E+04  0.00000000000E+00 0. -1.
         23    2    1    2    0    0 -0.18462475770E+03 -0.83778276446E+03  0.69044077064E+03  0.11040343477E+04  0.78848726439E+02 0.  0.
        254    2    1    2    0    0  0.18462475770E+03  0.83778276446E+03 -0.10462312792E+04  0.16205892924E+04  0.89204456362E+03 0.  0.
         23    2    4    4    0    0 -0.35165669420E+03  0.35595357789E+03 -0.39904902181E+03  0.64817336621E+03  0.10258270165E+03 0.  0.
         23    2    4    4    0    0  0.53628145190E+03  0.48182918658E+03 -0.64718225734E+03  0.97241592616E+03  0.83610397375E+02 0.  0.
          2    1    3    3  502    0  0.53181293881E+00 -0.52115634496E+02  0.24469409826E+02  0.57576681054E+02  0.00000000000E+00 0. -1.
         -2    1    3    3    0  502 -0.18515657064E+03 -0.78566712997E+03  0.66597136081E+03  0.10464576667E+04  0.00000000000E+00 0.  1.
         13    1    5    5    0    0 -0.16940303628E+03  0.21028354505E+03 -0.15873693197E+03  0.31323149840E+03  0.00000000000E+00 0. -1.
        -13    1    5    5    0    0 -0.18225365791E+03  0.14567003284E+03 -0.24031208983E+03  0.33494186781E+03  0.00000000000E+00 0.  1.
          2    1    6    6  503    0  0.40605553454E+03  0.31406840556E+03 -0.45215168816E+03  0.68407690328E+03  0.00000000000E+00 0. -1.
         -2    1    6    6    0  503  0.13022591736E+03  0.16776078101E+03 -0.19503056918E+03  0.28833902288E+03  0.00000000000E+00 0.  1.
<mgrwt>
<rscale>  0 0.27012936E+04</rscale>
<asrwt>0</asrwt>
<pdfrwt beam="1">  1        2 0.23695493E+00 0.27012936E+04</pdfrwt>
<pdfrwt beam="2">  1       -2 0.18221793E+00 0.27012936E+04</pdfrwt>
<totfact> 0.18503624E+00</totfact>
</mgrwt>
</event>
<event>
12    3  0.4769008E-008  0.1832488E+04  0.7818608E-02  0.8689211E-01
         -2   -1    0    0    0  501 -0.00000000000E+00  0.00000000000E+00  0.65594374093E+03  0.65594374093E+03  0.00000000000E+00 0.  1.
          2   -1    0    0  501    0  0.00000000000E+00 -0.00000000000E+00 -0.12798404997E+04  0.12798404997E+04  0.00000000000E+00 0. -1.
         23    2    1    2    0    0 -0.68079688665E+03  0.12129380180E+03 -0.30517132690E+03  0.76149757612E+03  0.92479362293E+02 0.  0.
        254    2    1    2    0    0  0.68079688665E+03 -0.12129380180E+03 -0.31872543191E+03  0.11742866645E+04  0.89396123091E+03 0.  0.
         23    2    4    4    0    0 -0.57395007721E+02 -0.93666748378E+02  0.21524874078E+03  0.25827448158E+03  0.91137482789E+02 0.  0.
         23    2    4    4    0    0  0.73819189437E+03 -0.27627053423E+02 -0.53397417269E+03  0.91601218296E+03  0.90881104995E+02 0.  0.
          1    1    3    3  502    0 -0.29761703575E+03  0.72579131333E+02 -0.18075339274E+03  0.35569006067E+03  0.00000000000E+00 0. -1.
         -1    1    3    3    0  502 -0.38317985090E+03  0.48714670468E+02 -0.12441793415E+03  0.40580751544E+03  0.00000000000E+00 0.  1.
         13    1    5    5    0    0  0.31138528342E+00  0.12165264098E+02  0.70928536776E+00  0.12189901439E+02  0.00000000000E+00 0. -1.
        -13    1    5    5    0    0 -0.57706393005E+02 -0.10583201248E+03  0.21453945541E+03  0.24608458015E+03  0.00000000000E+00 0.  1.
          3    1    6    6  503    0  0.36722335399E+03  0.14033079821E+02 -0.22063614798E+03  0.42863764282E+03  0.00000000000E+00 0. -1.
         -3    1    6    6    0  503  0.37096854037E+03 -0.41660133244E+02 -0.31333802471E+03  0.48737454014E+03  0.00000000000E+00 0.  1.
<mgrwt>
<rscale>  0 0.18324883E+04</rscale>
<asrwt>0</asrwt>
<pdfrwt beam="1">  1        2 0.19689854E+00 0.18324883E+04</pdfrwt>
<pdfrwt beam="2">  1       -2 0.10091442E+00 0.18324883E+04</pdfrwt>
<totfact> 0.12931116E+01</totfact>
</mgrwt>
</event>
<event>
12    3  0.4769008E-008  0.2152117E+04  0.7818608E-02  0.8538627E-01
         -1   -1    0    0    0  501 -0.00000000000E+00  0.00000000000E+00  0.73183160776E+03  0.73183160776E+03  0.00000000000E+00 0.  1.
          1   -1    0    0  501    0  0.00000000000E+00 -0.00000000000E+00 -0.15821975377E+04  0.15821975377E+04  0.00000000000E+00 0. -1.
         23    2    1    2    0    0  0.16942509289E+03 -0.12404276714E+03  0.57993596494E+03  0.62317195766E+03  0.89028620141E+02 0.  0.
        254    2    1    2    0    0 -0.16942509289E+03  0.12404276714E+03 -0.14303018949E+04  0.16908571878E+04  0.87700800958E+03 0.  0.
         23    2    4    4    0    0 -0.39560879436E+03  0.60860879308E+02 -0.13722496083E+04  0.14323806953E+04  0.91842822244E+02 0.  0.
         23    2    4    4    0    0  0.22618370147E+03  0.63181887833E+02 -0.58052286610E+02  0.25847649253E+03  0.91044008307E+02 0.  0.
          3    1    3    3  502    0  0.36101847399E+01  0.12206730680E+02  0.22518002154E+02  0.25866931181E+02  0.00000000000E+00 0. -1.
         -3    1    3    3    0  502  0.16581490815E+03 -0.13624949782E+03  0.55741796279E+03  0.59730502648E+03  0.00000000000E+00 0.  1.
         13    1    5    5    0    0 -0.14128862544E+02  0.56491830149E+01 -0.14653045819E+02  0.21124624903E+02  0.00000000000E+00 0. -1.
        -13    1    5    5    0    0 -0.38147993181E+03  0.55211696293E+02 -0.13575965625E+04  0.14112560704E+04  0.00000000000E+00 0.  1.
          3    1    6    6  503    0  0.24377071834E+02  0.41236180239E+02 -0.20168834997E+02  0.51975437440E+02  0.00000000000E+00 0. -1.
         -3    1    6    6    0  503  0.20180662963E+03  0.21945707593E+02 -0.37883451613E+02  0.20650105509E+03  0.00000000000E+00 0.  1.
<mgrwt>
<rscale>  0 0.21521173E+04</rscale>
<asrwt>0</asrwt>
<pdfrwt beam="1">  1        1 0.24341501E+00 0.21521173E+04</pdfrwt>
<pdfrwt beam="2">  1       -1 0.11258948E+00 0.21521173E+04</pdfrwt>
<totfact> 0.37944371E+00</totfact>
</mgrwt>
</event>
<event>
12    3  0.4769008E-008  0.1830535E+04  0.7818608E-02  0.8690228E-01
          1   -1    0    0  501    0  0.00000000000E+00  0.00000000000E+00  0.16967721504E+04  0.16967721504E+04  0.00000000000E+00 0. -1.
         -1   -1    0    0    0  501 -0.00000000000E+00 -0.00000000000E+00 -0.49371045984E+03  0.49371045984E+03  0.00000000000E+00 0.  1.
         23    2    1    2    0    0  0.48598569263E+03  0.45193979413E+03  0.38387260576E+03  0.77211443803E+03  0.91492387662E+02 0.  0.
        254    2    1    2    0    0 -0.48598569263E+03 -0.45193979413E+03  0.81918908483E+03  0.14183681722E+04  0.94882339997E+03 0.  0.
         23    2    4    4    0    0 -0.37139425105E+03  0.90465214748E+02 -0.36567892408E+02  0.39474560735E+03  0.91483544803E+02 0.  0.
         23    2    4    4    0    0 -0.11459144158E+03 -0.54240500888E+03  0.85575697724E+03  0.10236225649E+04  0.90270477535E+02 0.  0.
          1    1    3    3  502    0  0.78622920522E+02  0.11927018629E+03  0.10078443695E+03  0.17482689639E+03  0.00000000000E+00 0. -1.
         -1    1    3    3    0  502  0.40736277211E+03  0.33266960784E+03  0.28308816881E+03  0.59728754164E+03  0.00000000000E+00 0.  1.
         13    1    5    5    0    0 -0.19195064787E+03  0.11541068315E+01 -0.29262803210E+02  0.19417181781E+03  0.00000000000E+00 0.  1.
        -13    1    5    5    0    0 -0.17944360318E+03  0.89311107917E+02 -0.73050891976E+01  0.20057378954E+03  0.00000000000E+00 0. -1.
          3    1    6    6  503    0 -0.55529887556E+02 -0.29723932233E+03  0.38474178852E+03  0.48934755234E+03  0.00000000000E+00 0. -1.
         -3    1    6    6    0  503 -0.59061554023E+02 -0.24516568655E+03  0.47101518872E+03  0.53427501254E+03  0.00000000000E+00 0.  1.
<mgrwt>
<rscale>  0 0.18305345E+04</rscale>
<asrwt>0</asrwt>
<pdfrwt beam="1">  1        1 0.26104187E+00 0.18305345E+04</pdfrwt>
<pdfrwt beam="2">  1       -1 0.75955456E-01 0.18305345E+04</pdfrwt>
<totfact> 0.78485485E+00</totfact>
</mgrwt>
</event>
<event>
12    3  0.4769008E-008  0.1552738E+04  0.7818608E-02  0.8850121E-01
          1   -1    0    0  501    0  0.00000000000E+00  0.00000000000E+00  0.77548049630E+03  0.77548049630E+03  0.00000000000E+00 0. -1.
         -1   -1    0    0    0  501 -0.00000000000E+00 -0.00000000000E+00 -0.77725876540E+03  0.77725876540E+03  0.00000000000E+00 0.  1.
         23    2    1    2    0    0 -0.34190176650E+03  0.37092551637E+03  0.15368288598E+02  0.51271291510E+03  0.90309425804E+02 0.  0.
        254    2    1    2    0    0  0.34190176650E+03 -0.37092551637E+03 -0.17146557700E+02  0.10400263466E+04  0.90932845581E+03 0.  0.
         23    2    4    4    0    0 -0.14201295915E+03 -0.40586784403E+03 -0.23825607487E+03  0.49982502287E+03  0.90347711003E+02 0.  0.
         23    2    4    4    0    0  0.48391472565E+03  0.34942327667E+02  0.22110951717E+03  0.54020132373E+03  0.86796449303E+02 0.  0.
          3    1    3    3  502    0 -0.34522310203E+03  0.35127808379E+03  0.13577719459E+02  0.49270644079E+03  0.00000000000E+00 0. -1.
         -3    1    3    3    0  502  0.33213355347E+01  0.19647432572E+02  0.17905691387E+01  0.20006474308E+02  0.00000000000E+00 0.  1.
         13    1    5    5    0    0 -0.14141274013E+03 -0.33914689781E+03 -0.17171024256E+03  0.40558918719E+03  0.00000000000E+00 0. -1.
        -13    1    5    5    0    0 -0.60021901951E+00 -0.66720946221E+02 -0.66545832307E+02  0.94235835673E+02  0.00000000000E+00 0.  1.
          4    1    6    6  503    0  0.10735254829E+02  0.12357364077E+02  0.19248264804E+02  0.25267485849E+02  0.00000000000E+00 0.  1.
         -4    1    6    6    0  503  0.47317947082E+03  0.22584963590E+02  0.20186125237E+03  0.51493383788E+03  0.00000000000E+00 0. -1.
<mgrwt>
<rscale>  0 0.15527382E+04</rscale>
<asrwt>0</asrwt>
<pdfrwt beam="1">  1        1 0.11930469E+00 0.15527382E+04</pdfrwt>
<pdfrwt beam="2">  1       -1 0.11957827E+00 0.15527382E+04</pdfrwt>
<totfact> 0.13980957E+01</totfact>
</mgrwt>
</event>
<event>
12    3  0.4769008E-008  0.2765720E+04  0.7818608E-02  0.8313991E-01
          2   -1    0    0  501    0  0.00000000000E+00  0.00000000000E+00  0.25338104785E+04  0.25338104785E+04  0.00000000000E+00 0. -1.
         -2   -1    0    0    0  501 -0.00000000000E+00 -0.00000000000E+00 -0.75471355768E+03  0.75471355768E+03  0.00000000000E+00 0.  1.
         23    2    1    2    0    0 -0.81895442528E+03  0.37445139150E+03 -0.21093326132E+03  0.92935742767E+03  0.91171225447E+02 0.  0.
        254    2    1    2    0    0  0.81895442528E+03 -0.37445139150E+03  0.19900301821E+04  0.23591666085E+04  0.89137352753E+03 0.  0.
         23    2    4    4    0    0 -0.21516305799E+02  0.12477494387E+03  0.12918422720E+02  0.15169313562E+03  0.82535954080E+02 0.  0.
         23    2    4    4    0    0  0.84047073108E+03 -0.49922633537E+03  0.19771117594E+04  0.22074734729E+04  0.91379650410E+02 0.  0.
          1    1    3    3  502    0 -0.18570694730E+03  0.79910789055E+02 -0.90694356563E+01  0.20237356336E+03  0.00000000000E+00 0. -1.
         -1    1    3    3    0  502 -0.63324747798E+03  0.29454060244E+03 -0.20186382566E+03  0.72698386431E+03  0.00000000000E+00 0.  1.
         13    1    5    5    0    0 -0.11064555668E+01 -0.12398105164E+02  0.15806762858E+01  0.12547342073E+02  0.00000000000E+00 0.  1.
        -13    1    5    5    0    0 -0.20409850232E+02  0.13717304904E+03  0.11337746434E+02  0.13914579355E+03  0.00000000000E+00 0. -1.
          2    1    6    6  503    0  0.80213470097E+03 -0.45121083356E+03  0.18482086682E+04  0.20646759010E+04  0.00000000000E+00 0. -1.
         -2    1    6    6    0  503  0.38336030109E+02 -0.48015501810E+02  0.12890309123E+03  0.14279757192E+03  0.00000000000E+00 0.  1.
<mgrwt>
<rscale>  0 0.27657195E+04</rscale>
<asrwt>0</asrwt>
<pdfrwt beam="1">  1        2 0.38981699E+00 0.27657195E+04</pdfrwt>
<pdfrwt beam="2">  1       -2 0.11610978E+00 0.27657195E+04</pdfrwt>
<totfact> 0.16717065E+00</totfact>
</mgrwt>
</event>
<event>
12    3  0.4769008E-008  0.1629613E+04  0.7818608E-02  0.8802559E-01
         -1   -1    0    0    0  501 -0.00000000000E+00  0.00000000000E+00  0.56231582821E+03  0.56231582821E+03  0.00000000000E+00 0.  1.
          1   -1    0    0  501    0  0.00000000000E+00 -0.00000000000E+00 -0.11806709021E+04  0.11806709021E+04  0.00000000000E+00 0. -1.
         23    2    1    2    0    0 -0.36506882996E+03  0.11859642135E+03  0.21987744280E+03  0.45108374563E+03  0.88261508911E+02 0.  0.
        254    2    1    2    0    0  0.36506882996E+03 -0.11859642135E+03 -0.83823251664E+03  0.12919029846E+04  0.90500784969E+03 0.  0.
         23    2    4    4    0    0  0.61975981170E+03 -0.26055602832E+03 -0.57585241785E+03  0.88996174261E+03  0.91838053581E+02 0.  0.
         23    2    4    4    0    0 -0.25469098173E+03  0.14195960697E+03 -0.26238009879E+03  0.40194124203E+03  0.87712140617E+02 0.  0.
          2    1    3    3  502    0 -0.18968160244E+02  0.30354523100E+02  0.29245997698E+02  0.46222468097E+02  0.00000000000E+00 0. -1.
         -2    1    3    3    0  502 -0.34610066972E+03  0.88241898251E+02  0.19063144510E+03  0.40486127753E+03  0.00000000000E+00 0.  1.
         13    1    5    5    0    0  0.66644108589E+02 -0.17412938596E+02 -0.97248098583E+02  0.11917147443E+03  0.00000000000E+00 0. -1.
        -13    1    5    5    0    0  0.55311570311E+03 -0.24314308972E+03 -0.47860431927E+03  0.77079026818E+03  0.00000000000E+00 0.  1.
          1    1    6    6  503    0 -0.63834309087E+02 -0.20037864545E+01 -0.39480777945E+02  0.75083726625E+02  0.00000000000E+00 0. -1.
         -1    1    6    6    0  503 -0.19085667265E+03  0.14396339342E+03 -0.22289932085E+03  0.32685751540E+03  0.00000000000E+00 0.  1.
<mgrwt>
<rscale>  0 0.16296134E+04</rscale>
<asrwt>0</asrwt>
<pdfrwt beam="1">  1        1 0.18164167E+00 0.16296134E+04</pdfrwt>
<pdfrwt beam="2">  1       -1 0.86510129E-01 0.16296134E+04</pdfrwt>
<totfact> 0.13925857E+01</totfact>
</mgrwt>
</event>
<event>
12    3  0.4769008E-008  0.1532076E+04  0.7818608E-02  0.8863399E-01
         -1   -1    0    0    0  501 -0.00000000000E+00  0.00000000000E+00  0.64290491465E+03  0.64290491465E+03  0.00000000000E+00 0.  1.
          1   -1    0    0  501    0  0.00000000000E+00 -0.00000000000E+00 -0.91275382244E+03  0.91275382244E+03  0.00000000000E+00 0. -1.
         23    2    1    2    0    0 -0.11881893661E+03 -0.34132928053E+03  0.25788209010E+03  0.45310884782E+03  0.90447985799E+02 0.  0.
        254    2    1    2    0    0  0.11881893661E+03  0.34132928053E+03 -0.52773099789E+03  0.11025498893E+04  0.89804934983E+03 0.  0.
         23    2    4    4    0    0  0.71609164481E+02 -0.25147762231E+03 -0.40239128787E+03  0.48814103181E+03  0.89409459368E+02 0.  0.
         23    2    4    4    0    0  0.47209772131E+02  0.59280690284E+03 -0.12533971002E+03  0.61440885745E+03  0.90218704067E+02 0.  0.
          2    1    3    3  502    0 -0.84810840637E+02 -0.32016255443E+03  0.24116075925E+03  0.40970166188E+03  0.00000000000E+00 0.  1.
         -2    1    3    3    0  502 -0.34008095976E+02 -0.21166726104E+02  0.16721330850E+02  0.43407185940E+02  0.00000000000E+00 0. -1.
         13    1    5    5    0    0  0.79493616252E+01 -0.17505392161E+02 -0.10710008346E+01  0.19255600426E+02  0.00000000000E+00 0.  1.
        -13    1    5    5    0    0  0.63659802856E+02 -0.23397223015E+03 -0.40132028703E+03  0.46888543139E+03  0.00000000000E+00 0. -1.
          3    1    6    6  503    0  0.61860363606E+02  0.48789604358E+03 -0.12892258107E+03  0.50841939955E+03  0.00000000000E+00 0. -1.
         -3    1    6    6    0  503 -0.14650591475E+02  0.10491085926E+03  0.35828710478E+01  0.10598945790E+03  0.00000000000E+00 0.  1.
<mgrwt>
<rscale>  0 0.15320756E+04</rscale>
<asrwt>0</asrwt>
<pdfrwt beam="1">  1        1 0.14042366E+00 0.15320756E+04</pdfrwt>
<pdfrwt beam="2">  1       -1 0.98908448E-01 0.15320756E+04</pdfrwt>
<totfact> 0.16756272E+01</totfact>
</mgrwt>
</event>
<event>
12    3  0.4769008E-008  0.2672453E+04  0.7818608E-02  0.8343999E-01
          3   -1    0    0  501    0  0.00000000000E+00  0.00000000000E+00  0.14245376176E+04  0.14245376176E+04  0.00000000000E+00 0. -1.
         -3   -1    0    0    0  501 -0.00000000000E+00 -0.00000000000E+00 -0.12533901679E+04  0.12533901679E+04  0.00000000000E+00 0.  1.
         23    2    1    2    0    0  0.37651573136E+03 -0.41798058214E+03  0.11259851228E+04  0.12625511085E+04  0.98594836520E+02 0.  0.
        254    2    1    2    0    0 -0.37651573136E+03  0.41798058214E+03 -0.95483767315E+03  0.14153766770E+04  0.88040007536E+03 0.  0.
         23    2    4    4    0    0 -0.52331420303E+03  0.20483404519E+03 -0.98615189640E+03  0.11387137367E+04  0.91425763294E+02 0.  0.
         23    2    4    4    0    0  0.14679847167E+03  0.21314653696E+03  0.31314223250E+02  0.27666294030E+03  0.92631336249E+02 0.  0.
          1    1    3    3  502    0  0.36407473489E+03 -0.36081643724E+03  0.10054941856E+04  0.11286086440E+04  0.00000000000E+00 0. -1.
         -1    1    3    3    0  502  0.12440996464E+02 -0.57164144905E+02  0.12049093724E+03  0.13394246456E+03  0.00000000000E+00 0.  1.
         13    1    5    5    0    0 -0.11880269494E+03  0.18746187155E+02 -0.26763951822E+03  0.29342190029E+03  0.00000000000E+00 0.  1.
        -13    1    5    5    0    0 -0.40451150809E+03  0.18608785803E+03 -0.71851237818E+03  0.84529183640E+03  0.00000000000E+00 0. -1.
          1    1    6    6  503    0  0.12950991902E+03  0.10910366838E+03  0.22424766921E+02  0.17081949465E+03  0.00000000000E+00 0. -1.
         -1    1    6    6    0  503  0.17288552649E+02  0.10404286857E+03  0.88894563298E+01  0.10584344565E+03  0.00000000000E+00 0.  1.
<mgrwt>
<rscale>  0 0.26724531E+04</rscale>
<asrwt>0</asrwt>
<pdfrwt beam="1">  1        3 0.21915963E+00 0.26724531E+04</pdfrwt>
<pdfrwt beam="2">  1       -3 0.19282926E+00 0.26724531E+04</pdfrwt>
<totfact> 0.41760193E-02</totfact>
</mgrwt>
</event>
<event>
12    3  0.4769008E-008  0.1442520E+04  0.7818608E-02  0.8923602E-01
          2   -1    0    0  501    0  0.00000000000E+00  0.00000000000E+00  0.14663830347E+04  0.14663830347E+04  0.00000000000E+00 0.  1.
         -2   -1    0    0    0  501 -0.00000000000E+00 -0.00000000000E+00 -0.35476149569E+03  0.35476149569E+03  0.00000000000E+00 0. -1.
         23    2    1    2    0    0 -0.20189072561E+03  0.29335322917E+03  0.65221367734E+02  0.37344955207E+03  0.91622917312E+02 0.  0.
        254    2    1    2    0    0  0.20189072561E+03 -0.29335322917E+03  0.10464001713E+04  0.14476949783E+04  0.93490718772E+03 0.  0.
         23    2    4    4    0    0  0.36824009217E+03 -0.17189670030E+03  0.11328937076E+04  0.12069273018E+04  0.89867225044E+02 0.  0.
         23    2    4    4    0    0 -0.16634936655E+03 -0.12145652887E+03 -0.86493536279E+02  0.24076767652E+03  0.89800568390E+02 0.  0.
          2    1    3    3  502    0 -0.49813761221E+02  0.11597865632E+03  0.59974060312E+02  0.13974744162E+03  0.00000000000E+00 0.  1.
         -2    1    3    3    0  502 -0.15207696439E+03  0.17737457285E+03  0.52473074213E+01  0.23370211045E+03  0.00000000000E+00 0. -1.
         13    1    5    5    0    0  0.34722749052E+03 -0.14296067944E+03  0.10768812396E+04  0.11404726609E+04  0.00000000000E+00 0.  1.
        -13    1    5    5    0    0  0.21012601652E+02 -0.28936020861E+02  0.56012468001E+02  0.66454640944E+02  0.00000000000E+00 0. -1.
          3    1    6    6  503    0 -0.19477080285E+02  0.14522797200E+02 -0.12936297659E+02  0.27524826831E+02  0.00000000000E+00 0. -1.
         -3    1    6    6    0  503 -0.14687228627E+03 -0.13597932607E+03 -0.73557238620E+02  0.21324284969E+03  0.00000000000E+00 0.  1.
<mgrwt>
<rscale>  0 0.14425203E+04</rscale>
<asrwt>0</asrwt>
<pdfrwt beam="1">  1        2 0.22559739E+00 0.14425203E+04</pdfrwt>
<pdfrwt beam="2">  1       -2 0.54578692E-01 0.14425203E+04</pdfrwt>
<totfact> 0.40647287E+01</totfact>
</mgrwt>
</event>
<event>
12    3  0.4769008E-008  0.3069146E+04  0.7818608E-02  0.8224257E-01
         -2   -1    0    0    0  501 -0.00000000000E+00  0.00000000000E+00  0.14838162114E+04  0.14838162114E+04  0.00000000000E+00 0.  1.
          2   -1    0    0  501    0  0.00000000000E+00 -0.00000000000E+00 -0.15870662159E+04  0.15870662159E+04  0.00000000000E+00 0. -1.
         23    2    1    2    0    0 -0.32389095030E+02 -0.47103635364E+03 -0.13672660907E+04  0.14493668101E+04  0.91232052961E+02 0.  0.
        254    2    1    2    0    0  0.32389095030E+02  0.47103635364E+03  0.12640160861E+04  0.16215156172E+04  0.89925076087E+03 0.  0.
         23    2    4    4    0    0 -0.35795741265E+03  0.66346050843E+02  0.22601891494E+03  0.43766962808E+03  0.89077750875E+02 0.  0.
         23    2    4    4    0    0  0.39034650768E+03  0.40469030280E+03  0.10379971712E+04  0.11838459891E+04  0.88930092469E+02 0.  0.
          2    1    3    3  502    0 -0.32211032937E+02 -0.43875303038E+03 -0.11800721864E+04  0.12594094400E+04  0.00000000000E+00 0. -1.
         -2    1    3    3    0  502 -0.17806209354E+00 -0.32283323263E+02 -0.18719390422E+03  0.18995737007E+03  0.00000000000E+00 0.  1.
         13    1    5    5    0    0 -0.28594439722E+03  0.84112421698E+02  0.20054201957E+03  0.35924392744E+03  0.00000000000E+00 0.  1.
        -13    1    5    5    0    0 -0.72013015424E+02 -0.17766370855E+02  0.25476895379E+02  0.78425700647E+02  0.00000000000E+00 0. -1.
          3    1    6    6  503    0  0.10521962856E+02 -0.12497730693E+01  0.75784617155E+01  0.13027153068E+02  0.00000000000E+00 0. -1.
         -3    1    6    6    0  503  0.37982454482E+03  0.40594007587E+03  0.10304187095E+04  0.11708188360E+04  0.00000000000E+00 0.  1.
<mgrwt>
<rscale>  0 0.30691462E+04</rscale>
<asrwt>0</asrwt>
<pdfrwt beam="1">  1        2 0.24416403E+00 0.30691462E+04</pdfrwt>
<pdfrwt beam="2">  1       -2 0.22827942E+00 0.30691462E+04</pdfrwt>
<totfact> 0.84603202E-01</totfact>
</mgrwt>
</event>
<event>
12    3  0.4769008E-008  0.1527016E+04  0.7818608E-02  0.8866683E-01
          1   -1    0    0  501    0  0.00000000000E+00  0.00000000000E+00  0.97402259714E+03  0.97402259714E+03  0.00000000000E+00 0. -1.
         -1   -1    0    0    0  501 -0.00000000000E+00 -0.00000000000E+00 -0.59849201679E+03  0.59849201679E+03  0.00000000000E+00 0.  1.
         23    2    1    2    0    0 -0.40979464128E+03  0.24341670329E+03  0.14653829392E+02  0.48519434257E+03  0.89529190123E+02 0.  0.
        254    2    1    2    0    0  0.40979464128E+03 -0.24341670329E+03  0.36087675096E+03  0.10873202714E+04  0.90821253222E+03 0.  0.
         23    2    4    4    0    0  0.16971300756E+02  0.15505655602E+03  0.47518662873E+03  0.50886710502E+03  0.93876716121E+02 0.  0.
         23    2    4    4    0    0  0.39282334052E+03 -0.39847325931E+03 -0.11430987777E+03  0.57845316635E+03  0.91924981659E+02 0.  0.
          4    1    3    3  502    0 -0.34415073140E+03  0.18365745187E+03  0.41907180426E+02  0.39233403794E+03  0.00000000000E+00 0. -1.
         -4    1    3    3    0  502 -0.65643909877E+02  0.59759251415E+02 -0.27253351034E+02  0.92860304631E+02  0.00000000000E+00 0.  1.
         13    1    5    5    0    0 -0.14609972520E+02  0.41474676462E+00  0.11088687984E+03  0.11184598085E+03  0.00000000000E+00 0. -1.
        -13    1    5    5    0    0  0.31581273276E+02  0.15464180926E+03  0.36429974889E+03  0.39702112417E+03  0.00000000000E+00 0.  1.
          1    1    6    6  503    0  0.10484793152E+01  0.54804965327E-01  0.65925462202E+01  0.66756256729E+01  0.00000000000E+00 0. -1.
         -1    1    6    6    0  503  0.39177486121E+03 -0.39852806428E+03 -0.12090242399E+03  0.57177754067E+03  0.00000000000E+00 0.  1.
<mgrwt>
<rscale>  0 0.15270164E+04</rscale>
<asrwt>0</asrwt>
<pdfrwt beam="1">  1        1 0.14984963E+00 0.15270164E+04</pdfrwt>
<pdfrwt beam="2">  1       -1 0.92075695E-01 0.15270164E+04</pdfrwt>
<totfact> 0.17585173E+01</totfact>
</mgrwt>
</event>
<event>
12    3  0.4769008E-008  0.1339439E+04  0.7818608E-02  0.8998861E-01
          2   -1    0    0  501    0  0.00000000000E+00  0.00000000000E+00  0.82090803393E+03  0.82090803393E+03  0.00000000000E+00 0.  1.
         -2   -1    0    0    0  501 -0.00000000000E+00 -0.00000000000E+00 -0.54637563915E+03  0.54637563915E+03  0.00000000000E+00 0. -1.
         23    2    1    2    0    0 -0.24240089227E+03  0.44220332344E+02 -0.18976693742E+03  0.32405970911E+03  0.91047098601E+02 0.  0.
        254    2    1    2    0    0  0.24240089227E+03 -0.44220332344E+02  0.46429933220E+03  0.10432239640E+04  0.90112637225E+03 0.  0.
         23    2    4    4    0    0  0.51770995654E+03  0.15570974090E+03  0.14213713296E+03  0.56595986325E+03  0.88535189202E+02 0.  0.
         23    2    4    4    0    0 -0.27530906427E+03 -0.19993007324E+03  0.32216219924E+03  0.47726410073E+03  0.90694124205E+02 0.  0.
          2    1    3    3  502    0 -0.17887887142E+03  0.45199252169E+02 -0.18350793463E+03  0.26022256841E+03  0.00000000000E+00 0. -1.
         -2    1    3    3    0  502 -0.63522020853E+02 -0.97891982483E+00 -0.62590027939E+01  0.63837140704E+02  0.00000000000E+00 0.  1.
         13    1    5    5    0    0  0.41643654701E+03  0.15346599814E+03  0.93350964291E+02  0.45352575760E+03  0.00000000000E+00 0.  1.
        -13    1    5    5    0    0  0.10127340953E+03  0.22437427603E+01  0.48786168669E+02  0.11243410565E+03  0.00000000000E+00 0. -1.
          1    1    6    6  503    0 -0.17633395863E+02 -0.83175620105E+01  0.58859927561E+02  0.62004915611E+02  0.00000000000E+00 0. -1.
         -1    1    6    6    0  503 -0.25767566841E+03 -0.19161251123E+03  0.26330227168E+03  0.41525918512E+03  0.00000000000E+00 0.  1.
<mgrwt>
<rscale>  0 0.13394389E+04</rscale>
<asrwt>0</asrwt>
<pdfrwt beam="1">  1        2 0.12629354E+00 0.13394389E+04</pdfrwt>
<pdfrwt beam="2">  1       -2 0.84057791E-01 0.13394389E+04</pdfrwt>
<totfact> 0.40214117E+01</totfact>
</mgrwt>
</event>
<event>
12    3  0.4769008E-008  0.1806573E+04  0.7818608E-02  0.8702812E-01
          2   -1    0    0  501    0  0.00000000000E+00  0.00000000000E+00  0.21709633136E+04  0.21709633136E+04  0.00000000000E+00 0.  1.
         -2   -1    0    0    0  501 -0.00000000000E+00 -0.00000000000E+00 -0.37583633856E+03  0.37583633856E+03  0.00000000000E+00 0. -1.
         23    2    1    2    0    0 -0.11245426760E+03  0.62494427553E+03  0.35789262409E+03  0.73519054627E+03  0.96003641268E+02 0.  0.
        254    2    1    2    0    0  0.11245426760E+03 -0.62494427553E+03  0.14372343509E+04  0.18116091059E+04  0.90171151882E+03 0.  0.
         23    2    4    4    0    0 -0.18222015122E+03  0.86746731279E+02  0.58728376048E+02  0.22992254214E+03  0.93199647722E+02 0.  0.
         23    2    4    4    0    0  0.29467441881E+03 -0.71169100681E+03  0.13785059749E+04  0.15816865637E+04  0.90091957530E+02 0.  0.
          4    1    3    3  502    0 -0.10456928330E+03  0.60678331421E+03  0.32357897189E+03  0.69557463760E+03  0.00000000000E+00 0. -1.
         -4    1    3    3    0  502 -0.78849842917E+01  0.18160961315E+02  0.34313652195E+02  0.39615908675E+02  0.00000000000E+00 0.  1.
         13    1    5    5    0    0 -0.50446479465E+02 -0.18231503228E+02  0.18146205850E+02  0.56626140493E+02  0.00000000000E+00 0.  1.
        -13    1    5    5    0    0 -0.13177367175E+03  0.10497823451E+03  0.40582170198E+02  0.17329640165E+03  0.00000000000E+00 0. -1.
          3    1    6    6  503    0  0.23470594328E+03 -0.52076851370E+03  0.94510081377E+03  0.11043107682E+04  0.00000000000E+00 0. -1.
         -3    1    6    6    0  503  0.59968475534E+02 -0.19092249311E+03  0.43340516113E+03  0.47737579549E+03  0.00000000000E+00 0.  1.
<mgrwt>
<rscale>  0 0.18065734E+04</rscale>
<asrwt>0</asrwt>
<pdfrwt beam="1">  1        2 0.33399435E+00 0.18065734E+04</pdfrwt>
<pdfrwt beam="2">  1       -2 0.57820977E-01 0.18065734E+04</pdfrwt>
<totfact> 0.14169380E+01</totfact>
</mgrwt>
</event>
<event>
12    3  0.4769008E-008  0.2976197E+04  0.7818608E-02  0.8250561E-01
          2   -1    0    0  501    0  0.00000000000E+00  0.00000000000E+00  0.20402673449E+04  0.20402673449E+04  0.00000000000E+00 0. -1.
         -2   -1    0    0    0  501 -0.00000000000E+00 -0.00000000000E+00 -0.10853658993E+04  0.10853658993E+04  0.00000000000E+00 0.  1.
         23    2    1    2    0    0 -0.40159893418E+03  0.12265257776E+04  0.13336385595E+02  0.12938641369E+04  0.90881013412E+02 0.  0.
        254    2    1    2    0    0  0.40159893418E+03 -0.12265257776E+04  0.94156505998E+03  0.18317691072E+04  0.89620651242E+03 0.  0.
         23    2    4    4    0    0  0.45952666329E+03 -0.12748070242E+04  0.62457149818E+03  0.14949778086E+04  0.92581793979E+02 0.  0.
         23    2    4    4    0    0 -0.57927729110E+02  0.48281246570E+02  0.31699356180E+03  0.33679129866E+03  0.85186619018E+02 0.  0.
          4    1    3    3  502    0 -0.25400061114E+03  0.81766454348E+03  0.49769786865E+02  0.85765298799E+03  0.00000000000E+00 0.  1.
         -4    1    3    3    0  502 -0.14759832305E+03  0.40886123412E+03 -0.36433401270E+02  0.43621114894E+03  0.00000000000E+00 0. -1.
         13    1    5    5    0    0  0.32223650318E+03 -0.97030301713E+03  0.43694582951E+03  0.11118659843E+04  0.00000000000E+00 0.  1.
        -13    1    5    5    0    0  0.13729016012E+03 -0.30450400704E+03  0.18762566867E+03  0.38311182430E+03  0.00000000000E+00 0. -1.
          3    1    6    6  503    0  0.18371852167E+02  0.78307342059E+00  0.23468048858E+02  0.29814215959E+02  0.00000000000E+00 0. -1.
         -3    1    6    6    0  503 -0.76299581277E+02  0.47498173149E+02  0.29352551294E+03  0.30697708270E+03  0.00000000000E+00 0.  1.
<mgrwt>
<rscale>  0 0.29761966E+04</rscale>
<asrwt>0</asrwt>
<pdfrwt beam="1">  1        2 0.31388728E+00 0.29761966E+04</pdfrwt>
<pdfrwt beam="2">  1       -2 0.16697937E+00 0.29761966E+04</pdfrwt>
<totfact> 0.12191642E+00</totfact>
</mgrwt>
</event>
<event>
12    3  0.4769008E-008  0.1141673E+04  0.7818608E-02  0.9165501E-01
          2   -1    0    0  501    0  0.00000000000E+00  0.00000000000E+00  0.23466775624E+04  0.23466775624E+04  0.00000000000E+00 0. -1.
         -2   -1    0    0    0  501 -0.00000000000E+00 -0.00000000000E+00 -0.13885760574E+03  0.13885760574E+03  0.00000000000E+00 0.  1.
         23    2    1    2    0    0 -0.71407064598E+02  0.68223180754E+02  0.43137944953E+02  0.14027796598E+03  0.89797851751E+02 0.  0.
        254    2    1    2    0    0  0.71407064598E+02 -0.68223180754E+02  0.21646820117E+04  0.23452572021E+04  0.89701157249E+03 0.  0.
         23    2    4    4    0    0 -0.18608207938E+03 -0.40221718307E+03  0.86935707059E+03  0.97997333895E+03  0.90337291593E+02 0.  0.
         23    2    4    4    0    0  0.25748914398E+03  0.33399400231E+03  0.12953249411E+04  0.13652838632E+04  0.90998193381E+02 0.  0.
          2    1    3    3  502    0 -0.66153147487E+02  0.38058256995E+02  0.66923530395E+02  0.10150580658E+03  0.00000000000E+00 0. -1.
         -2    1    3    3    0  502 -0.52539171109E+01  0.30164923760E+02 -0.23785585442E+02  0.38772159409E+02  0.00000000000E+00 0.  1.
         13    1    5    5    0    0 -0.86457053558E+01 -0.26460611926E+01  0.29536438205E+01  0.95117754784E+01  0.00000000000E+00 0.  1.
        -13    1    5    5    0    0 -0.17743637402E+03 -0.39957112187E+03  0.86640342677E+03  0.97046156348E+03  0.00000000000E+00 0. -1.
          1    1    6    6  503    0  0.80776206370E+02  0.52101139478E+02  0.35732377085E+03  0.37002648752E+03  0.00000000000E+00 0. -1.
         -1    1    6    6    0  503  0.17671293761E+03  0.28189286283E+03  0.93800117023E+03  0.99525737565E+03  0.00000000000E+00 0.  1.
<mgrwt>
<rscale>  0 0.11416725E+04</rscale>
<asrwt>0</asrwt>
<pdfrwt beam="1">  1        2 0.36102729E+00 0.11416725E+04</pdfrwt>
<pdfrwt beam="2">  1       -2 0.21362710E-01 0.11416725E+04</pdfrwt>
<totfact> 0.80798127E+01</totfact>
</mgrwt>
</event>
<event>
12    3  0.4769008E-008  0.1695720E+04  0.7818608E-02  0.8763809E-01
         -1   -1    0    0    0  501 -0.00000000000E+00  0.00000000000E+00  0.34036837729E+03  0.34036837729E+03  0.00000000000E+00 0.  1.
          1   -1    0    0  501    0  0.00000000000E+00 -0.00000000000E+00 -0.21120241061E+04  0.21120241061E+04  0.00000000000E+00 0. -1.
         23    2    1    2    0    0 -0.12900722502E+03 -0.51721245481E+03 -0.22525568205E+03  0.58701209361E+03  0.98445356564E+02 0.  0.
        254    2    1    2    0    0  0.12900722502E+03  0.51721245481E+03 -0.15464000468E+04  0.18653803898E+04  0.89673814821E+03 0.  0.
         23    2    4    4    0    0  0.59046308629E+02  0.57765173293E+03 -0.39805795723E+03  0.70960625785E+03  0.89010745075E+02 0.  0.
         23    2    4    4    0    0  0.69960916387E+02 -0.60439278126E+02 -0.11483420896E+04  0.11557741320E+04  0.92611302165E+02 0.  0.
          4    1    3    3  502    0 -0.12343228085E+03 -0.51038246291E+03 -0.20281722930E+03  0.56290373502E+03  0.00000000000E+00 0.  1.
         -4    1    3    3    0  502 -0.55749441677E+01 -0.68299919007E+01 -0.22438452752E+02  0.24108358587E+02  0.00000000000E+00 0. -1.
         13    1    5    5    0    0  0.61478109472E+02  0.57870721472E+03 -0.40012494070E+03  0.70624469306E+03  0.00000000000E+00 0. -1.
        -13    1    5    5    0    0 -0.24318008422E+01 -0.10554817836E+01  0.20669834705E+01  0.33615647843E+01  0.00000000000E+00 0.  1.
          4    1    6    6  503    0  0.37496612143E+02 -0.83088222247E+02 -0.77766713047E+03  0.78299158004E+03  0.00000000000E+00 0. -1.
         -4    1    6    6    0  503  0.32464304244E+02  0.22648944120E+02 -0.37067495910E+03  0.37278255193E+03  0.00000000000E+00 0.  1.
<mgrwt>
<rscale>  0 0.16957196E+04</rscale>
<asrwt>0</asrwt>
<pdfrwt beam="1">  1        1 0.32492679E+00 0.16957196E+04</pdfrwt>
<pdfrwt beam="2">  1       -1 0.52364365E-01 0.16957196E+04</pdfrwt>
<totfact> 0.87507725E+00</totfact>
</mgrwt>
</event>
<event>
12    3  0.4769008E-008  0.1403359E+04  0.7818608E-02  0.8951391E-01
          2   -1    0    0  501    0  0.00000000000E+00  0.00000000000E+00  0.87161326527E+03  0.87161326527E+03  0.00000000000E+00 0. -1.
         -2   -1    0    0    0  501 -0.00000000000E+00 -0.00000000000E+00 -0.56487697092E+03  0.56487697092E+03  0.00000000000E+00 0.  1.
         23    2    1    2    0    0 -0.22859417232E+03 -0.31949246471E+03 -0.75481373845E+01  0.40340658361E+03  0.91373774646E+02 0.  0.
        254    2    1    2    0    0  0.22859417232E+03  0.31949246471E+03  0.31428443173E+03  0.10330836526E+04  0.90230615569E+03 0.  0.
         23    2    4    4    0    0 -0.17302164315E+03  0.32073120336E+02 -0.22201883106E+03  0.29840725918E+03  0.93751570325E+02 0.  0.
         23    2    4    4    0    0  0.40161581546E+03  0.28741934437E+03  0.53630326279E+03  0.73467639341E+03  0.90681148040E+02 0.  0.
          1    1    3    3  502    0 -0.68298759666E+02 -0.10866345389E+03  0.39772139224E+02  0.13436625262E+03  0.00000000000E+00 0. -1.
         -1    1    3    3    0  502 -0.16029541265E+03 -0.21082901082E+03 -0.47320276609E+02  0.26904033099E+03  0.00000000000E+00 0.  1.
         13    1    5    5    0    0 -0.35803612241E+02  0.24083299874E+02 -0.11915843773E+03  0.12673056958E+03  0.00000000000E+00 0.  1.
        -13    1    5    5    0    0 -0.13721803090E+03  0.79898204620E+01 -0.10286039333E+03  0.17167668960E+03  0.00000000000E+00 0. -1.
          1    1    6    6  503    0  0.27864024667E+03  0.15067412821E+03  0.36576211953E+03  0.48386465882E+03  0.00000000000E+00 0. -1.
         -1    1    6    6    0  503  0.12297556879E+03  0.13674521616E+03  0.17054114326E+03  0.25081173459E+03  0.00000000000E+00 0.  1.
<mgrwt>
<rscale>  0 0.14033592E+04</rscale>
<asrwt>0</asrwt>
<pdfrwt beam="1">  1        2 0.13409435E+00 0.14033592E+04</pdfrwt>
<pdfrwt beam="2">  1       -2 0.86904149E-01 0.14033592E+04</pdfrwt>
<totfact> 0.34185219E+01</totfact>
</mgrwt>
</event>
<event>
12    3  0.4769008E-008  0.1592753E+04  0.7818608E-02  0.8825013E-01
          2   -1    0    0  501    0  0.00000000000E+00  0.00000000000E+00  0.19409603374E+04  0.19409603374E+04  0.00000000000E+00 0. -1.
         -2   -1    0    0    0  501 -0.00000000000E+00 -0.00000000000E+00 -0.32675331579E+03  0.32675331579E+03  0.00000000000E+00 0.  1.
         23    2    1    2    0    0  0.27136581488E+03 -0.15736703720E+03 -0.75238258373E+02  0.33540547729E+03  0.91827276922E+02 0.  0.
        254    2    1    2    0    0 -0.27136581488E+03  0.15736703720E+03  0.16894452799E+04  0.19323081759E+04  0.88384712631E+03 0.  0.
         23    2    4    4    0    0 -0.53970399448E+03  0.29485024396E+03  0.11610735217E+04  0.13169612480E+04  0.89878460833E+02 0.  0.
         23    2    4    4    0    0  0.26833817960E+03 -0.13748320675E+03  0.52837175820E+03  0.61534692790E+03  0.92564118520E+02 0.  0.
          1    1    3    3  502    0  0.24669063045E+02 -0.45130515342E+02  0.76206893468E+01  0.51994239995E+02  0.00000000000E+00 0. -1.
         -1    1    3    3    0  502  0.24669675184E+03 -0.11223652186E+03 -0.82858947720E+02  0.28341123729E+03  0.00000000000E+00 0.  1.
         13    1    5    5    0    0 -0.29142472352E+03  0.14553259077E+03  0.52225788266E+03  0.61551718128E+03  0.00000000000E+00 0.  1.
        -13    1    5    5    0    0 -0.24827927096E+03  0.14931765319E+03  0.63881563908E+03  0.70144406668E+03  0.00000000000E+00 0. -1.
          2    1    6    6  503    0  0.10561416952E+03 -0.19142179394E+02  0.12635371248E+03  0.16578913261E+03  0.00000000000E+00 0. -1.
         -2    1    6    6    0  503  0.16272401008E+03 -0.11834102736E+03  0.40201804573E+03  0.44955779529E+03  0.00000000000E+00 0.  1.
<mgrwt>
<rscale>  0 0.15927526E+04</rscale>
<asrwt>0</asrwt>
<pdfrwt beam="1">  1        2 0.29860927E+00 0.15927526E+04</pdfrwt>
<pdfrwt beam="2">  1       -2 0.50269742E-01 0.15927526E+04</pdfrwt>
<totfact> 0.25880501E+01</totfact>
</mgrwt>
</event>
<event>
12    3  0.4769008E-008  0.2660328E+04  0.7818608E-02  0.8347993E-01
         -1   -1    0    0    0  501 -0.00000000000E+00  0.00000000000E+00  0.92425043206E+03  0.92425043206E+03  0.00000000000E+00 0.  1.
          1   -1    0    0  501    0  0.00000000000E+00 -0.00000000000E+00 -0.19143475727E+04  0.19143475727E+04  0.00000000000E+00 0. -1.
         23    2    1    2    0    0 -0.91741783292E+03  0.64471076278E+03 -0.17412594792E+03  0.11380454445E+04  0.86718741568E+02 0.  0.
        254    2    1    2    0    0  0.91741783292E+03 -0.64471076278E+03 -0.81597119269E+03  0.17005525603E+04  0.98425737240E+03 0.  0.
         23    2    4    4    0    0  0.10916023773E+04 -0.38707074634E+03 -0.69842091647E+03  0.13556405486E+04  0.92466250412E+02 0.  0.
         23    2    4    4    0    0 -0.17418454443E+03 -0.25764001645E+03 -0.11755027623E+03  0.34491201170E+03  0.91801932333E+02 0.  0.
          4    1    3    3  502    0 -0.16479685221E+03  0.12188018301E+03  0.14576234007E+01  0.20497537944E+03  0.00000000000E+00 0. -1.
         -4    1    3    3    0  502 -0.75262098070E+03  0.52283057977E+03 -0.17558357132E+03  0.93307006503E+03  0.00000000000E+00 0.  1.
         13    1    5    5    0    0  0.82405133218E+03 -0.30423756043E+03 -0.48422097598E+03  0.10030408989E+04  0.00000000000E+00 0. -1.
        -13    1    5    5    0    0  0.26755104517E+03 -0.82833185906E+02 -0.21419994048E+03  0.35259964969E+03  0.00000000000E+00 0.  1.
          3    1    6    6  503    0 -0.17635770991E+03 -0.26331585657E+03 -0.11923309610E+03  0.33860569010E+03  0.00000000000E+00 0. -1.
         -3    1    6    6    0  503  0.21731654784E+01  0.56758401224E+01  0.16828198790E+01  0.63063215932E+01  0.00000000000E+00 0.  1.
<mgrwt>
<rscale>  0 0.26603282E+04</rscale>
<asrwt>0</asrwt>
<pdfrwt beam="1">  1        1 0.29451501E+00 0.26603282E+04</pdfrwt>
<pdfrwt beam="2">  1       -1 0.14219238E+00 0.26603282E+04</pdfrwt>
<totfact> 0.12009701E+00</totfact>
</mgrwt>
</event>
<event>
12    3  0.4769008E-008  0.1794144E+04  0.7818608E-02  0.8709420E-01
         -1   -1    0    0    0  501 -0.00000000000E+00  0.00000000000E+00  0.62145242319E+03  0.62145242319E+03  0.00000000000E+00 0. -1.
          1   -1    0    0  501    0  0.00000000000E+00 -0.00000000000E+00 -0.12949308482E+04  0.12949308482E+04  0.00000000000E+00 0.  1.
         23    2    1    2    0    0 -0.61523648446E+03  0.17604956816E+03 -0.28702754463E+02  0.64732482938E+03  0.93253441560E+02 0.  0.
        254    2    1    2    0    0  0.61523648446E+03 -0.17604956816E+03 -0.64477567057E+03  0.12690584420E+04  0.88615138757E+03 0.  0.
         23    2    4    4    0    0  0.58128775829E+03 -0.34058411964E+03 -0.93462153446E+02  0.68565629344E+03  0.86581626869E+02 0.  0.
         23    2    4    4    0    0  0.33948726164E+02  0.16453455148E+03 -0.55131351713E+03  0.58340214860E+03  0.90483911178E+02 0.  0.
          1    1    3    3  502    0 -0.28911054047E+03  0.37300472167E+02  0.27284674426E+01  0.29151959517E+03  0.00000000000E+00 0. -1.
         -1    1    3    3    0  502 -0.32612594399E+03  0.13874909599E+03 -0.31431221906E+02  0.35580523421E+03  0.00000000000E+00 0.  1.
         13    1    5    5    0    0  0.31685563319E+03 -0.18697484448E+03 -0.94468850192E+02  0.37984397903E+03  0.00000000000E+00 0.  1.
        -13    1    5    5    0    0  0.26443212511E+03 -0.15360927516E+03  0.10066967464E+01  0.30581231441E+03  0.00000000000E+00 0. -1.
          1    1    6    6  503    0  0.40381426503E+02  0.46162443399E+02 -0.10487545384E+03  0.12149276359E+03  0.00000000000E+00 0. -1.
         -1    1    6    6    0  503 -0.64327003393E+01  0.11837210808E+03 -0.44643806328E+03  0.46190938500E+03  0.00000000000E+00 0.  1.
<mgrwt>
<rscale>  0 0.17941437E+04</rscale>
<asrwt>0</asrwt>
<pdfrwt beam="1">  1        1 0.19922013E+00 0.17941437E+04</pdfrwt>
<pdfrwt beam="2">  1       -1 0.95608067E-01 0.17941437E+04</pdfrwt>
<totfact> 0.90897903E+00</totfact>
</mgrwt>
</event>
<event>
12    3  0.4769008E-008  0.3003472E+04  0.7818608E-02  0.8242740E-01
          2   -1    0    0  501    0  0.00000000000E+00  0.00000000000E+00  0.12808724750E+04  0.12808724750E+04  0.00000000000E+00 0.  1.
         -2   -1    0    0    0  501 -0.00000000000E+00 -0.00000000000E+00 -0.17606836496E+04  0.17606836496E+04  0.00000000000E+00 0. -1.
         23    2    1    2    0    0  0.10006804801E+03  0.11661075394E+04 -0.92561356446E+03  0.14950735024E+04  0.93080068054E+02 0.  0.
        254    2    1    2    0    0 -0.10006804801E+03 -0.11661075394E+04  0.44580238984E+03  0.15464826221E+04  0.90722010674E+03 0.  0.
         23    2    4    4    0    0 -0.47640742591E+03 -0.81653963369E+03  0.20520389874E+03  0.97211215870E+03  0.95877005462E+02 0.  0.
         23    2    4    4    0    0  0.37633937791E+03 -0.34956790574E+03  0.24059849109E+03  0.57437046345E+03  0.90469593127E+02 0.  0.
          2    1    3    3  502    0  0.92957734566E+02  0.55611572656E+03 -0.45919069455E+03  0.72716018573E+03  0.00000000000E+00 0. -1.
         -2    1    3    3    0  502  0.71103134413E+01  0.60999181287E+03 -0.46642286991E+03  0.76791331666E+03  0.00000000000E+00 0.  1.
         13    1    5    5    0    0 -0.32646252658E+02 -0.32100552661E+02 -0.67112404099E+01  0.46273794329E+02  0.00000000000E+00 0. -1.
        -13    1    5    5    0    0 -0.44376117326E+03 -0.78443908103E+03  0.21191513915E+03  0.92583836437E+03  0.00000000000E+00 0.  1.
          4    1    6    6  503    0  0.41496942700E+02 -0.85162783334E+02  0.38187113678E+02  0.10214182087E+03  0.00000000000E+00 0. -1.
         -4    1    6    6    0  503  0.33484243521E+03 -0.26440512240E+03  0.20241137742E+03  0.47222864258E+03  0.00000000000E+00 0.  1.
<mgrwt>
<rscale>  0 0.30034721E+04</rscale>
<asrwt>0</asrwt>
<pdfrwt beam="1">  1        2 0.19705730E+00 0.30034721E+04</pdfrwt>
<pdfrwt beam="2">  1       -2 0.27087441E+00 0.30034721E+04</pdfrwt>
<totfact> 0.69495444E-01</totfact>
</mgrwt>
</event>
<event>
12    3  0.6596792E-008  0.1636069E+04  0.7818608E-02  0.8798691E-01
          1   -1    0    0  501    0  0.00000000000E+00  0.00000000000E+00  0.18914838833E+04  0.18914838833E+04  0.00000000000E+00 0. -1.
         -1   -1    0    0    0  501 -0.00000000000E+00 -0.00000000000E+00 -0.35378612073E+03  0.35378612073E+03  0.00000000000E+00 0.  1.
         23    2    1    2    0    0  0.33783713948E+03 -0.26651814476E+03  0.37822041711E+02  0.44213622810E+03  0.94276630473E+02 0.  0.
        254    2    1    2    0    0 -0.33783713948E+03  0.26651814476E+03  0.14998757209E+04  0.18031337760E+04  0.90360299999E+03 0.  0.
         23    2    4    4    0    0 -0.52120838112E+03 -0.98816242238E+02  0.10927020601E+04  0.12180542743E+04  0.90750188304E+02 0.  0.
         23    2    4    4    0    0  0.18337124164E+03  0.36533438700E+03  0.40717366082E+03  0.58507950170E+03  0.97125726064E+02 0.  0.
          1    1    3    3  502    0  0.18853626905E+02 -0.83808047194E+01 -0.18784258625E+02  0.27902428341E+02  0.00000000000E+00 0. -1.
         -1    1    3    3    0  502  0.31898351258E+03 -0.25813734004E+03  0.56606300336E+02  0.41423379976E+03  0.00000000000E+00 0.  1.
         13    1    5    5    0    0 -0.36826804342E+03 -0.77205340248E+02  0.86050592916E+03  0.93917648528E+03  0.00000000000E+00 0. -1.
        -13    1    5    5    0    0 -0.15294033770E+03 -0.21610901990E+02  0.23219613091E+03  0.27887778898E+03  0.00000000000E+00 0.  1.
          1    1    6    6  503    0  0.88166193526E+02  0.22501601077E+03  0.17874065808E+03  0.30058893132E+03  0.00000000000E+00 0. -1.
         -1    1    6    6    0  503  0.95205048111E+02  0.14031837623E+03  0.22843300274E+03  0.28449057038E+03  0.00000000000E+00 0.  1.
<mgrwt>
<rscale>  0 0.16360694E+04</rscale>
<asrwt>0</asrwt>
<pdfrwt beam="1">  1        1 0.29099751E+00 0.16360694E+04</pdfrwt>
<pdfrwt beam="2">  1       -1 0.54428635E-01 0.16360694E+04</pdfrwt>
<totfact> 0.11519110E+01</totfact>
</mgrwt>
</event>
<event>
12    3  0.4769008E-008  0.1496439E+04  0.7818608E-02  0.8886824E-01
         -2   -1    0    0    0  501 -0.00000000000E+00  0.00000000000E+00  0.91999695550E+03  0.91999695550E+03  0.00000000000E+00 0.  1.
          2   -1    0    0  501    0  0.00000000000E+00 -0.00000000000E+00 -0.60851545597E+03  0.60851545597E+03  0.00000000000E+00 0. -1.
         23    2    1    2    0    0  0.34401374411E+03 -0.20031852618E+03  0.35560654021E+03  0.54145013479E+03  0.90770418956E+02 0.  0.
        254    2    1    2    0    0 -0.34401374411E+03  0.20031852618E+03 -0.44125040677E+02  0.98706227667E+03  0.90214851923E+03 0.  0.
         23    2    4    4    0    0 -0.55731334952E+03 -0.18317913046E+02 -0.23820441441E+03  0.61324187321E+03  0.91599871826E+02 0.  0.
         23    2    4    4    0    0  0.21329960540E+03  0.21863643923E+03  0.19407937373E+03  0.37382040347E+03  0.93681783256E+02 0.  0.
          2    1    3    3  502    0  0.14982726565E+03 -0.13241618082E+03  0.14462214198E+03  0.24677483346E+03  0.00000000000E+00 0. -1.
         -2    1    3    3    0  502  0.19418647846E+03 -0.67902345362E+02  0.21098439822E+03  0.29467530134E+03  0.00000000000E+00 0.  1.
         13    1    5    5    0    0 -0.43421432891E+03 -0.50147378294E+02 -0.19830584574E+03  0.47998130321E+03  0.00000000000E+00 0.  1.
        -13    1    5    5    0    0 -0.12309902061E+03  0.31829465248E+02 -0.39898568675E+02  0.13326056999E+03  0.00000000000E+00 0. -1.
          3    1    6    6  503    0  0.25355126274E+02  0.78384374496E+02  0.72140669827E+02  0.10950465212E+03  0.00000000000E+00 0. -1.
         -3    1    6    6    0  503  0.18794447913E+03  0.14025206473E+03  0.12193870391E+03  0.26431575134E+03  0.00000000000E+00 0.  1.
<mgrwt>
<rscale>  0 0.14964389E+04</rscale>
<asrwt>0</asrwt>
<pdfrwt beam="1">  1        2 0.93617763E-01 0.14964389E+04</pdfrwt>
<pdfrwt beam="2">  1       -2 0.14153799E+00 0.14964389E+04</pdfrwt>
<totfact> 0.16438539E+01</totfact>
</mgrwt>
</event>
<event>
12    3  0.4769008E-008  0.2194385E+04  0.7818608E-02  0.8520769E-01
         -1   -1    0    0    0  501 -0.00000000000E+00  0.00000000000E+00  0.12074813577E+04  0.12074813577E+04  0.00000000000E+00 0.  1.
          1   -1    0    0  501    0  0.00000000000E+00 -0.00000000000E+00 -0.99697707055E+03  0.99697707055E+03  0.00000000000E+00 0. -1.
         23    2    1    2    0    0 -0.72168233105E+03 -0.21688595157E+03  0.58312236652E+03  0.95764274502E+03  0.95828126450E+02 0.  0.
        254    2    1    2    0    0  0.72168233105E+03  0.21688595157E+03 -0.37261807936E+03  0.12468156832E+04  0.92078239119E+03 0.  0.
         23    2    4    4    0    0  0.90114308819E+03  0.32004780872E+03 -0.26659816467E+03  0.99700770048E+03  0.91979933487E+02 0.  0.
         23    2    4    4    0    0 -0.17946075714E+03 -0.10316185715E+03 -0.10601991470E+03  0.24980798275E+03  0.91188123184E+02 0.  0.
          1    1    3    3  502    0 -0.34401281279E+03 -0.89505455257E+02  0.21720733495E+03  0.41657540523E+03  0.00000000000E+00 0. -1.
         -1    1    3    3    0  502 -0.37766951826E+03 -0.12738049631E+03  0.36591503157E+03  0.54106733979E+03  0.00000000000E+00 0.  1.
         13    1    5    5    0    0  0.35313302739E+03  0.10286263323E+03 -0.14351568554E+03  0.39481693016E+03  0.00000000000E+00 0.  1.
        -13    1    5    5    0    0  0.54801006080E+03  0.21718517549E+03 -0.12308247913E+03  0.60219077032E+03  0.00000000000E+00 0. -1.
          4    1    6    6  503    0 -0.11122729185E+03 -0.13445723466E+02 -0.66931213009E+02  0.13050703125E+03  0.00000000000E+00 0.  1.
         -4    1    6    6    0  503 -0.68233465284E+02 -0.89716133679E+02 -0.39088701689E+02  0.11930095149E+03  0.00000000000E+00 0. -1.
<mgrwt>
<rscale>  0 0.21943849E+04</rscale>
<asrwt>0</asrwt>
<pdfrwt beam="1">  1        1 0.15338109E+00 0.21943849E+04</pdfrwt>
<pdfrwt beam="2">  1       -1 0.18576636E+00 0.21943849E+04</pdfrwt>
<totfact> 0.26268113E+00</totfact>
</mgrwt>
</event>
<event>
12    3  0.4769008E-008  0.1502392E+04  0.7818608E-02  0.8882864E-01
         -2   -1    0    0    0  501 -0.00000000000E+00  0.00000000000E+00  0.81852413407E+03  0.81852413407E+03  0.00000000000E+00 0.  1.
          2   -1    0    0  501    0  0.00000000000E+00 -0.00000000000E+00 -0.68940562968E+03  0.68940562968E+03  0.00000000000E+00 0. -1.
         23    2    1    2    0    0 -0.19888639034E+03 -0.80245218753E+02 -0.38757641389E+03  0.45207437911E+03  0.90336461338E+02 0.  0.
        254    2    1    2    0    0  0.19888639034E+03  0.80245218753E+02  0.51669491828E+03  0.10558553846E+04  0.89546739936E+03 0.  0.
         23    2    4    4    0    0 -0.19850554014E+03  0.32755184731E+03  0.61146133258E+02  0.39635854788E+03  0.81649168561E+02 0.  0.
         23    2    4    4    0    0  0.39739193049E+03 -0.24730662856E+03  0.45554878502E+03  0.65949683676E+03  0.91271393220E+02 0.  0.
          2    1    3    3  502    0 -0.15261234418E+03 -0.95743042509E+02 -0.33479116346E+03  0.38018729715E+03  0.00000000000E+00 0. -1.
         -2    1    3    3    0  502 -0.46274046161E+02  0.15497823757E+02 -0.52785250432E+02  0.71887081958E+02  0.00000000000E+00 0.  1.
         13    1    5    5    0    0 -0.40852187351E+01  0.29151864287E+01  0.14193312385E+02  0.15054482405E+02  0.00000000000E+00 0.  1.
        -13    1    5    5    0    0 -0.19442032141E+03  0.32463666088E+03  0.46952820873E+02  0.38130406548E+03  0.00000000000E+00 0. -1.
          4    1    6    6  503    0  0.26859456163E+03 -0.18141308336E+03  0.25602276382E+03  0.41303922447E+03  0.00000000000E+00 0. -1.
         -4    1    6    6    0  503  0.12879736885E+03 -0.65893545192E+02  0.19952602120E+03  0.24645761229E+03  0.00000000000E+00 0.  1.
<mgrwt>
<rscale>  0 0.15023916E+04</rscale>
<asrwt>0</asrwt>
<pdfrwt beam="1">  1        2 0.10606241E+00 0.15023916E+04</pdfrwt>
<pdfrwt beam="2">  1       -2 0.12592679E+00 0.15023916E+04</pdfrwt>
<totfact> 0.18987551E+01</totfact>
</mgrwt>
</event>
<event>
12    3  0.4769008E-008  0.2078836E+04  0.7818608E-02  0.8570624E-01
         -2   -1    0    0    0  501 -0.00000000000E+00  0.00000000000E+00  0.91794304910E+03  0.91794304910E+03  0.00000000000E+00 0. -1.
          2   -1    0    0  501    0  0.00000000000E+00 -0.00000000000E+00 -0.11769680066E+04  0.11769680066E+04  0.00000000000E+00 0.  1.
         23    2    1    2    0    0 -0.58770838272E+03 -0.38803652995E+02  0.41670221758E+03  0.72772570835E+03  0.95063672613E+02 0.  0.
        254    2    1    2    0    0  0.58770838272E+03  0.38803652995E+02 -0.67572717505E+03  0.13671853473E+04  0.10323186001E+04 0.  0.
         23    2    4    4    0    0  0.18739262557E+03 -0.40612714786E+03 -0.60641170275E+03  0.75826329832E+03  0.84692502585E+02 0.  0.
         23    2    4    4    0    0  0.40031575715E+03  0.44493080086E+03 -0.69315472296E+02  0.60892204899E+03  0.88120962761E+02 0.  0.
          3    1    3    3  502    0 -0.57746751948E+03 -0.34571007618E+02  0.38696943206E+03  0.69599513789E+03  0.00000000000E+00 0. -1.
         -3    1    3    3    0  502 -0.10240863244E+02 -0.42326453772E+01  0.29732785520E+02  0.31730570459E+02  0.00000000000E+00 0.  1.
         13    1    5    5    0    0  0.58242884936E+02 -0.16844943673E+03 -0.30508816994E+03  0.35333587111E+03  0.00000000000E+00 0. -1.
        -13    1    5    5    0    0  0.12914974064E+03 -0.23767771113E+03 -0.30132353282E+03  0.40492742721E+03  0.00000000000E+00 0.  1.
          3    1    6    6  503    0  0.26141071094E+03  0.24549548002E+03 -0.72458817387E+02  0.36586045252E+03  0.00000000000E+00 0. -1.
         -3    1    6    6    0  503  0.13890504622E+03  0.19943532084E+03  0.31433450910E+01  0.24306159648E+03  0.00000000000E+00 0.  1.
<mgrwt>
<rscale>  0 0.20788358E+04</rscale>
<asrwt>0</asrwt>
<pdfrwt beam="1">  1        2 0.18107200E+00 0.20788358E+04</pdfrwt>
<pdfrwt beam="2">  1       -2 0.14122201E+00 0.20788358E+04</pdfrwt>
<totfact> 0.63386539E+00</totfact>
</mgrwt>
</event>
<event>
12    3  0.4769008E-008  0.1274681E+04  0.7818608E-02  0.9049888E-01
          4   -1    0    0  501    0  0.00000000000E+00  0.00000000000E+00  0.38051837781E+03  0.38051837781E+03  0.00000000000E+00 0. -1.
         -4   -1    0    0    0  501 -0.00000000000E+00 -0.00000000000E+00 -0.10674993366E+04  0.10674993366E+04  0.00000000000E+00 0.  1.
         23    2    1    2    0    0  0.23035553660E+03  0.20493960845E+03 -0.22019420930E+03  0.39006251830E+03  0.92732745159E+02 0.  0.
        254    2    1    2    0    0 -0.23035553660E+03 -0.20493960845E+03 -0.46678674944E+03  0.10579551961E+04  0.89795067296E+03 0.  0.
         23    2    4    4    0    0  0.33736317083E+03 -0.10650842373E+03 -0.17361415194E+03  0.40470552152E+03  0.92123460800E+02 0.  0.
         23    2    4    4    0    0 -0.56771870743E+03 -0.98431184720E+02 -0.29317259750E+03  0.65324967454E+03  0.93764260103E+02 0.  0.
          3    1    3    3  502    0  0.18202441527E+03  0.10563577886E+03 -0.12907598433E+03  0.24688542942E+03  0.00000000000E+00 0. -1.
         -3    1    3    3    0  502  0.48331121330E+02  0.99303829591E+02 -0.91118224964E+02  0.14317708888E+03  0.00000000000E+00 0.  1.
         13    1    5    5    0    0  0.29261673858E+03 -0.10740498032E+03 -0.17929191123E+03  0.35959139996E+03  0.00000000000E+00 0. -1.
        -13    1    5    5    0    0  0.44746432254E+02  0.89655658682E+00  0.56777592844E+01  0.45114121555E+02  0.00000000000E+00 0.  1.
          2    1    6    6  503    0 -0.45881368223E+03 -0.96641722999E+02 -0.19937873000E+03  0.50951103580E+03  0.00000000000E+00 0. -1.
         -2    1    6    6    0  503 -0.10890502520E+03 -0.17894617216E+01 -0.93793867495E+02  0.14373863874E+03  0.00000000000E+00 0.  1.
<mgrwt>
<rscale>  0 0.12746813E+04</rscale>
<asrwt>0</asrwt>
<pdfrwt beam="1">  1        4 0.58541291E-01 0.12746813E+04</pdfrwt>
<pdfrwt beam="2">  1       -4 0.16423066E+00 0.12746813E+04</pdfrwt>
<totfact> 0.12617013E+00</totfact>
</mgrwt>
</event>
<event>
12    3  0.4769008E-008  0.2308458E+04  0.7818608E-02  0.8474594E-01
         -3   -1    0    0    0  501 -0.00000000000E+00  0.00000000000E+00  0.17090111056E+04  0.17090111056E+04  0.00000000000E+00 0.  1.
          3   -1    0    0  501    0  0.00000000000E+00 -0.00000000000E+00 -0.77954119064E+03  0.77954119064E+03  0.00000000000E+00 0. -1.
         23    2    1    2    0    0 -0.32505240496E+03 -0.72192456311E+03  0.99608667918E+03  0.12756490622E+04  0.90871980026E+02 0.  0.
        254    2    1    2    0    0  0.32505240496E+03  0.72192456311E+03 -0.66616764186E+02  0.12129032340E+04  0.91644002589E+03 0.  0.
         23    2    4    4    0    0 -0.24163814889E+03  0.21744926219E+03  0.21195410195E+03  0.39945565867E+03  0.94694800717E+02 0.  0.
         23    2    4    4    0    0  0.56669055385E+03  0.50447530092E+03 -0.27857086613E+03  0.81344757536E+03  0.91987593372E+02 0.  0.
          2    1    3    3  502    0 -0.20559351246E+02 -0.83600706505E+02  0.14958504867E+03  0.17259041641E+03  0.00000000000E+00 0. -1.
         -2    1    3    3    0  502 -0.30449305371E+03 -0.63832385661E+03  0.84650163050E+03  0.11030586458E+04  0.00000000000E+00 0.  1.
         13    1    5    5    0    0 -0.96094594504E+02  0.50998861734E+02  0.29312329894E+02  0.11266884075E+03  0.00000000000E+00 0.  1.
        -13    1    5    5    0    0 -0.14554355439E+03  0.16645040046E+03  0.18264177205E+03  0.28678681792E+03  0.00000000000E+00 0. -1.
          1    1    6    6  503    0  0.46294685310E+03  0.37950061090E+03 -0.24908079209E+03  0.64836852442E+03  0.00000000000E+00 0. -1.
         -1    1    6    6    0  503  0.10374370075E+03  0.12497469003E+03 -0.29490074041E+02  0.16507905094E+03  0.00000000000E+00 0.  1.
<mgrwt>
<rscale>  0 0.23084580E+04</rscale>
<asrwt>0</asrwt>
<pdfrwt beam="1">  1        3 0.11992941E+00 0.23084580E+04</pdfrwt>
<pdfrwt beam="2">  1       -3 0.26292479E+00 0.23084580E+04</pdfrwt>
<totfact> 0.82565394E-02</totfact>
</mgrwt>
</event>
<event>
12    3  0.4769008E-008  0.2029253E+04  0.7818608E-02  0.8593065E-01
          2   -1    0    0  501    0  0.00000000000E+00  0.00000000000E+00  0.29759178655E+04  0.29759178655E+04  0.00000000000E+00 0. -1.
         -2   -1    0    0    0  501 -0.00000000000E+00 -0.00000000000E+00 -0.34593243702E+03  0.34593243702E+03  0.00000000000E+00 0.  1.
         23    2    1    2    0    0  0.54866278932E+02 -0.64110798286E+03  0.18792829602E+04  0.19884046938E+04  0.89549025096E+02 0.  0.
        254    2    1    2    0    0 -0.54866278932E+02  0.64110798286E+03  0.75070246828E+03  0.13334456086E+04  0.89470287864E+03 0.  0.
         23    2    4    4    0    0  0.13086207087E+03  0.20253060995E+03  0.80543494614E+03  0.84561730115E+03  0.90551852389E+02 0.  0.
         23    2    4    4    0    0 -0.18572834980E+03  0.43857737291E+03 -0.54732477864E+02  0.48782830749E+03  0.90198012762E+02 0.  0.
          1    1    3    3  502    0  0.41405843542E+02 -0.63115093876E+03  0.18185669131E+04  0.19254224390E+04  0.00000000000E+00 0. -1.
         -1    1    3    3    0  502  0.13460435390E+02 -0.99570441033E+01  0.60716047077E+02  0.62982254809E+02  0.00000000000E+00 0.  1.
         13    1    5    5    0    0  0.12066347869E+03  0.10632864224E+03  0.50086834916E+03  0.52605566097E+03  0.00000000000E+00 0.  1.
        -13    1    5    5    0    0  0.10198592180E+02  0.96201967710E+02  0.30456659699E+03  0.31956164018E+03  0.00000000000E+00 0. -1.
          3    1    6    6  503    0 -0.11061035740E+01 -0.45554884286E+01 -0.76898743020E+00  0.47505033004E+01  0.00000000000E+00 0. -1.
         -3    1    6    6    0  503 -0.18462224622E+03  0.44313286134E+03 -0.53963490434E+02  0.48307780418E+03  0.00000000000E+00 0.  1.
<mgrwt>
<rscale>  0 0.20292526E+04</rscale>
<asrwt>0</asrwt>
<pdfrwt beam="1">  1        2 0.45783350E+00 0.20292526E+04</pdfrwt>
<pdfrwt beam="2">  1       -2 0.53220377E-01 0.20292526E+04</pdfrwt>
<totfact> 0.55730742E+00</totfact>
</mgrwt>
</event>
<event>
12    3  0.4769008E-008  0.1651163E+04  0.7818608E-02  0.8789719E-01
         -1   -1    0    0    0  501 -0.00000000000E+00  0.00000000000E+00  0.67621947318E+03  0.67621947318E+03  0.00000000000E+00 0.  1.
          1   -1    0    0  501    0  0.00000000000E+00 -0.00000000000E+00 -0.10079343796E+04  0.10079343796E+04  0.00000000000E+00 0. -1.
         23    2    1    2    0    0  0.40186942285E+03  0.31002091447E+03  0.15514596332E+03  0.53841621491E+03  0.90607671360E+02 0.  0.
        254    2    1    2    0    0 -0.40186942285E+03 -0.31002091447E+03 -0.48686086970E+03  0.11457376378E+04  0.90447179494E+03 0.  0.
         23    2    4    4    0    0  0.10215453510E+03  0.19901619886E+03  0.48929666389E+02  0.24660114426E+03  0.91515111589E+02 0.  0.
         23    2    4    4    0    0 -0.50402395795E+03 -0.50903711332E+03 -0.53579053609E+03  0.89913649356E+03  0.90642167719E+02 0.  0.
          3    1    3    3  502    0  0.40056355731E+03  0.31136469820E+03  0.16099310991E+03  0.53227616908E+03  0.00000000000E+00 0.  1.
         -3    1    3    3    0  502  0.13058655387E+01 -0.13437837338E+01 -0.58471465876E+01  0.61400458259E+01  0.00000000000E+00 0. -1.
         13    1    5    5    0    0  0.57511442270E+02  0.17737577158E+03  0.16206249227E+02  0.18716936942E+03  0.00000000000E+00 0. -1.
        -13    1    5    5    0    0  0.44643092826E+02  0.21640427279E+02  0.32723417163E+02  0.59431774841E+02  0.00000000000E+00 0.  1.
          4    1    6    6  503    0 -0.43852054668E+03 -0.43960649933E+03 -0.49991844654E+03  0.79716535129E+03  0.00000000000E+00 0. -1.
         -4    1    6    6    0  503 -0.65503411265E+02 -0.69430613994E+02 -0.35872089553E+02  0.10197114227E+03  0.00000000000E+00 0.  1.
<mgrwt>
<rscale>  0 0.16511631E+04</rscale>
<asrwt>0</asrwt>
<pdfrwt beam="1">  1        1 0.15506683E+00 0.16511631E+04</pdfrwt>
<pdfrwt beam="2">  1       -1 0.10403377E+00 0.16511631E+04</pdfrwt>
<totfact> 0.12400964E+01</totfact>
</mgrwt>
</event>
<event>
12    3  0.4769008E-008  0.1742467E+04  0.7818608E-02  0.8737508E-01
         -1   -1    0    0    0  501 -0.00000000000E+00  0.00000000000E+00  0.80093958851E+03  0.80093958851E+03  0.00000000000E+00 0.  1.
          1   -1    0    0  501    0  0.00000000000E+00 -0.00000000000E+00 -0.94769633314E+03  0.94769633314E+03  0.00000000000E+00 0. -1.
         23    2    1    2    0    0  0.47708613742E+03  0.54656128740E+02  0.28919758457E+03  0.56782140703E+03  0.90484431976E+02 0.  0.
        254    2    1    2    0    0 -0.47708613742E+03 -0.54656128740E+02 -0.43595432920E+03  0.11808145146E+04  0.98674630268E+03 0.  0.
         23    2    4    4    0    0 -0.14591293258E+03 -0.44074137943E+03  0.44577833331E+02  0.47510667436E+03  0.90529671202E+02 0.  0.
         23    2    4    4    0    0 -0.33117320484E+03  0.38608525069E+03 -0.48053216253E+03  0.70570784025E+03  0.91514393205E+02 0.  0.
          3    1    3    3  502    0  0.75719428022E+01  0.14489561285E+02  0.17182167009E+02  0.23717263063E+02  0.00000000000E+00 0. -1.
         -3    1    3    3    0  502  0.46951419462E+03  0.40166567454E+02  0.27201541756E+03  0.54410414397E+03  0.00000000000E+00 0.  1.
         13    1    5    5    0    0 -0.81583445751E+02 -0.35794054515E+03  0.47703430660E+02  0.37020657717E+03  0.00000000000E+00 0. -1.
        -13    1    5    5    0    0 -0.64329486830E+02 -0.82800834272E+02 -0.31255973290E+01  0.10490009719E+03  0.00000000000E+00 0.  1.
          3    1    6    6  503    0 -0.12069205216E+03  0.20660262382E+03 -0.24416532025E+03  0.34185950219E+03  0.00000000000E+00 0.  1.
         -3    1    6    6    0  503 -0.21048115268E+03  0.17948262686E+03 -0.23636684228E+03  0.36384833806E+03  0.00000000000E+00 0. -1.
<mgrwt>
<rscale>  0 0.17424667E+04</rscale>
<asrwt>0</asrwt>
<pdfrwt beam="1">  1        1 0.14579944E+00 0.17424667E+04</pdfrwt>
<pdfrwt beam="2">  1       -1 0.12322148E+00 0.17424667E+04</pdfrwt>
<totfact> 0.91549256E+00</totfact>
</mgrwt>
</event>
<event>
12    3  0.4769008E-008  0.1206915E+04  0.7818608E-02  0.9106825E-01
          1   -1    0    0  501    0  0.00000000000E+00  0.00000000000E+00  0.18776282273E+04  0.18776282273E+04  0.00000000000E+00 0. -1.
         -1   -1    0    0    0  501 -0.00000000000E+00 -0.00000000000E+00 -0.19394730509E+03  0.19394730509E+03  0.00000000000E+00 0.  1.
         23    2    1    2    0    0 -0.21255022803E+03  0.84843333303E+02  0.60623981045E+03  0.65421335964E+03  0.89957887465E+02 0.  0.
        254    2    1    2    0    0  0.21255022803E+03 -0.84843333303E+02  0.10774411118E+04  0.14173621728E+04  0.89199786369E+03 0.  0.
         23    2    4    4    0    0  0.24250141940E+03 -0.37763319847E+03  0.99952674214E+03  0.10995036910E+04  0.91874301322E+02 0.  0.
         23    2    4    4    0    0 -0.29951191367E+02  0.29278986517E+03  0.77914369656E+02  0.31785848180E+03  0.91325716218E+02 0.  0.
          1    1    3    3  502    0 -0.20666779532E+03  0.10003926571E+03  0.56660672640E+03  0.61136128002E+03  0.00000000000E+00 0. -1.
         -1    1    3    3    0  502 -0.58824327047E+01 -0.15195932410E+02  0.39633084049E+02  0.42852079618E+02  0.00000000000E+00 0.  1.
         13    1    5    5    0    0  0.97083588260E+02 -0.18636677413E+03  0.36733736109E+03  0.42319562198E+03  0.00000000000E+00 0.  1.
        -13    1    5    5    0    0  0.14541783114E+03 -0.19126642434E+03  0.63218938105E+03  0.67630806901E+03  0.00000000000E+00 0. -1.
          3    1    6    6  503    0 -0.18353824257E+02  0.28491475295E+03  0.54637569205E+02  0.29068633143E+03  0.00000000000E+00 0. -1.
         -3    1    6    6    0  503 -0.11597367110E+02  0.78751122216E+01  0.23276800451E+02  0.27172150368E+02  0.00000000000E+00 0.  1.
<mgrwt>
<rscale>  0 0.12069150E+04</rscale>
<asrwt>0</asrwt>
<pdfrwt beam="1">  1        1 0.28886587E+00 0.12069150E+04</pdfrwt>
<pdfrwt beam="2">  1       -1 0.29838048E-01 0.12069150E+04</pdfrwt>
<totfact> 0.36809719E+01</totfact>
</mgrwt>
</event>
<event>
12    3  0.4769008E-008  0.1527543E+04  0.7818608E-02  0.8866341E-01
          1   -1    0    0  501    0  0.00000000000E+00  0.00000000000E+00  0.16633031803E+04  0.16633031803E+04  0.00000000000E+00 0. -1.
         -1   -1    0    0    0  501 -0.00000000000E+00 -0.00000000000E+00 -0.35071571378E+03  0.35071571378E+03  0.00000000000E+00 0.  1.
         23    2    1    2    0    0  0.42658998512E+03 -0.75992969633E+02  0.73872287085E+03  0.86117780839E+03  0.90342630574E+02 0.  0.
        254    2    1    2    0    0 -0.42658998512E+03  0.75992969633E+02  0.57386459569E+03  0.11528410857E+04  0.90109269661E+03 0.  0.
         23    2    4    4    0    0  0.89739746067E+01 -0.35629531189E+03  0.13081104004E+03  0.39048968650E+03  0.91344324246E+02 0.  0.
         23    2    4    4    0    0 -0.43556395973E+03  0.43228828152E+03  0.44305355566E+03  0.76235139921E+03  0.91071847164E+02 0.  0.
          4    1    3    3  502    0  0.35245883970E+03 -0.50609165552E+02  0.66103460035E+03  0.75083637644E+03  0.00000000000E+00 0. -1.
         -4    1    3    3    0  502  0.74131145420E+02 -0.25383804081E+02  0.77688270496E+02  0.11034143194E+03  0.00000000000E+00 0.  1.
         13    1    5    5    0    0 -0.11466516310E+02 -0.26906673076E+03  0.13407311888E+03  0.30083880701E+03  0.00000000000E+00 0.  1.
        -13    1    5    5    0    0  0.20440490916E+02 -0.87228581133E+02 -0.32620788385E+01  0.89650879492E+02  0.00000000000E+00 0. -1.
          4    1    6    6  503    0 -0.76074900770E+02  0.38600089863E+02  0.83060467708E+02  0.11906468310E+03  0.00000000000E+00 0. -1.
         -4    1    6    6    0  503 -0.35948905896E+03  0.39368819166E+03  0.35999308795E+03  0.64328671612E+03  0.00000000000E+00 0.  1.
<mgrwt>
<rscale>  0 0.15275426E+04</rscale>
<asrwt>0</asrwt>
<pdfrwt beam="1">  1        1 0.25589279E+00 0.15275426E+04</pdfrwt>
<pdfrwt beam="2">  1       -1 0.53956264E-01 0.15275426E+04</pdfrwt>
<totfact> 0.16899859E+01</totfact>
</mgrwt>
</event>
<event>
12    3  0.4769008E-008  0.2007276E+04  0.7818608E-02  0.8603227E-01
          1   -1    0    0  501    0  0.00000000000E+00  0.00000000000E+00  0.21052063337E+04  0.21052063337E+04  0.00000000000E+00 0. -1.
         -1   -1    0    0    0  501 -0.00000000000E+00 -0.00000000000E+00 -0.47847514236E+03  0.47847514236E+03  0.00000000000E+00 0.  1.
         23    2    1    2    0    0  0.47115048571E+02 -0.69482778301E+02 -0.37199438351E+03  0.39221901566E+03  0.91696513583E+02 0.  0.
        254    2    1    2    0    0 -0.47115048571E+02  0.69482778301E+02  0.19987255748E+04  0.21914624604E+04  0.89473801054E+03 0.  0.
         23    2    4    4    0    0  0.13740213002E+03  0.14168322271E+02 -0.16039332824E+02  0.16553251198E+03  0.89797915533E+02 0.  0.
         23    2    4    4    0    0 -0.18451717859E+03  0.55314456030E+02  0.20147649077E+04  0.20259299484E+04  0.89488795336E+02 0.  0.
          2    1    3    3  502    0 -0.20489337182E+02 -0.34483680556E+02 -0.69040623675E+02  0.79847009213E+02  0.00000000000E+00 0. -1.
         -2    1    3    3    0  502  0.67604385753E+02 -0.34999097745E+02 -0.30295375983E+03  0.31237200645E+03  0.00000000000E+00 0.  1.
         13    1    5    5    0    0 -0.12807030561E+02 -0.75175147340E+00 -0.62407781146E+01  0.14266480769E+02  0.00000000000E+00 0.  1.
        -13    1    5    5    0    0  0.15020916058E+03  0.14920073745E+02 -0.97985547092E+01  0.15126603121E+03  0.00000000000E+00 0. -1.
          4    1    6    6  503    0 -0.15009896935E+03  0.21429993910E+02  0.11696977545E+04  0.11794836930E+04  0.00000000000E+00 0. -1.
         -4    1    6    6    0  503 -0.34418209242E+02  0.33884462120E+02  0.84506715321E+03  0.84644625543E+03  0.00000000000E+00 0.  1.
<mgrwt>
<rscale>  0 0.20072757E+04</rscale>
<asrwt>0</asrwt>
<pdfrwt beam="1">  1        1 0.32387789E+00 0.20072757E+04</pdfrwt>
<pdfrwt beam="2">  1       -1 0.73611562E-01 0.20072757E+04</pdfrwt>
<totfact> 0.43565557E+00</totfact>
</mgrwt>
</event>
<event>
12    3  0.4769008E-008  0.1285941E+04  0.7818608E-02  0.9040789E-01
          2   -1    0    0  501    0  0.00000000000E+00  0.00000000000E+00  0.20270707584E+04  0.20270707584E+04  0.00000000000E+00 0. -1.
         -2   -1    0    0    0  501 -0.00000000000E+00 -0.00000000000E+00 -0.20394507327E+03  0.20394507327E+03  0.00000000000E+00 0.  1.
         23    2    1    2    0    0  0.30008233248E+03 -0.13487451511E+03  0.44886723245E+03  0.56545487122E+03  0.10008435407E+03 0.  0.
        254    2    1    2    0    0 -0.30008233248E+03  0.13487451511E+03  0.13742584526E+04  0.16655609604E+04  0.88162717577E+03 0.  0.
         23    2    4    4    0    0 -0.35936454882E+03  0.41765371253E+03  0.53501569406E+03  0.77334632266E+03  0.90803300327E+02 0.  0.
         23    2    4    4    0    0  0.59282216337E+02 -0.28277919742E+03  0.83924275859E+03  0.89221463774E+03  0.90774976163E+02 0.  0.
          2    1    3    3  502    0  0.14266661756E+03 -0.12263366458E+02  0.21068315025E+03  0.25473818662E+03  0.00000000000E+00 0. -1.
         -2    1    3    3    0  502  0.15741571491E+03 -0.12261114865E+03  0.23818408220E+03  0.31071668460E+03  0.00000000000E+00 0.  1.
         13    1    5    5    0    0 -0.23689117012E+03  0.28967069077E+03  0.30333531253E+03  0.48170410772E+03  0.00000000000E+00 0. -1.
        -13    1    5    5    0    0 -0.12247337869E+03  0.12798302176E+03  0.23168038153E+03  0.29164221494E+03  0.00000000000E+00 0.  1.
          4    1    6    6  503    0 -0.12112546276E+02 -0.48888217604E+01  0.17599553982E+02  0.21917085934E+02  0.00000000000E+00 0. -1.
         -4    1    6    6    0  503  0.71394762613E+02 -0.27789037566E+03  0.82164320461E+03  0.87029755181E+03  0.00000000000E+00 0.  1.
<mgrwt>
<rscale>  0 0.12859410E+04</rscale>
<asrwt>0</asrwt>
<pdfrwt beam="1">  1        2 0.31185703E+00 0.12859410E+04</pdfrwt>
<pdfrwt beam="2">  1       -2 0.31376166E-01 0.12859410E+04</pdfrwt>
<totfact> 0.59753660E+01</totfact>
</mgrwt>
</event>
<event>
12    3  0.4769008E-008  0.3260793E+04  0.7818608E-02  0.8172944E-01
          2   -1    0    0  501    0  0.00000000000E+00  0.00000000000E+00  0.26861615384E+04  0.26861615384E+04  0.00000000000E+00 0.  1.
         -2   -1    0    0    0  501 -0.00000000000E+00 -0.00000000000E+00 -0.98958756709E+03  0.98958756709E+03  0.00000000000E+00 0. -1.
         23    2    1    2    0    0  0.99915819506E+03  0.31855623298E+03  0.20035022239E+04  0.22631855499E+04  0.90512429455E+02 0.  0.
        254    2    1    2    0    0 -0.99915819506E+03 -0.31855623298E+03 -0.30692825256E+03  0.14125635556E+04  0.89517354408E+03 0.  0.
         23    2    4    4    0    0 -0.45549810123E+03 -0.20172264542E+03 -0.59461905340E+03  0.78123042510E+03  0.92620799667E+02 0.  0.
         23    2    4    4    0    0 -0.54366009383E+03 -0.11683358756E+03  0.28769080084E+03  0.63133313049E+03  0.81235090673E+02 0.  0.
          2    1    3    3  502    0  0.34327591851E+03  0.68898098867E+02  0.70610237036E+03  0.78814076260E+03  0.00000000000E+00 0. -1.
         -2    1    3    3    0  502  0.65588227655E+03  0.24965813411E+03  0.12973998535E+04  0.14750447873E+04  0.00000000000E+00 0.  1.
         13    1    5    5    0    0 -0.14266242366E+03 -0.87932239453E+02 -0.14377955094E+03  0.22081033746E+03  0.00000000000E+00 0. -1.
        -13    1    5    5    0    0 -0.31283567758E+03 -0.11379040597E+03 -0.45083950246E+03  0.56042008764E+03  0.00000000000E+00 0.  1.
          4    1    6    6  503    0 -0.10677698226E+03 -0.16663496241E+02  0.22007304311E+02  0.11028743125E+03  0.00000000000E+00 0. -1.
         -4    1    6    6    0  503 -0.43688311157E+03 -0.10017009132E+03  0.26568349653E+03  0.52104569924E+03  0.00000000000E+00 0.  1.
<mgrwt>
<rscale>  0 0.32607926E+04</rscale>
<asrwt>0</asrwt>
<pdfrwt beam="1">  1        2 0.41325562E+00 0.32607926E+04</pdfrwt>
<pdfrwt beam="2">  1       -2 0.15224424E+00 0.32607926E+04</pdfrwt>
<totfact> 0.65287019E-01</totfact>
</mgrwt>
</event>
<event>
12    3  0.4769008E-008  0.1978662E+04  0.7818608E-02  0.8616662E-01
         -2   -1    0    0    0  501 -0.00000000000E+00  0.00000000000E+00  0.81356337384E+03  0.81356337384E+03  0.00000000000E+00 0.  1.
          2   -1    0    0  501    0  0.00000000000E+00 -0.00000000000E+00 -0.12030726023E+04  0.12030726023E+04  0.00000000000E+00 0. -1.
         23    2    1    2    0    0 -0.12345442556E+03 -0.70096129943E+03  0.16826887680E+03  0.73740279230E+03  0.94131422461E+02 0.  0.
        254    2    1    2    0    0  0.12345442556E+03  0.70096129943E+03 -0.55777810527E+03  0.12792331839E+04  0.90483887267E+03 0.  0.
         23    2    4    4    0    0 -0.75826309348E+02 -0.65994324304E+02 -0.45545862329E+03  0.47532264198E+03  0.91565148536E+02 0.  0.
         23    2    4    4    0    0  0.19928073490E+03  0.76695562374E+03 -0.10231948198E+03  0.80391054188E+03  0.88708189377E+02 0.  0.
          1    1    3    3  502    0 -0.40867304054E+02 -0.11882014961E+03  0.61200526402E+02  0.13976361803E+03  0.00000000000E+00 0. -1.
         -1    1    3    3    0  502 -0.82587121502E+02 -0.58214114983E+03  0.10706835039E+03  0.59763917427E+03  0.00000000000E+00 0.  1.
         13    1    5    5    0    0 -0.66821040485E+02 -0.23739266833E+01 -0.29488157682E+03  0.30236704736E+03  0.00000000000E+00 0. -1.
        -13    1    5    5    0    0 -0.90052688629E+01 -0.63620397621E+02 -0.16057704646E+03  0.17295559462E+03  0.00000000000E+00 0.  1.
          1    1    6    6  503    0  0.13678598514E+03  0.38127079403E+03 -0.77462277806E+02  0.41240541776E+03  0.00000000000E+00 0. -1.
         -1    1    6    6    0  503  0.62494749763E+02  0.38568482970E+03 -0.24857204172E+02  0.39150512412E+03  0.00000000000E+00 0.  1.
<mgrwt>
<rscale>  0 0.19786620E+04</rscale>
<asrwt>0</asrwt>
<pdfrwt beam="1">  1        2 0.18508809E+00 0.19786620E+04</pdfrwt>
<pdfrwt beam="2">  1       -2 0.12516360E+00 0.19786620E+04</pdfrwt>
<totfact> 0.83900259E+00</totfact>
</mgrwt>
</event>
<event>
12    3  0.4769008E-008  0.1902668E+04  0.7818608E-02  0.8653530E-01
          1   -1    0    0  501    0  0.00000000000E+00  0.00000000000E+00  0.10299090624E+04  0.10299090624E+04  0.00000000000E+00 0. -1.
         -1   -1    0    0    0  501 -0.00000000000E+00 -0.00000000000E+00 -0.87875364791E+03  0.87875364791E+03  0.00000000000E+00 0.  1.
         23    2    1    2    0    0 -0.61007369416E+03  0.11539588318E+03 -0.33112965419E+03  0.70945763178E+03  0.90427657530E+02 0.  0.
        254    2    1    2    0    0  0.61007369416E+03 -0.11539588318E+03  0.48228506872E+03  0.11992050786E+04  0.90553178344E+03 0.  0.
         23    2    4    4    0    0 -0.22649062436E+03  0.13737414989E+02  0.13651216565E+03  0.28037535152E+03  0.92130596847E+02 0.  0.
         23    2    4    4    0    0  0.83656431852E+03 -0.12913329817E+03  0.34577290308E+03  0.91882972706E+03  0.90409618419E+02 0.  0.
          4    1    3    3  502    0 -0.19934652215E+03 -0.47073783915E+01 -0.99013908012E+02  0.22263186942E+03  0.00000000000E+00 0. -1.
         -4    1    3    3    0  502 -0.41072717201E+03  0.12010326157E+03 -0.23211574618E+03  0.48682576235E+03  0.00000000000E+00 0.  1.
         13    1    5    5    0    0 -0.23819093295E+02  0.30183885843E+02  0.64182387378E+01  0.38982174881E+02  0.00000000000E+00 0. -1.
        -13    1    5    5    0    0 -0.20267153107E+03 -0.16446470854E+02  0.13009392691E+03  0.24139317664E+03  0.00000000000E+00 0.  1.
          3    1    6    6  503    0  0.31124215953E+03 -0.92088983500E+02  0.12572824582E+03  0.34807995424E+03  0.00000000000E+00 0. -1.
         -3    1    6    6    0  503  0.52532215899E+03 -0.37044314670E+02  0.22004465726E+03  0.57074977281E+03  0.00000000000E+00 0.  1.
<mgrwt>
<rscale>  0 0.19026680E+04</rscale>
<asrwt>0</asrwt>
<pdfrwt beam="1">  1        1 0.15844755E+00 0.19026680E+04</pdfrwt>
<pdfrwt beam="2">  1       -1 0.13519287E+00 0.19026680E+04</pdfrwt>
<totfact> 0.61576653E+00</totfact>
</mgrwt>
</event>
<event>
12    3  0.4769008E-008  0.1441555E+04  0.7818608E-02  0.8924276E-01
         -1   -1    0    0    0  501 -0.00000000000E+00  0.00000000000E+00  0.12774894611E+04  0.12774894611E+04  0.00000000000E+00 0.  1.
          1   -1    0    0  501    0  0.00000000000E+00 -0.00000000000E+00 -0.40667300100E+03  0.40667300100E+03  0.00000000000E+00 0. -1.
         23    2    1    2    0    0 -0.62384830323E+02  0.11381742654E+03 -0.21193097255E+03  0.26573676034E+03  0.94101089428E+02 0.  0.
        254    2    1    2    0    0  0.62384830323E+02 -0.11381742654E+03  0.10827474327E+04  0.14184257018E+04  0.90705192513E+03 0.  0.
         23    2    4    4    0    0  0.33657644120E+03  0.93042178338E+02  0.98696726992E+03  0.10509026086E+04  0.91385737725E+02 0.  0.
         23    2    4    4    0    0 -0.27419161087E+03 -0.20685960488E+03  0.95780162770E+02  0.36752309324E+03  0.89036222280E+02 0.  0.
          1    1    3    3  502    0 -0.42872484228E+02  0.93644128325E+02 -0.21410342122E+03  0.23758692651E+03  0.00000000000E+00 0. -1.
         -1    1    3    3    0  502 -0.19512346095E+02  0.20173298219E+02  0.21724486702E+01  0.28149833825E+02  0.00000000000E+00 0.  1.
         13    1    5    5    0    0  0.32897021733E+03  0.69770770370E+02  0.92811098832E+03  0.98715721692E+03  0.00000000000E+00 0.  1.
        -13    1    5    5    0    0  0.76062238636E+01  0.23271407968E+02  0.58856281605E+02  0.63745391634E+02  0.00000000000E+00 0. -1.
          4    1    6    6  503    0 -0.15143918374E+03 -0.80910391942E+02  0.84297016018E+02  0.19127546839E+03  0.00000000000E+00 0. -1.
         -4    1    6    6    0  503 -0.12275242713E+03 -0.12594921294E+03  0.11483146752E+02  0.17624762485E+03  0.00000000000E+00 0.  1.
<mgrwt>
<rscale>  0 0.14415554E+04</rscale>
<asrwt>0</asrwt>
<pdfrwt beam="1">  1        1 0.62565078E-01 0.14415554E+04</pdfrwt>
<pdfrwt beam="2">  1       -1 0.19653684E+00 0.14415554E+04</pdfrwt>
<totfact> 0.90702723E+00</totfact>
</mgrwt>
</event>
<event>
12    3  0.4769008E-008  0.2825130E+04  0.7818608E-02  0.8295509E-01
         -2   -1    0    0    0  501 -0.00000000000E+00  0.00000000000E+00  0.10108678673E+04  0.10108678673E+04  0.00000000000E+00 0.  1.
          2   -1    0    0  501    0  0.00000000000E+00 -0.00000000000E+00 -0.19738884523E+04  0.19738884523E+04  0.00000000000E+00 0. -1.
         23    2    1    2    0    0 -0.25737699567E+03 -0.67956282780E+03  0.66606749105E+03  0.98963165540E+03  0.87614815533E+02 0.  0.
        254    2    1    2    0    0  0.25737699567E+03  0.67956282780E+03 -0.16290880761E+04  0.19951246642E+04  0.89361396086E+03 0.  0.
         23    2    4    4    0    0 -0.19129235477E+03  0.65820567248E+03 -0.10365972077E+04  0.12460446559E+04  0.90917770726E+02 0.  0.
         23    2    4    4    0    0  0.44866935044E+03  0.21357155327E+02 -0.59249086837E+03  0.74908000832E+03  0.91187255970E+02 0.  0.
          4    1    3    3  502    0  0.55316659973E+01 -0.10645134992E+02  0.19383429842E+02  0.22795516668E+02  0.00000000000E+00 0. -1.
         -4    1    3    3    0  502 -0.26290866167E+03 -0.66891769281E+03  0.64668406121E+03  0.96683613873E+03  0.00000000000E+00 0.  1.
         13    1    5    5    0    0 -0.16414842102E+03  0.63375806057E+03 -0.98886848221E+03  0.11859404954E+04  0.00000000000E+00 0. -1.
        -13    1    5    5    0    0 -0.27143933745E+02  0.24447611908E+02 -0.47728725525E+02  0.60104160483E+02  0.00000000000E+00 0.  1.
          2    1    6    6  503    0  0.24705649061E+02 -0.82638597031E+01 -0.75250728611E+02  0.79632484761E+02  0.00000000000E+00 0.  1.
         -2    1    6    6    0  503  0.42396370138E+03  0.29621015030E+02 -0.51724013976E+03  0.66944752356E+03  0.00000000000E+00 0. -1.
<mgrwt>
<rscale>  0 0.28251304E+04</rscale>
<asrwt>0</asrwt>
<pdfrwt beam="1">  1        2 0.30367514E+00 0.28251304E+04</pdfrwt>
<pdfrwt beam="2">  1       -2 0.15551813E+00 0.28251304E+04</pdfrwt>
<totfact> 0.16323091E+00</totfact>
</mgrwt>
</event>
<event>
12    3  0.4769008E-008  0.1627197E+04  0.7818608E-02  0.8804012E-01
          2   -1    0    0  501    0  0.00000000000E+00  0.00000000000E+00  0.11009720592E+04  0.11009720592E+04  0.00000000000E+00 0. -1.
         -2   -1    0    0    0  501 -0.00000000000E+00 -0.00000000000E+00 -0.60123442503E+03  0.60123442503E+03  0.00000000000E+00 0.  1.
         23    2    1    2    0    0  0.11240381266E+03  0.45261084120E+03  0.49514671389E+03  0.68564207047E+03  0.86276241505E+02 0.  0.
        254    2    1    2    0    0 -0.11240381266E+03 -0.45261084120E+03  0.45909202468E+01  0.10165644137E+04  0.90326681554E+03 0.  0.
         23    2    4    4    0    0 -0.10190005484E+03  0.17898527080E+01 -0.38655016491E+03  0.41016707340E+03  0.91810529678E+02 0.  0.
         23    2    4    4    0    0 -0.10503757814E+02 -0.45440069391E+03  0.39114108516E+03  0.60639734033E+03  0.90200145844E+02 0.  0.
          2    1    3    3  502    0  0.99456465464E+01  0.11068674336E+03  0.16816648574E+03  0.20156993319E+03  0.00000000000E+00 0. -1.
         -2    1    3    3    0  502  0.10245816611E+03  0.34192409784E+03  0.32698022815E+03  0.48407213728E+03  0.00000000000E+00 0.  1.
         13    1    5    5    0    0 -0.39028547175E+02  0.95135114869E+01 -0.30126410172E+03  0.30393057329E+03  0.00000000000E+00 0. -1.
        -13    1    5    5    0    0 -0.62871507667E+02 -0.77236587789E+01 -0.85286063197E+02  0.10623650012E+03  0.00000000000E+00 0.  1.
          2    1    6    6  503    0 -0.36448540771E+02 -0.39589619737E+03  0.31718745665E+03  0.50859628181E+03  0.00000000000E+00 0. -1.
         -2    1    6    6    0  503  0.25944782957E+02 -0.58504496533E+02  0.73953628515E+02  0.97801058521E+02  0.00000000000E+00 0.  1.
<mgrwt>
<rscale>  0 0.16271967E+04</rscale>
<asrwt>0</asrwt>
<pdfrwt beam="1">  1        2 0.16938032E+00 0.16271967E+04</pdfrwt>
<pdfrwt beam="2">  1       -2 0.92497604E-01 0.16271967E+04</pdfrwt>
<totfact> 0.20653768E+01</totfact>
</mgrwt>
</event>
<event>
12    3  0.4769008E-008  0.1755372E+04  0.7818608E-02  0.8730399E-01
         -2   -1    0    0    0  501 -0.00000000000E+00  0.00000000000E+00  0.87323479982E+03  0.87323479982E+03  0.00000000000E+00 0.  1.
          2   -1    0    0  501    0  0.00000000000E+00 -0.00000000000E+00 -0.88215992981E+03  0.88215992981E+03  0.00000000000E+00 0. -1.
         23    2    1    2    0    0  0.64917147625E+02 -0.57939177065E+03  0.26353527021E+03  0.64648995166E+03  0.92678794771E+02 0.  0.
        254    2    1    2    0    0 -0.64917147625E+02  0.57939177065E+03 -0.27246040020E+03  0.11089047780E+04  0.90306482435E+03 0.  0.
         23    2    4    4    0    0 -0.23455328335E+03  0.17969109815E+03  0.26864046825E+03  0.40954990386E+03  0.90880630941E+02 0.  0.
         23    2    4    4    0    0  0.16963613573E+03  0.39970067249E+03 -0.54110086846E+03  0.69935487411E+03  0.88147852865E+02 0.  0.
          3    1    3    3  502    0  0.77937538462E+02 -0.54749315255E+03  0.23173324107E+03  0.59960262425E+03  0.00000000000E+00 0.  1.
         -3    1    3    3    0  502 -0.13020390837E+02 -0.31898618100E+02  0.31802029141E+02  0.46887327410E+02  0.00000000000E+00 0. -1.
         13    1    5    5    0    0 -0.12910038897E+03  0.53300130005E+02  0.15969650305E+03  0.21215745892E+03  0.00000000000E+00 0.  1.
        -13    1    5    5    0    0 -0.10545289438E+03  0.12639096815E+03  0.10894396521E+03  0.19739244493E+03  0.00000000000E+00 0. -1.
          1    1    6    6  503    0 -0.63544549964E+00  0.45139043002E+02 -0.91204907495E+02  0.10176577099E+03  0.00000000000E+00 0. -1.
         -1    1    6    6    0  503  0.17027158123E+03  0.35456162949E+03 -0.44989596096E+03  0.59758910312E+03  0.00000000000E+00 0.  1.
<mgrwt>
<rscale>  0 0.17553720E+04</rscale>
<asrwt>0</asrwt>
<pdfrwt beam="1">  1        2 0.13571691E+00 0.17553720E+04</pdfrwt>
<pdfrwt beam="2">  1       -2 0.13434382E+00 0.17553720E+04</pdfrwt>
<totfact> 0.11410147E+01</totfact>
</mgrwt>
</event>
<event>
12    3  0.4769008E-008  0.2583622E+04  0.7818608E-02  0.8373786E-01
          1   -1    0    0  501    0  0.00000000000E+00  0.00000000000E+00  0.16410454343E+04  0.16410454343E+04  0.00000000000E+00 0. -1.
         -1   -1    0    0    0  501 -0.00000000000E+00 -0.00000000000E+00 -0.10168977607E+04  0.10168977607E+04  0.00000000000E+00 0.  1.
         23    2    1    2    0    0  0.88208139867E+03 -0.12959755379E+03  0.99329610607E+03  0.13378619605E+04  0.91511480762E+02 0.  0.
        254    2    1    2    0    0 -0.88208139867E+03  0.12959755379E+03 -0.36914843249E+03  0.13200812345E+04  0.90082228021E+03 0.  0.
         23    2    4    4    0    0 -0.72843246779E+03 -0.28806773675E+03 -0.35933055958E+03  0.86722687921E+03  0.96783923702E+02 0.  0.
         23    2    4    4    0    0 -0.15364893089E+03  0.41766529054E+03 -0.98178729091E+01  0.45285435525E+03  0.83236936250E+02 0.  0.
          1    1    3    3  502    0  0.73706107036E+03 -0.74497307906E+02  0.83383705907E+03  0.11153892197E+04  0.00000000000E+00 0. -1.
         -1    1    3    3    0  502  0.14502032832E+03 -0.55100245881E+02  0.15945904700E+03  0.22247274078E+03  0.00000000000E+00 0.  1.
         13    1    5    5    0    0 -0.46888262239E+03 -0.13693032498E+03 -0.20800393628E+03  0.53091097652E+03  0.00000000000E+00 0.  1.
        -13    1    5    5    0    0 -0.25954984540E+03 -0.15113741177E+03 -0.15132662330E+03  0.33631590269E+03  0.00000000000E+00 0. -1.
          1    1    6    6  503    0 -0.57862634838E+02  0.86113765588E+02  0.22740865364E+02  0.10621116745E+03  0.00000000000E+00 0. -1.
         -1    1    6    6    0  503 -0.95786296050E+02  0.33155152495E+03 -0.32558738273E+02  0.34664318780E+03  0.00000000000E+00 0.  1.
<mgrwt>
<rscale>  0 0.25836218E+04</rscale>
<asrwt>0</asrwt>
<pdfrwt beam="1">  1        1 0.25246853E+00 0.25836218E+04</pdfrwt>
<pdfrwt beam="2">  1       -1 0.15644581E+00 0.25836218E+04</pdfrwt>
<totfact> 0.14348233E+00</totfact>
</mgrwt>
</event>
<event>
12    3  0.4769008E-008  0.1347069E+04  0.7818608E-02  0.8993050E-01
         -2   -1    0    0    0  501 -0.00000000000E+00  0.00000000000E+00  0.29354218594E+03  0.29354218594E+03  0.00000000000E+00 0.  1.
          2   -1    0    0  501    0  0.00000000000E+00 -0.00000000000E+00 -0.15454300619E+04  0.15454300619E+04  0.00000000000E+00 0. -1.
         23    2    1    2    0    0 -0.25627284135E+03 -0.15602708984E+03 -0.62732564440E+03  0.70155571109E+03  0.92858654186E+02 0.  0.
        254    2    1    2    0    0  0.25627284135E+03  0.15602708984E+03 -0.62456223158E+03  0.11374165368E+04  0.90200785753E+03 0.  0.
         23    2    4    4    0    0  0.25292691599E+03 -0.31686126659E+03 -0.10349820820E+03  0.42804898560E+03  0.90227312289E+02 0.  0.
         23    2    4    4    0    0  0.33459253611E+01  0.47288835643E+03 -0.52106402338E+03  0.70936755118E+03  0.89777577026E+02 0.  0.
          2    1    3    3  502    0 -0.11742345996E+02 -0.37109752968E+01 -0.99225995339E+02  0.99987260080E+02  0.00000000000E+00 0. -1.
         -2    1    3    3    0  502 -0.24453049535E+03 -0.15231611455E+03 -0.52809964906E+03  0.60156845101E+03  0.00000000000E+00 0.  1.
         13    1    5    5    0    0  0.21172681563E+03 -0.27642162945E+03 -0.11952519188E+03  0.36813507464E+03  0.00000000000E+00 0. -1.
        -13    1    5    5    0    0  0.41200100361E+02 -0.40439637137E+02  0.16026983684E+02  0.59913910969E+02  0.00000000000E+00 0.  1.
          3    1    6    6  503    0 -0.40941662994E+02  0.28501895976E+03 -0.29799707413E+03  0.41438422192E+03  0.00000000000E+00 0. -1.
         -3    1    6    6    0  503  0.44287588355E+02  0.18786939667E+03 -0.22306694925E+03  0.29498332925E+03  0.00000000000E+00 0.  1.
<mgrwt>
<rscale>  0 0.13470693E+04</rscale>
<asrwt>0</asrwt>
<pdfrwt beam="1">  1        2 0.23775847E+00 0.13470693E+04</pdfrwt>
<pdfrwt beam="2">  1       -2 0.45160337E-01 0.13470693E+04</pdfrwt>
<totfact> 0.54347694E+01</totfact>
</mgrwt>
</event>
<event>
12    3  0.4769008E-008  0.2333719E+04  0.7818608E-02  0.8464744E-01
          2   -1    0    0  501    0  0.00000000000E+00  0.00000000000E+00  0.22358245556E+04  0.22358245556E+04  0.00000000000E+00 0. -1.
         -2   -1    0    0    0  501 -0.00000000000E+00 -0.00000000000E+00 -0.60897496736E+03  0.60897496736E+03  0.00000000000E+00 0.  1.
         23    2    1    2    0    0 -0.39377003605E+03  0.26606230378E+03 -0.36513963056E+03  0.61255634443E+03  0.12670570039E+03 0.  0.
        254    2    1    2    0    0  0.39377003605E+03 -0.26606230378E+03  0.19919892188E+04  0.22322431786E+04  0.88828180750E+03 0.  0.
         23    2    4    4    0    0  0.48281090358E+03 -0.33859757451E+03  0.19985119402E+04  0.20855417577E+04  0.87634249329E+02 0.  0.
         23    2    4    4    0    0 -0.89040867527E+02  0.72535270725E+02 -0.65227214068E+01  0.14670142089E+03  0.91044601200E+02 0.  0.
          2    1    3    3  502    0 -0.12821839107E+02  0.35481785841E+02 -0.66286302629E+02  0.76270771602E+02  0.00000000000E+00 0. -1.
         -2    1    3    3    0  502 -0.38094819695E+03  0.23058051794E+03 -0.29885332793E+03  0.53628557283E+03  0.00000000000E+00 0.  1.
         13    1    5    5    0    0  0.31574086803E+03 -0.18750584361E+03  0.13484546151E+04  0.13975623729E+04  0.00000000000E+00 0.  1.
        -13    1    5    5    0    0  0.16707003555E+03 -0.15109173090E+03  0.65005732513E+03  0.68797938477E+03  0.00000000000E+00 0. -1.
          2    1    6    6  503    0 -0.33755558267E+02  0.71297702184E+02  0.25370757254E+02  0.82864198387E+02  0.00000000000E+00 0. -1.
         -2    1    6    6    0  503 -0.55285309260E+02  0.12375685403E+01 -0.31893478661E+02  0.63837222504E+02  0.00000000000E+00 0.  1.
<mgrwt>
<rscale>  0 0.23337191E+04</rscale>
<asrwt>0</asrwt>
<pdfrwt beam="1">  1        2 0.34397300E+00 0.23337191E+04</pdfrwt>
<pdfrwt beam="2">  1       -2 0.93688458E-01 0.23337191E+04</pdfrwt>
<totfact> 0.42900455E+00</totfact>
</mgrwt>
</event>
<event>
12    3  0.4769008E-008  0.1235767E+04  0.7818608E-02  0.9082113E-01
         -1   -1    0    0    0  501 -0.00000000000E+00  0.00000000000E+00  0.36086925166E+03  0.36086925166E+03  0.00000000000E+00 0.  1.
          1   -1    0    0  501    0  0.00000000000E+00 -0.00000000000E+00 -0.10579460428E+04  0.10579460428E+04  0.00000000000E+00 0. -1.
         23    2    1    2    0    0 -0.10020069544E+03 -0.13155412374E+03  0.44478058591E+02  0.19403144240E+03  0.91231771345E+02 0.  0.
        254    2    1    2    0    0  0.10020069544E+03  0.13155412374E+03 -0.74155484972E+03  0.12247838520E+04  0.96064833433E+03 0.  0.
         23    2    4    4    0    0  0.30152680699E+03 -0.31081593531E+03 -0.51949307797E+03  0.68278092953E+03  0.93764485227E+02 0.  0.
         23    2    4    4    0    0 -0.20132611155E+03  0.44237005906E+03 -0.22206177175E+03  0.54200292252E+03  0.90731831271E+02 0.  0.
          1    1    3    3  502    0  0.22521628977E+01  0.67881494992E+01 -0.11037953708E+02  0.13152476322E+02  0.00000000000E+00 0. -1.
         -1    1    3    3    0  502 -0.10245285834E+03 -0.13834227324E+03  0.55516012298E+02  0.18087896608E+03  0.00000000000E+00 0.  1.
         13    1    5    5    0    0  0.77298866121E+02 -0.50741498196E+02 -0.64452279337E+02  0.11271162608E+03  0.00000000000E+00 0. -1.
        -13    1    5    5    0    0  0.22422794087E+03 -0.26007443712E+03 -0.45504079863E+03  0.57006930344E+03  0.00000000000E+00 0.  1.
          4    1    6    6  503    0 -0.35797846490E+02  0.14134430713E+03 -0.10260907073E+03  0.17829279393E+03  0.00000000000E+00 0. -1.
         -4    1    6    6    0  503 -0.16552826506E+03  0.30102575193E+03 -0.11945270101E+03  0.36371012859E+03  0.00000000000E+00 0.  1.
<mgrwt>
<rscale>  0 0.12357673E+04</rscale>
<asrwt>0</asrwt>
<pdfrwt beam="1">  1        1 0.16276093E+00 0.12357673E+04</pdfrwt>
<pdfrwt beam="2">  1       -1 0.55518347E-01 0.12357673E+04</pdfrwt>
<totfact> 0.44190382E+01</totfact>
</mgrwt>
</event>
<event>
12    3  0.4769008E-008  0.1634100E+04  0.7818608E-02  0.8799869E-01
         -2   -1    0    0    0  501 -0.00000000000E+00  0.00000000000E+00  0.54665809313E+03  0.54665809313E+03  0.00000000000E+00 0.  1.
          2   -1    0    0  501    0  0.00000000000E+00 -0.00000000000E+00 -0.12211851538E+04  0.12211851538E+04  0.00000000000E+00 0. -1.
         23    2    1    2    0    0  0.55141816658E+03 -0.10813333443E+03 -0.35182190704E+03  0.66881447016E+03  0.88200503206E+02 0.  0.
        254    2    1    2    0    0 -0.55141816658E+03  0.10813333443E+03 -0.32270515362E+03  0.10990287768E+04  0.88767720683E+03 0.  0.
         23    2    4    4    0    0  0.12180017362E+03  0.30216035923E+03 -0.16013605165E+03  0.37423912266E+03  0.90968131264E+02 0.  0.
         23    2    4    4    0    0 -0.67321834019E+03 -0.19402702479E+03 -0.16256910196E+03  0.72478965410E+03  0.89565115178E+02 0.  0.
          2    1    3    3  502    0  0.28078266881E+02  0.14030909339E+02 -0.18960147397E+02  0.36670733252E+02  0.00000000000E+00 0.  1.
         -2    1    3    3    0  502  0.52333989970E+03 -0.12216424377E+03 -0.33286175965E+03  0.63214373690E+03  0.00000000000E+00 0. -1.
         13    1    5    5    0    0  0.11775990294E+02  0.11523360443E+02  0.10667538436E+02  0.19627994283E+02  0.00000000000E+00 0. -1.
        -13    1    5    5    0    0  0.11002418332E+03  0.29063699879E+03 -0.17080359009E+03  0.35461112837E+03  0.00000000000E+00 0.  1.
          3    1    6    6  503    0 -0.11777118267E+03 -0.68608261266E+02 -0.43214653989E+02  0.14298479395E+03  0.00000000000E+00 0. -1.
         -3    1    6    6    0  503 -0.55544715752E+03 -0.12541876353E+03 -0.11935444798E+03  0.58180486015E+03  0.00000000000E+00 0.  1.
<mgrwt>
<rscale>  0 0.16341001E+04</rscale>
<asrwt>0</asrwt>
<pdfrwt beam="1">  1        2 0.18787464E+00 0.16341001E+04</pdfrwt>
<pdfrwt beam="2">  1       -2 0.84101245E-01 0.16341001E+04</pdfrwt>
<totfact> 0.21723563E+01</totfact>
</mgrwt>
</event>
<event>
12    3  0.4769008E-008  0.2626345E+04  0.7818608E-02  0.8359307E-01
          3   -1    0    0  501    0  0.00000000000E+00  0.00000000000E+00  0.11601806158E+04  0.11601806158E+04  0.00000000000E+00 0. -1.
         -3   -1    0    0    0  501 -0.00000000000E+00 -0.00000000000E+00 -0.14863388510E+04  0.14863388510E+04  0.00000000000E+00 0.  1.
         23    2    1    2    0    0 -0.75405434673E+03  0.48114010883E+03  0.59930222931E+03  0.10807979968E+04  0.94166796903E+02 0.  0.
        254    2    1    2    0    0  0.75405434673E+03 -0.48114010883E+03 -0.92546046450E+03  0.15657214701E+04  0.89157887386E+03 0.  0.
         23    2    4    4    0    0  0.49081858702E+03  0.10355373331E+02 -0.21580548658E+02  0.49984856830E+03  0.91502743257E+02 0.  0.
         23    2    4    4    0    0  0.26323575971E+03 -0.49149548216E+03 -0.90387991584E+03  0.10658729018E+04  0.90693253798E+02 0.  0.
          2    1    3    3  502    0 -0.95504748792E+02  0.66960335485E+02  0.42651690164E+02  0.12419343881E+03  0.00000000000E+00 0. -1.
         -2    1    3    3    0  502 -0.65854959794E+03  0.41417977334E+03  0.55665053915E+03  0.95660455797E+03  0.00000000000E+00 0.  1.
         13    1    5    5    0    0  0.48505404047E+03  0.15634451580E+02 -0.94258985077E+01  0.48539747199E+03  0.00000000000E+00 0.  1.
        -13    1    5    5    0    0  0.57645465511E+01 -0.52790782486E+01 -0.12154650151E+02  0.14451096304E+02  0.00000000000E+00 0. -1.
          1    1    6    6  503    0 -0.36539067480E+01  0.13179594471E+00 -0.10823001633E+01  0.38131061273E+01  0.00000000000E+00 0. -1.
         -1    1    6    6    0  503  0.26688966646E+03 -0.49162727811E+03 -0.90279761567E+03  0.10620597956E+04  0.00000000000E+00 0.  1.
<mgrwt>
<rscale>  0 0.26263446E+04</rscale>
<asrwt>0</asrwt>
<pdfrwt beam="1">  1        3 0.17848933E+00 0.26263446E+04</pdfrwt>
<pdfrwt beam="2">  1       -3 0.22866751E+00 0.26263446E+04</pdfrwt>
<totfact> 0.45569057E-02</totfact>
</mgrwt>
</event>
<event>
12    3  0.4769008E-008  0.2238231E+04  0.7818608E-02  0.8502682E-01
         -1   -1    0    0    0  501 -0.00000000000E+00  0.00000000000E+00  0.12337981931E+04  0.12337981931E+04  0.00000000000E+00 0.  1.
          1   -1    0    0  501    0  0.00000000000E+00 -0.00000000000E+00 -0.10150923140E+04  0.10150923140E+04  0.00000000000E+00 0. -1.
         23    2    1    2    0    0  0.69050538358E+03  0.38833908856E+03 -0.40301997877E+03  0.89343830927E+03  0.90564765321E+02 0.  0.
        254    2    1    2    0    0 -0.69050538358E+03 -0.38833908856E+03  0.62172585780E+03  0.13554521978E+04  0.90725006803E+03 0.  0.
         23    2    4    4    0    0 -0.89532139409E+02 -0.53404396791E+03  0.14222372794E+03  0.56721631151E+03  0.91037308825E+02 0.  0.
         23    2    4    4    0    0 -0.60097324417E+03  0.14570487935E+03  0.47950212985E+03  0.78823588634E+03  0.94840750241E+02 0.  0.
          2    1    3    3  502    0  0.60558608076E+03  0.36949693623E+03 -0.37245633526E+03  0.80124041883E+03  0.00000000000E+00 0. -1.
         -2    1    3    3    0  502  0.84919302823E+02  0.18842152333E+02 -0.30563643510E+02  0.92197890437E+02  0.00000000000E+00 0.  1.
         13    1    5    5    0    0 -0.39872139854E+02 -0.44712325247E+03  0.12028918127E+03  0.46473484651E+03  0.00000000000E+00 0.  1.
        -13    1    5    5    0    0 -0.49659999555E+02 -0.86920715445E+02  0.21934546669E+02  0.10248146499E+03  0.00000000000E+00 0. -1.
          1    1    6    6  503    0 -0.23580564903E+03  0.10514417135E+03  0.19511843185E+03  0.32362138887E+03  0.00000000000E+00 0. -1.
         -1    1    6    6    0  503 -0.36516759514E+03  0.40560708000E+02  0.28438369800E+03  0.46461449747E+03  0.00000000000E+00 0.  1.
<mgrwt>
<rscale>  0 0.22382306E+04</rscale>
<asrwt>0</asrwt>
<pdfrwt beam="1">  1        1 0.15616805E+00 0.22382306E+04</pdfrwt>
<pdfrwt beam="2">  1       -1 0.18981511E+00 0.22382306E+04</pdfrwt>
<totfact> 0.23716130E+00</totfact>
</mgrwt>
</event>
<event>
12    3  0.4769008E-008  0.1287177E+04  0.7818608E-02  0.9039796E-01
         -2   -1    0    0    0  501 -0.00000000000E+00  0.00000000000E+00  0.55034216527E+03  0.55034216527E+03  0.00000000000E+00 0.  1.
          2   -1    0    0  501    0  0.00000000000E+00 -0.00000000000E+00 -0.75263341610E+03  0.75263341610E+03  0.00000000000E+00 0. -1.
         23    2    1    2    0    0 -0.14691823515E+03  0.22349907825E+03 -0.19412808809E+03  0.34288039394E+03  0.91347929162E+02 0.  0.
        254    2    1    2    0    0  0.14691823515E+03 -0.22349907825E+03 -0.81631627415E+01  0.96009518743E+03  0.92205169373E+03 0.  0.
         23    2    4    4    0    0  0.12062325275E+03 -0.30281080731E+03 -0.41441904146E+03  0.53489907816E+03  0.90163893861E+02 0.  0.
         23    2    4    4    0    0  0.26294982393E+02  0.79311729055E+02  0.40625587872E+03  0.42519610928E+03  0.93627538052E+02 0.  0.
          2    1    3    3  502    0 -0.24191380569E+02  0.21428932361E+02  0.63118786307E+01  0.32928131557E+02  0.00000000000E+00 0. -1.
         -2    1    3    3    0  502 -0.12272685458E+03  0.20207014589E+03 -0.20043996672E+03  0.30995226238E+03  0.00000000000E+00 0.  1.
         13    1    5    5    0    0  0.85361844669E+02 -0.17025323963E+03 -0.30435331958E+03  0.35903168839E+03  0.00000000000E+00 0.  1.
        -13    1    5    5    0    0  0.35261408086E+02 -0.13255756768E+03 -0.11006572188E+03  0.17586738976E+03  0.00000000000E+00 0. -1.
          3    1    6    6  503    0  0.29767350187E+02  0.93440251899E+01  0.32963152728E+02  0.45386951668E+02  0.00000000000E+00 0. -1.
         -3    1    6    6    0  503 -0.34723677939E+01  0.69967703865E+02  0.37329272599E+03  0.37980915761E+03  0.00000000000E+00 0.  1.
<mgrwt>
<rscale>  0 0.12871766E+04</rscale>
<asrwt>0</asrwt>
<pdfrwt beam="1">  1        2 0.11578976E+00 0.12871766E+04</pdfrwt>
<pdfrwt beam="2">  1       -2 0.84668025E-01 0.12871766E+04</pdfrwt>
<totfact> 0.44539570E+01</totfact>
</mgrwt>
</event>
<event>
12    3  0.4769008E-008  0.2728815E+04  0.7818608E-02  0.8325715E-01
         -2   -1    0    0    0  501 -0.00000000000E+00  0.00000000000E+00  0.16817323998E+04  0.16817323998E+04  0.00000000000E+00 0.  1.
          2   -1    0    0  501    0  0.00000000000E+00 -0.00000000000E+00 -0.11069587564E+04  0.11069587564E+04  0.00000000000E+00 0. -1.
         23    2    1    2    0    0  0.14954428123E+03 -0.64894470422E+03  0.12758256495E+04  0.14421413862E+04  0.92455224166E+02 0.  0.
        254    2    1    2    0    0 -0.14954428123E+03  0.64894470422E+03 -0.70105200611E+03  0.13465497701E+04  0.93713907551E+03 0.  0.
         23    2    4    4    0    0 -0.32697143509E+03  0.35292517619E+03 -0.83284388177E+03  0.96616104772E+03  0.91497209641E+02 0.  0.
         23    2    4    4    0    0  0.17742715385E+03  0.29601952803E+03  0.13179187567E+03  0.38038872236E+03  0.90656084771E+02 0.  0.
          3    1    3    3  502    0  0.21988692790E+02 -0.90004610911E+02  0.11691021595E+03  0.14917215286E+03  0.00000000000E+00 0. -1.
         -3    1    3    3    0  502  0.12755558844E+03 -0.55894009331E+03  0.11589154336E+04  0.12929692333E+04  0.00000000000E+00 0.  1.
         13    1    5    5    0    0 -0.49094776138E+02  0.20937772243E+02 -0.59890044051E+02  0.80221597634E+02  0.00000000000E+00 0.  1.
        -13    1    5    5    0    0 -0.27787665895E+03  0.33198740395E+03 -0.77295383772E+03  0.88593945009E+03  0.00000000000E+00 0. -1.
          2    1    6    6  503    0  0.17375833450E+03  0.27253143984E+03  0.95537636475E+02  0.33703528672E+03  0.00000000000E+00 0. -1.
         -2    1    6    6    0  503  0.36688193476E+01  0.23488088188E+02  0.36254239191E+02  0.43353435636E+02  0.00000000000E+00 0.  1.
<mgrwt>
<rscale>  0 0.27288154E+04</rscale>
<asrwt>0</asrwt>
<pdfrwt beam="1">  1        2 0.17030135E+00 0.27288154E+04</pdfrwt>
<pdfrwt beam="2">  1       -2 0.25872806E+00 0.27288154E+04</pdfrwt>
<totfact> 0.10724037E+00</totfact>
</mgrwt>
</event>
<event>
12    3  0.4769008E-008  0.2059664E+04  0.7818608E-02  0.8579223E-01
          3   -1    0    0  501    0  0.00000000000E+00  0.00000000000E+00  0.11705982148E+04  0.11705982148E+04  0.00000000000E+00 0. -1.
         -3   -1    0    0    0  501 -0.00000000000E+00 -0.00000000000E+00 -0.90599306076E+03  0.90599306076E+03  0.00000000000E+00 0.  1.
         23    2    1    2    0    0 -0.43099177272E+03 -0.21914781685E+03 -0.57308704765E+03  0.75556278815E+03  0.93095052849E+02 0.  0.
        254    2    1    2    0    0  0.43099177272E+03  0.21914781685E+03  0.83769220169E+03  0.13210284874E+04  0.89978239926E+03 0.  0.
         23    2    4    4    0    0 -0.47379324688E+02  0.42697774211E+03  0.17459089700E+03  0.47256834350E+03  0.91016840723E+02 0.  0.
         23    2    4    4    0    0  0.47837109741E+03 -0.20782992525E+03  0.66310130469E+03  0.84846014392E+03  0.90272315122E+02 0.  0.
          3    1    3    3  502    0 -0.24775453050E+03 -0.12752297787E+03 -0.25811697300E+03  0.37982731474E+03  0.00000000000E+00 0. -1.
         -3    1    3    3    0  502 -0.18323724222E+03 -0.91624838980E+02 -0.31497007465E+03  0.37573547341E+03  0.00000000000E+00 0.  1.
         13    1    5    5    0    0 -0.63401699733E+02  0.21609075493E+03  0.65145350200E+02  0.23443316008E+03  0.00000000000E+00 0. -1.
        -13    1    5    5    0    0  0.16022375044E+02  0.21088698718E+03  0.10944554680E+03  0.23813518341E+03  0.00000000000E+00 0.  1.
          3    1    6    6  503    0  0.24865947404E+02  0.82735509309E+01  0.23843689985E+02  0.35430051332E+02  0.00000000000E+00 0. -1.
         -3    1    6    6    0  503  0.45350515001E+03 -0.21610347618E+03  0.63925761471E+03  0.81303009259E+03  0.00000000000E+00 0.  1.
<mgrwt>
<rscale>  0 0.20596639E+04</rscale>
<asrwt>0</asrwt>
<pdfrwt beam="1">  1        3 0.18009203E+00 0.20596639E+04</pdfrwt>
<pdfrwt beam="2">  1       -3 0.13938355E+00 0.20596639E+04</pdfrwt>
<totfact> 0.18654149E-01</totfact>
</mgrwt>
</event>
<event>
12    3  0.4769008E-008  0.1242886E+04  0.7818608E-02  0.9076125E-01
         -2   -1    0    0    0  501 -0.00000000000E+00  0.00000000000E+00  0.42096514122E+03  0.42096514122E+03  0.00000000000E+00 0.  1.
          2   -1    0    0  501    0  0.00000000000E+00 -0.00000000000E+00 -0.91739479912E+03  0.91739479912E+03  0.00000000000E+00 0. -1.
         23    2    1    2    0    0 -0.10620078827E+03  0.80473204819E+02 -0.38372186642E+03  0.41635215338E+03  0.91389828385E+02 0.  0.
        254    2    1    2    0    0  0.10620078827E+03 -0.80473204819E+02 -0.11270779148E+03  0.92200778696E+03  0.90534013986E+03 0.  0.
         23    2    4    4    0    0 -0.26303828041E+03 -0.19841903474E+03  0.21536863480E+03  0.40461785474E+03  0.93662741849E+02 0.  0.
         23    2    4    4    0    0  0.36923906869E+03  0.11794582992E+03 -0.32807642628E+03  0.51738993222E+03  0.99042878832E+02 0.  0.
          1    1    3    3  502    0 -0.11111887893E+03  0.39477571274E+02 -0.31275530080E+03  0.33424805470E+03  0.00000000000E+00 0. -1.
         -1    1    3    3    0  502  0.49180906524E+01  0.40995633545E+02 -0.70966565616E+02  0.82104098685E+02  0.00000000000E+00 0.  1.
         13    1    5    5    0    0 -0.10115112773E+03 -0.12465477344E+03  0.71101085848E+02  0.17557257073E+03  0.00000000000E+00 0. -1.
        -13    1    5    5    0    0 -0.16188715268E+03 -0.73764261295E+02  0.14426754895E+03  0.22904528401E+03  0.00000000000E+00 0.  1.
          1    1    6    6  503    0  0.21481057112E+02  0.37301617047E+02 -0.33009104088E+02  0.54244330595E+02  0.00000000000E+00 0. -1.
         -1    1    6    6    0  503  0.34775801157E+03  0.80644212871E+02 -0.29506732219E+03  0.46314560163E+03  0.00000000000E+00 0.  1.
<mgrwt>
<rscale>  0 0.12428857E+04</rscale>
<asrwt>0</asrwt>
<pdfrwt beam="1">  1        2 0.14113766E+00 0.12428857E+04</pdfrwt>
<pdfrwt beam="2">  1       -2 0.64763869E-01 0.12428857E+04</pdfrwt>
<totfact> 0.61807422E+01</totfact>
</mgrwt>
</event>
<event>
12    3  0.4769008E-008  0.1727862E+04  0.7818608E-02  0.8745631E-01
         -2   -1    0    0    0  501 -0.00000000000E+00  0.00000000000E+00  0.69511399742E+03  0.69511399742E+03  0.00000000000E+00 0.  1.
          2   -1    0    0  501    0  0.00000000000E+00 -0.00000000000E+00 -0.10737469875E+04  0.10737469875E+04  0.00000000000E+00 0. -1.
         23    2    1    2    0    0  0.40047894554E+03 -0.24789566549E+02  0.35473683463E+03  0.54308295166E+03  0.90016454658E+02 0.  0.
        254    2    1    2    0    0 -0.40047894554E+03  0.24789566549E+02 -0.73336982469E+03  0.12257780332E+04  0.89649460599E+03 0.  0.
         23    2    4    4    0    0  0.17666870495E+03  0.21839406282E+03 -0.40016053677E+02  0.29772670146E+03  0.90178191544E+02 0.  0.
         23    2    4    4    0    0 -0.57714765048E+03 -0.19360449627E+03 -0.69335377101E+03  0.92805133177E+03  0.99788331955E+02 0.  0.
          3    1    3    3  502    0  0.99282435691E+02 -0.75586944987E+01  0.40569907299E+02  0.10751768821E+03  0.00000000000E+00 0. -1.
         -3    1    3    3    0  502  0.30119650985E+03 -0.17230872050E+02  0.31416692733E+03  0.43556526345E+03  0.00000000000E+00 0.  1.
         13    1    5    5    0    0 -0.41848066126E+01  0.86860578263E+01  0.12585056766E+02  0.15853827953E+02  0.00000000000E+00 0. -1.
        -13    1    5    5    0    0  0.18085351156E+03  0.20970800499E+03 -0.52601110443E+02  0.28187287351E+03  0.00000000000E+00 0.  1.
          3    1    6    6  503    0 -0.55495947459E+02 -0.52326345841E+02 -0.78927355816E+02  0.10976053093E+03  0.00000000000E+00 0. -1.
         -3    1    6    6    0  503 -0.52165170302E+03 -0.14127815043E+03 -0.61442641519E+03  0.81829080084E+03  0.00000000000E+00 0.  1.
<mgrwt>
<rscale>  0 0.17278618E+04</rscale>
<asrwt>0</asrwt>
<pdfrwt beam="1">  1        2 0.16519184E+00 0.17278618E+04</pdfrwt>
<pdfrwt beam="2">  1       -2 0.10694062E+00 0.17278618E+04</pdfrwt>
<totfact> 0.15108826E+01</totfact>
</mgrwt>
</event>
<event>
12    3  0.4769008E-008  0.2332273E+04  0.7818608E-02  0.8465304E-01
         -2   -1    0    0    0  501 -0.00000000000E+00  0.00000000000E+00  0.32128324511E+04  0.32128324511E+04  0.00000000000E+00 0.  1.
          2   -1    0    0  501    0  0.00000000000E+00 -0.00000000000E+00 -0.42326349594E+03  0.42326349594E+03  0.00000000000E+00 0. -1.
         23    2    1    2    0    0 -0.49078510920E+03 -0.28100934051E+03  0.24554783966E+04  0.25214036533E+04  0.90917291026E+02 0.  0.
        254    2    1    2    0    0  0.49078510920E+03  0.28100934051E+03  0.33409055851E+03  0.11146922937E+04  0.90060320645E+03 0.  0.
         23    2    4    4    0    0  0.41018215124E+03  0.23859745834E+03  0.62839693284E+03  0.79276921917E+03  0.91772465080E+02 0.  0.
         23    2    4    4    0    0  0.80602957963E+02  0.42411882162E+02 -0.29430637433E+03  0.32192307452E+03  0.93394964303E+02 0.  0.
          4    1    3    3  502    0 -0.47609683231E+03 -0.28377929534E+03  0.23288760836E+04  0.23939220319E+04  0.00000000000E+00 0.  1.
         -4    1    3    3    0  502 -0.14688276887E+02  0.27699548386E+01  0.12660231306E+03  0.12748162142E+03  0.00000000000E+00 0. -1.
         13    1    5    5    0    0  0.10094911600E+03  0.17933007233E+02  0.15403502094E+03  0.18503811619E+03  0.00000000000E+00 0. -1.
        -13    1    5    5    0    0  0.30923303524E+03  0.22066445111E+03  0.47436191190E+03  0.60773110298E+03  0.00000000000E+00 0.  1.
          2    1    6    6  503    0  0.89647313765E+01  0.41940413747E+02 -0.43504673862E+02  0.61090272235E+02  0.00000000000E+00 0. -1.
         -2    1    6    6    0  503  0.71638226587E+02  0.47146841523E+00 -0.25080170047E+03  0.26083280229E+03  0.00000000000E+00 0.  1.
<mgrwt>
<rscale>  0 0.23322733E+04</rscale>
<asrwt>0</asrwt>
<pdfrwt beam="1">  1        2 0.65117463E-01 0.23322733E+04</pdfrwt>
<pdfrwt beam="2">  1       -2 0.49428190E+00 0.23322733E+04</pdfrwt>
<totfact> 0.12035606E-01</totfact>
</mgrwt>
</event>
<event>
12    3  0.4769008E-008  0.2535870E+04  0.7818608E-02  0.8390317E-01
         -1   -1    0    0    0  501 -0.00000000000E+00  0.00000000000E+00  0.10980613875E+04  0.10980613875E+04  0.00000000000E+00 0.  1.
          1   -1    0    0  501    0  0.00000000000E+00 -0.00000000000E+00 -0.14640887933E+04  0.14640887933E+04  0.00000000000E+00 0. -1.
         23    2    1    2    0    0 -0.93870722228E+03 -0.23715469980E+03  0.38018137182E+03  0.10444423190E+04  0.94383693070E+02 0.  0.
        254    2    1    2    0    0  0.93870722228E+03  0.23715469980E+03 -0.74620877758E+03  0.15177078618E+04  0.89955322981E+03 0.  0.
         23    2    4    4    0    0  0.81001836184E+03 -0.18597075343E+03 -0.31344429480E+03  0.89282209221E+03  0.90383044577E+02 0.  0.
         23    2    4    4    0    0  0.12868886045E+03  0.42312545323E+03 -0.43276448277E+03  0.62488576960E+03  0.87184606012E+02 0.  0.
          4    1    3    3  502    0 -0.10347468878E+03 -0.43049830435E+02  0.72223374271E+02  0.13332859749E+03  0.00000000000E+00 0. -1.
         -4    1    3    3    0  502 -0.83523253351E+03 -0.19410486937E+03  0.30795799755E+03  0.91111372155E+03  0.00000000000E+00 0.  1.
         13    1    5    5    0    0  0.55398237813E+03 -0.90744333176E+02 -0.23537897970E+03  0.60871526461E+03  0.00000000000E+00 0.  1.
        -13    1    5    5    0    0  0.25603598371E+03 -0.95226420252E+02 -0.78065315100E+02  0.28410682760E+03  0.00000000000E+00 0. -1.
          2    1    6    6  503    0  0.65990824851E+02  0.34125786733E+03 -0.32888964288E+03  0.47851867066E+03  0.00000000000E+00 0.  1.
         -2    1    6    6    0  503  0.62698035597E+02  0.81867585901E+02 -0.10387483990E+03  0.14636709894E+03  0.00000000000E+00 0. -1.
<mgrwt>
<rscale>  0 0.25358702E+04</rscale>
<asrwt>0</asrwt>
<pdfrwt beam="1">  1        1 0.22524443E+00 0.25358702E+04</pdfrwt>
<pdfrwt beam="2">  1       -1 0.16893252E+00 0.25358702E+04</pdfrwt>
<totfact> 0.15376711E+00</totfact>
</mgrwt>
</event>
<event>
12    3  0.4769008E-008  0.1278155E+04  0.7818608E-02  0.9047070E-01
         -2   -1    0    0    0  501 -0.00000000000E+00  0.00000000000E+00  0.80588235079E+03  0.80588235079E+03  0.00000000000E+00 0. -1.
          2   -1    0    0  501    0  0.00000000000E+00 -0.00000000000E+00 -0.50679842681E+03  0.50679842681E+03  0.00000000000E+00 0.  1.
         23    2    1    2    0    0 -0.10754939897E+03  0.15293846202E+03 -0.18385615742E+03  0.27812080454E+03  0.92687911395E+02 0.  0.
        254    2    1    2    0    0  0.10754939897E+03 -0.15293846202E+03  0.48294008140E+03  0.10345599731E+04  0.89561496708E+03 0.  0.
         23    2    4    4    0    0  0.45153939207E+03 -0.26057206503E+03  0.18471469511E+03  0.55959190579E+03  0.85076193963E+02 0.  0.
         23    2    4    4    0    0 -0.34398999310E+03  0.10763360301E+03  0.29822538629E+03  0.47496806727E+03  0.82110754753E+02 0.  0.
          2    1    3    3  502    0  0.15339040835E+02  0.46424966237E+01 -0.12398280414E+02  0.20262189069E+02  0.00000000000E+00 0. -1.
         -2    1    3    3    0  502 -0.12288843980E+03  0.14829596539E+03 -0.17145787700E+03  0.25785861548E+03  0.00000000000E+00 0.  1.
         13    1    5    5    0    0  0.44911989063E+01 -0.13310607281E+02  0.16651479523E+02  0.21785658221E+02  0.00000000000E+00 0.  1.
        -13    1    5    5    0    0  0.44704819316E+03 -0.24726145775E+03  0.16806321558E+03  0.53780624757E+03  0.00000000000E+00 0. -1.
          1    1    6    6  503    0 -0.32753846524E+03  0.91306098735E+02  0.29746309442E+03  0.45177709373E+03  0.00000000000E+00 0. -1.
         -1    1    6    6    0  503 -0.16451527860E+02  0.16327504276E+02  0.76229187436E+00  0.23190973539E+02  0.00000000000E+00 0.  1.
<mgrwt>
<rscale>  0 0.12781548E+04</rscale>
<asrwt>0</asrwt>
<pdfrwt beam="1">  1        2 0.77968989E-01 0.12781548E+04</pdfrwt>
<pdfrwt beam="2">  1       -2 0.12398190E+00 0.12781548E+04</pdfrwt>
<totfact> 0.29111615E+01</totfact>
</mgrwt>
</event>
<event>
12    3  0.4769008E-008  0.1822084E+04  0.7818608E-02  0.8694643E-01
         -1   -1    0    0    0  501 -0.00000000000E+00  0.00000000000E+00  0.10690319710E+04  0.10690319710E+04  0.00000000000E+00 0.  1.
          1   -1    0    0  501    0  0.00000000000E+00 -0.00000000000E+00 -0.77640075891E+03  0.77640075891E+03  0.00000000000E+00 0. -1.
         23    2    1    2    0    0 -0.18916682558E+03 -0.15699614969E+03  0.76558350877E+03  0.80925730528E+03  0.91364097610E+02 0.  0.
        254    2    1    2    0    0  0.18916682558E+03  0.15699614969E+03 -0.47295229673E+03  0.10361754246E+04  0.88856274771E+03 0.  0.
         23    2    4    4    0    0  0.74209881205E+02 -0.21773206435E+03 -0.57064501847E+03  0.62229000928E+03  0.93245698159E+02 0.  0.
         23    2    4    4    0    0  0.11495694437E+03  0.37472821404E+03  0.97692721737E+02  0.41388541531E+03  0.90116234212E+02 0.  0.
          4    1    3    3  502    0 -0.41815269954E+02 -0.87301767639E+02  0.34052661912E+03  0.35401764612E+03  0.00000000000E+00 0. -1.
         -4    1    3    3    0  502 -0.14735155562E+03 -0.69694382048E+02  0.42505688965E+03  0.45523965916E+03  0.00000000000E+00 0.  1.
         13    1    5    5    0    0  0.82008573186E+02 -0.10450646187E+03 -0.34546082034E+03  0.37012185161E+03  0.00000000000E+00 0. -1.
        -13    1    5    5    0    0 -0.77986919801E+01 -0.11322560248E+03 -0.22518419813E+03  0.25216815767E+03  0.00000000000E+00 0.  1.
          4    1    6    6  503    0  0.88245364037E+02  0.34883078040E+03  0.67782048044E+02  0.36614828098E+03  0.00000000000E+00 0. -1.
         -4    1    6    6    0  503  0.26711580336E+02  0.25897433641E+02  0.29910673693E+02  0.47737134330E+02  0.00000000000E+00 0.  1.
<mgrwt>
<rscale>  0 0.18220837E+04</rscale>
<asrwt>0</asrwt>
<pdfrwt beam="1">  1        1 0.11944627E+00 0.18220837E+04</pdfrwt>
<pdfrwt beam="2">  1       -1 0.16446646E+00 0.18220837E+04</pdfrwt>
<totfact> 0.59079788E+00</totfact>
</mgrwt>
</event>
<event>
12    3  0.4769008E-008  0.1747697E+04  0.7818608E-02  0.8734619E-01
          1   -1    0    0  501    0  0.00000000000E+00  0.00000000000E+00  0.23242430918E+04  0.23242430918E+04  0.00000000000E+00 0. -1.
         -1   -1    0    0    0  501 -0.00000000000E+00 -0.00000000000E+00 -0.32854175440E+03  0.32854175440E+03  0.00000000000E+00 0.  1.
         23    2    1    2    0    0 -0.56576491433E+03 -0.90233971337E+02  0.11361225481E+04  0.12757679891E+04  0.92614307279E+02 0.  0.
        254    2    1    2    0    0  0.56576491433E+03  0.90233971337E+02  0.85957878927E+03  0.13770168570E+04  0.91053150506E+03 0.  0.
         23    2    4    4    0    0  0.26254118017E+03 -0.38486496049E+03  0.23088438260E+03  0.52768047552E+03  0.89945411321E+02 0.  0.
         23    2    4    4    0    0  0.30322373416E+03  0.47509893182E+03  0.62869440667E+03  0.84933638151E+03  0.91934781254E+02 0.  0.
          3    1    3    3  502    0 -0.51310402174E+03 -0.77150807359E+02  0.10772788018E+04  0.11957247179E+04  0.00000000000E+00 0. -1.
         -3    1    3    3    0  502 -0.52660892596E+02 -0.13083163978E+02  0.58843746255E+02  0.80043271185E+02  0.00000000000E+00 0.  1.
         13    1    5    5    0    0  0.15204187434E+03 -0.16877122236E+03  0.74970897313E+02  0.23920930687E+03  0.00000000000E+00 0. -1.
        -13    1    5    5    0    0  0.11049930583E+03 -0.21609373813E+03  0.15591348529E+03  0.28847116865E+03  0.00000000000E+00 0.  1.
          4    1    6    6  503    0  0.19936542051E+03  0.38484136226E+03  0.48207803505E+03  0.64826589983E+03  0.00000000000E+00 0.  1.
         -4    1    6    6    0  503  0.10385831365E+03  0.90257569563E+02  0.14661637162E+03  0.20107048168E+03  0.00000000000E+00 0. -1.
<mgrwt>
<rscale>  0 0.17476967E+04</rscale>
<asrwt>0</asrwt>
<pdfrwt beam="1">  1        1 0.35757585E+00 0.17476967E+04</pdfrwt>
<pdfrwt beam="2">  1       -1 0.50544887E-01 0.17476967E+04</pdfrwt>
<totfact> 0.66803959E+00</totfact>
</mgrwt>
</event>
<event>
12    3  0.4769008E-008  0.1364216E+04  0.7818608E-02  0.8980136E-01
         -1   -1    0    0    0  501 -0.00000000000E+00  0.00000000000E+00  0.27176346062E+03  0.27176346062E+03  0.00000000000E+00 0.  1.
          1   -1    0    0  501    0  0.00000000000E+00 -0.00000000000E+00 -0.17120450352E+04  0.17120450352E+04  0.00000000000E+00 0. -1.
         23    2    1    2    0    0  0.15906955980E+03 -0.73917405697E+02 -0.85745734872E+03  0.88027937069E+03  0.94296118048E+02 0.  0.
        254    2    1    2    0    0 -0.15906955980E+03  0.73917405697E+02 -0.58282422587E+03  0.11035291251E+04  0.92050287562E+03 0.  0.
         23    2    4    4    0    0  0.31747258027E+03  0.21365912071E+03 -0.10159250517E+03  0.40595243175E+03  0.89650882048E+02 0.  0.
         23    2    4    4    0    0 -0.47654214006E+03 -0.13974171501E+03 -0.48123172070E+03  0.69757669338E+03  0.91701232086E+02 0.  0.
          1    1    3    3  502    0  0.11347862035E+03 -0.75365241364E+02 -0.76665725600E+03  0.77866595216E+03  0.00000000000E+00 0. -1.
         -1    1    3    3    0  502  0.45590939445E+02  0.14478356669E+01 -0.90800092722E+02  0.10161341853E+03  0.00000000000E+00 0.  1.
         13    1    5    5    0    0  0.22436577165E+03  0.19586754169E+03 -0.69064049660E+02  0.30573507540E+03  0.00000000000E+00 0. -1.
        -13    1    5    5    0    0  0.93106808617E+02  0.17791579016E+02 -0.32528455510E+02  0.10021735634E+03  0.00000000000E+00 0.  1.
          3    1    6    6  503    0 -0.45142690110E+03 -0.10739489996E+03 -0.44024595132E+03  0.63963771717E+03  0.00000000000E+00 0. -1.
         -3    1    6    6    0  503 -0.25115238962E+02 -0.32346815053E+02 -0.40985769375E+02  0.57938976203E+02  0.00000000000E+00 0.  1.
<mgrwt>
<rscale>  0 0.13642159E+04</rscale>
<asrwt>0</asrwt>
<pdfrwt beam="1">  1        1 0.26339154E+00 0.13642159E+04</pdfrwt>
<pdfrwt beam="2">  1       -1 0.41809764E-01 0.13642159E+04</pdfrwt>
<totfact> 0.25678099E+01</totfact>
</mgrwt>
</event>
<event>
12    3  0.4769008E-008  0.1574238E+04  0.7818608E-02  0.8836533E-01
         -2   -1    0    0    0  501 -0.00000000000E+00  0.00000000000E+00  0.23357817192E+03  0.23357817192E+03  0.00000000000E+00 0. -1.
          2   -1    0    0  501    0  0.00000000000E+00 -0.00000000000E+00 -0.26524592127E+04  0.26524592127E+04  0.00000000000E+00 0.  1.
         23    2    1    2    0    0  0.14541922687E+03  0.33667517100E+03 -0.12932479457E+03  0.39940201457E+03  0.91105128512E+02 0.  0.
        254    2    1    2    0    0 -0.14541922687E+03 -0.33667517100E+03 -0.22895562462E+04  0.24866353701E+04  0.89821530645E+03 0.  0.
         23    2    4    4    0    0  0.27359069808E+03 -0.98080933467E+02 -0.16645432076E+04  0.16922433100E+04  0.92258283457E+02 0.  0.
         23    2    4    4    0    0 -0.41900992495E+03 -0.23859423753E+03 -0.62501303862E+03  0.79439206002E+03  0.88999545958E+02 0.  0.
          3    1    3    3  502    0  0.68119433802E+02  0.17882570820E+03 -0.11454007644E+03  0.22302089652E+03  0.00000000000E+00 0. -1.
         -3    1    3    3    0  502  0.77299793066E+02  0.15784946280E+03 -0.14784718134E+02  0.17638111805E+03  0.00000000000E+00 0.  1.
         13    1    5    5    0    0  0.60812012672E+02  0.16726720737E+02 -0.36087508794E+03  0.36634507390E+03  0.00000000000E+00 0. -1.
        -13    1    5    5    0    0  0.21277868541E+03 -0.11480765420E+03 -0.13036681196E+04  0.13258982361E+04  0.00000000000E+00 0.  1.
          3    1    6    6  503    0 -0.77637897158E+01  0.71348006345E+01 -0.80202814817E+01  0.13247895149E+02  0.00000000000E+00 0. -1.
         -3    1    6    6    0  503 -0.41124613523E+03 -0.24572903817E+03 -0.61699275714E+03  0.78114416487E+03  0.00000000000E+00 0.  1.
<mgrwt>
<rscale>  0 0.15742383E+04</rscale>
<asrwt>0</asrwt>
<pdfrwt beam="1">  1        2 0.40807064E+00 0.15742383E+04</pdfrwt>
<pdfrwt beam="2">  1       -2 0.35935104E-01 0.15742383E+04</pdfrwt>
<totfact> 0.19895558E+01</totfact>
</mgrwt>
</event>
<event>
12    3  0.4769008E-008  0.1705972E+04  0.7818608E-02  0.8757966E-01
         -2   -1    0    0    0  501 -0.00000000000E+00  0.00000000000E+00  0.20024739374E+04  0.20024739374E+04  0.00000000000E+00 0.  1.
          2   -1    0    0  501    0  0.00000000000E+00 -0.00000000000E+00 -0.36334303004E+03  0.36334303004E+03  0.00000000000E+00 0. -1.
         23    2    1    2    0    0 -0.11634949208E+03  0.59437751902E+03  0.49113889879E+03  0.78499611393E+03  0.90441370832E+02 0.  0.
        254    2    1    2    0    0  0.11634949208E+03 -0.59437751902E+03  0.11479920086E+04  0.15808208535E+04  0.90237856784E+03 0.  0.
         23    2    4    4    0    0  0.34003968586E+03 -0.11690130449E+03  0.70900620464E+02  0.37789135064E+03  0.92098164774E+02 0.  0.
         23    2    4    4    0    0 -0.22369019378E+03 -0.47747621454E+03  0.10770913881E+04  0.12029295029E+04  0.94301072535E+02 0.  0.
          4    1    3    3  502    0 -0.94995190453E+02  0.55814199471E+03  0.43073975243E+03  0.71139532385E+03  0.00000000000E+00 0. -1.
         -4    1    3    3    0  502 -0.21354301629E+02  0.36235524308E+02  0.60399146353E+02  0.73600790078E+02  0.00000000000E+00 0.  1.
         13    1    5    5    0    0  0.31047522665E+03 -0.12422766870E+03  0.83906750214E+02  0.34477198663E+03  0.00000000000E+00 0. -1.
        -13    1    5    5    0    0  0.29564459215E+02  0.73263642193E+01 -0.13006129750E+02  0.33119364010E+02  0.00000000000E+00 0.  1.
          1    1    6    6  503    0 -0.28515974101E+02 -0.15821914152E+03  0.29635361779E+03  0.33715267209E+03  0.00000000000E+00 0.  1.
         -1    1    6    6    0  503 -0.19517421968E+03 -0.31925707302E+03  0.78073777032E+03  0.86577683077E+03  0.00000000000E+00 0. -1.
<mgrwt>
<rscale>  0 0.17059718E+04</rscale>
<asrwt>0</asrwt>
<pdfrwt beam="1">  1        2 0.55898929E-01 0.17059718E+04</pdfrwt>
<pdfrwt beam="2">  1       -2 0.30807291E+00 0.17059718E+04</pdfrwt>
<totfact> 0.23962018E+00</totfact>
</mgrwt>
</event>
<event>
12    3  0.4769008E-008  0.2236911E+04  0.7818608E-02  0.8503220E-01
         -2   -1    0    0    0  501 -0.00000000000E+00  0.00000000000E+00  0.74492718787E+03  0.74492718787E+03  0.00000000000E+00 0.  1.
          2   -1    0    0  501    0  0.00000000000E+00 -0.00000000000E+00 -0.16792815925E+04  0.16792815925E+04  0.00000000000E+00 0. -1.
         23    2    1    2    0    0 -0.82655028097E+02 -0.17845332495E+03  0.59784222220E+03  0.63624617028E+03  0.93361789272E+02 0.  0.
        254    2    1    2    0    0  0.82655028097E+02  0.17845332495E+03 -0.15321966268E+04  0.17879626101E+04  0.90028126103E+03 0.  0.
         23    2    4    4    0    0  0.13529827109E+03 -0.13612880674E+03 -0.14218186700E+04  0.14378206608E+04  0.94462945526E+02 0.  0.
         23    2    4    4    0    0 -0.52643242988E+02  0.31458213169E+03 -0.11037795678E+03  0.35014194925E+03  0.93181879527E+02 0.  0.
          4    1    3    3  502    0 -0.64084043273E+02 -0.42807814866E+02  0.16182526292E+03  0.17923919587E+03  0.00000000000E+00 0. -1.
         -4    1    3    3    0  502 -0.18570984825E+02 -0.13564551008E+03  0.43601695928E+03  0.45700697441E+03  0.00000000000E+00 0.  1.
         13    1    5    5    0    0 -0.74747045297E+01  0.63088862854E+01 -0.12856315588E+03  0.12893470558E+03  0.00000000000E+00 0. -1.
        -13    1    5    5    0    0  0.14277297562E+03 -0.14243769303E+03 -0.12932555141E+04  0.13088859552E+04  0.00000000000E+00 0.  1.
          4    1    6    6  503    0 -0.39280547260E-01 -0.49324173914E+01  0.43760877537E+01  0.65939690864E+01  0.00000000000E+00 0. -1.
         -4    1    6    6    0  503 -0.52603962441E+02  0.31951454908E+03 -0.11475404453E+03  0.34354798016E+03  0.00000000000E+00 0.  1.
<mgrwt>
<rscale>  0 0.22369108E+04</rscale>
<asrwt>0</asrwt>
<pdfrwt beam="1">  1        2 0.25835102E+00 0.22369108E+04</pdfrwt>
<pdfrwt beam="2">  1       -2 0.11460418E+00 0.22369108E+04</pdfrwt>
<totfact> 0.54578597E+00</totfact>
</mgrwt>
</event>
<event>
12    3  0.4769008E-008  0.1708864E+04  0.7818608E-02  0.8756325E-01
         -1   -1    0    0    0  501 -0.00000000000E+00  0.00000000000E+00  0.35224322268E+03  0.35224322268E+03  0.00000000000E+00 0.  1.
          1   -1    0    0  501    0  0.00000000000E+00 -0.00000000000E+00 -0.20725853978E+04  0.20725853978E+04  0.00000000000E+00 0. -1.
         23    2    1    2    0    0 -0.17367902396E+03  0.55235366484E+03 -0.90700920074E+03  0.10796639270E+04  0.88031418706E+02 0.  0.
        254    2    1    2    0    0  0.17367902396E+03 -0.55235366484E+03 -0.81333297441E+03  0.13451646935E+04  0.90149794838E+03 0.  0.
         23    2    4    4    0    0  0.34911369457E+03 -0.49046893724E+03 -0.11883405311E+03  0.62031485608E+03  0.90712944858E+02 0.  0.
         23    2    4    4    0    0 -0.17543467061E+03 -0.61884727597E+02 -0.69449892130E+03  0.72484983741E+03  0.92040708065E+02 0.  0.
          3    1    3    3  502    0 -0.17282289653E+03  0.55246954645E+03 -0.90890002471E+03  0.10775850817E+04  0.00000000000E+00 0. -1.
         -3    1    3    3    0  502 -0.85612743025E+00 -0.11588161537E+00  0.18908239719E+01  0.20788453570E+01  0.00000000000E+00 0.  1.
         13    1    5    5    0    0  0.32941882566E+03 -0.46864894900E+03 -0.13239582648E+03  0.58794324127E+03  0.00000000000E+00 0. -1.
        -13    1    5    5    0    0  0.19694868911E+02 -0.21819988245E+02  0.13561773366E+02  0.32371614807E+02  0.00000000000E+00 0.  1.
          4    1    6    6  503    0 -0.11344873663E+03 -0.44264519878E+02 -0.27949938171E+03  0.30487680781E+03  0.00000000000E+00 0. -1.
         -4    1    6    6    0  503 -0.61985933983E+02 -0.17620207718E+02 -0.41499953959E+03  0.41997302960E+03  0.00000000000E+00 0.  1.
<mgrwt>
<rscale>  0 0.17088641E+04</rscale>
<asrwt>0</asrwt>
<pdfrwt beam="1">  1        1 0.31885928E+00 0.17088641E+04</pdfrwt>
<pdfrwt beam="2">  1       -1 0.54191267E-01 0.17088641E+04</pdfrwt>
<totfact> 0.87013007E+00</totfact>
</mgrwt>
</event>
<event>
12    3  0.4769008E-008  0.1470006E+04  0.7818608E-02  0.8904647E-01
         -2   -1    0    0    0  501 -0.00000000000E+00  0.00000000000E+00  0.12734577339E+04  0.12734577339E+04  0.00000000000E+00 0.  1.
          2   -1    0    0  501    0  0.00000000000E+00 -0.00000000000E+00 -0.42422256106E+03  0.42422256106E+03  0.00000000000E+00 0. -1.
         23    2    1    2    0    0 -0.81971321748E+02 -0.28139174838E+03 -0.13294910923E+03  0.33449889807E+03  0.91178031995E+02 0.  0.
        254    2    1    2    0    0  0.81971321748E+02  0.28139174838E+03  0.98218428208E+03  0.13631813969E+04  0.89870848626E+03 0.  0.
         23    2    4    4    0    0 -0.36137479710E+03  0.12955059923E+03  0.18893256745E+03  0.43743450923E+03  0.90985345442E+02 0.  0.
         23    2    4    4    0    0  0.44334611884E+03  0.15184114916E+03  0.79325171463E+03  0.92574688768E+03  0.90263512085E+02 0.  0.
          4    1    3    3  502    0 -0.57908599635E+02 -0.25484224612E+03 -0.85354567825E+02  0.27492431425E+03  0.00000000000E+00 0. -1.
         -4    1    3    3    0  502 -0.24062722113E+02 -0.26549502267E+02 -0.47594541401E+02  0.59574583819E+02  0.00000000000E+00 0.  1.
         13    1    5    5    0    0 -0.32808137964E+03  0.86790902560E+02  0.15199098967E+03  0.37184850864E+03  0.00000000000E+00 0. -1.
        -13    1    5    5    0    0 -0.33293417453E+02  0.42759696666E+02  0.36941577775E+02  0.65586000588E+02  0.00000000000E+00 0.  1.
          1    1    6    6  503    0  0.44320741968E+03  0.13917618729E+03  0.77049625514E+03  0.89970401086E+03  0.00000000000E+00 0. -1.
         -1    1    6    6    0  503  0.13869916433E+00  0.12664961870E+02  0.22755459486E+02  0.26042876820E+02  0.00000000000E+00 0.  1.
<mgrwt>
<rscale>  0 0.14700061E+04</rscale>
<asrwt>0</asrwt>
<pdfrwt beam="1">  1        2 0.65265010E-01 0.14700061E+04</pdfrwt>
<pdfrwt beam="2">  1       -2 0.19591657E+00 0.14700061E+04</pdfrwt>
<totfact> 0.10183936E+01</totfact>
</mgrwt>
</event>
<event>
12    3  0.4769008E-008  0.2645915E+04  0.7818608E-02  0.8352770E-01
         -2   -1    0    0    0  501 -0.00000000000E+00  0.00000000000E+00  0.62767825192E+03  0.62767825192E+03  0.00000000000E+00 0.  1.
          2   -1    0    0  501    0  0.00000000000E+00 -0.00000000000E+00 -0.27883974967E+04  0.27883974967E+04  0.00000000000E+00 0. -1.
         23    2    1    2    0    0 -0.41759446444E+03 -0.16198301863E+03  0.43518253448E+03  0.63102358565E+03  0.90461551358E+02 0.  0.
        254    2    1    2    0    0  0.41759446444E+03  0.16198301863E+03 -0.25959017793E+04  0.27850521630E+04  0.90398333381E+03 0.  0.
         23    2    4    4    0    0  0.31436162637E+03 -0.30479844515E+03 -0.72161656094E+03  0.84863318067E+03  0.87877699143E+02 0.  0.
         23    2    4    4    0    0  0.10323283807E+03  0.46678146378E+03 -0.18742852184E+04  0.19364189823E+04  0.90727292461E+02 0.  0.
          3    1    3    3  502    0 -0.64529088568E+02 -0.10018156449E+02  0.10820133396E+03  0.12637996440E+03  0.00000000000E+00 0. -1.
         -3    1    3    3    0  502 -0.35306537588E+03 -0.15196486218E+03  0.32698120052E+03  0.50464362125E+03  0.00000000000E+00 0.  1.
         13    1    5    5    0    0  0.89681527162E+02 -0.14438967310E+03 -0.25463498879E+03  0.30615377105E+03  0.00000000000E+00 0. -1.
        -13    1    5    5    0    0  0.22468009921E+03 -0.16040877205E+03 -0.46698157215E+03  0.54247940961E+03  0.00000000000E+00 0.  1.
          1    1    6    6  503    0  0.95022908720E+02  0.36036466764E+03 -0.15805410533E+04  0.16238848691E+04  0.00000000000E+00 0. -1.
         -1    1    6    6    0  503  0.82099293514E+01  0.10641679614E+03 -0.29374416508E+03  0.31253411327E+03  0.00000000000E+00 0.  1.
<mgrwt>
<rscale>  0 0.26459149E+04</rscale>
<asrwt>0</asrwt>
<pdfrwt beam="1">  1        2 0.42898423E+00 0.26459149E+04</pdfrwt>
<pdfrwt beam="2">  1       -2 0.96565884E-01 0.26459149E+04</pdfrwt>
<totfact> 0.18570873E+00</totfact>
</mgrwt>
</event>
<event>
12    3  0.4769008E-008  0.1398714E+04  0.7818608E-02  0.8954750E-01
         -3   -1    0    0    0  501 -0.00000000000E+00  0.00000000000E+00  0.84730664473E+03  0.84730664473E+03  0.00000000000E+00 0.  1.
          3   -1    0    0  501    0  0.00000000000E+00 -0.00000000000E+00 -0.57724104042E+03  0.57724104042E+03  0.00000000000E+00 0. -1.
         23    2    1    2    0    0  0.12422817962E+03 -0.34733066859E+03  0.25052598704E+03  0.45345684580E+03  0.82393002518E+02 0.  0.
        254    2    1    2    0    0 -0.12422817962E+03  0.34733066859E+03  0.19539617272E+02  0.97109083934E+03  0.89808929827E+03 0.  0.
         23    2    4    4    0    0  0.44520890069E+02  0.51401981758E+03  0.29160982034E+03  0.59931290900E+03  0.89113371946E+02 0.  0.
         23    2    4    4    0    0 -0.16874906969E+03 -0.16668914899E+03 -0.27207020307E+03  0.37177793034E+03  0.89079252260E+02 0.  0.
          4    1    3    3  502    0  0.14102912740E+01 -0.79645032743E+02  0.81135174013E+02  0.11370240377E+03  0.00000000000E+00 0. -1.
         -4    1    3    3    0  502  0.12281788834E+03 -0.26768563585E+03  0.16939081303E+03  0.33975444202E+03  0.00000000000E+00 0.  1.
         13    1    5    5    0    0  0.12907569289E+02  0.45719941480E+03  0.24151210305E+03  0.51722916213E+03  0.00000000000E+00 0.  1.
        -13    1    5    5    0    0  0.31613320780E+02  0.56820402778E+02  0.50097717285E+02  0.82083746867E+02  0.00000000000E+00 0. -1.
          4    1    6    6  503    0 -0.12377453379E+03 -0.15491826744E+03 -0.17635252448E+03  0.26536770280E+03  0.00000000000E+00 0.  1.
         -4    1    6    6    0  503 -0.44974535899E+02 -0.11770881554E+02 -0.95717678581E+02  0.10641022754E+03  0.00000000000E+00 0. -1.
<mgrwt>
<rscale>  0 0.13987139E+04</rscale>
<asrwt>0</asrwt>
<pdfrwt beam="1">  1        3 0.88806314E-01 0.13987139E+04</pdfrwt>
<pdfrwt beam="2">  1       -3 0.13035487E+00 0.13987139E+04</pdfrwt>
<totfact> 0.13519977E+00</totfact>
</mgrwt>
</event>
<event>
12    3  0.4769008E-008  0.1596777E+04  0.7818608E-02  0.8822530E-01
         -2   -1    0    0    0  501 -0.00000000000E+00  0.00000000000E+00  0.51723634946E+03  0.51723634946E+03  0.00000000000E+00 0.  1.
          2   -1    0    0  501    0  0.00000000000E+00 -0.00000000000E+00 -0.12323654692E+04  0.12323654692E+04  0.00000000000E+00 0. -1.
         23    2    1    2    0    0  0.51495478288E+03 -0.16188097803E+03 -0.22500581993E+03  0.59191120409E+03  0.91363970300E+02 0.  0.
        254    2    1    2    0    0 -0.51495478288E+03  0.16188097803E+03 -0.49012329985E+03  0.11576906146E+04  0.89924570095E+03 0.  0.
         23    2    4    4    0    0  0.45170608807E+02  0.13781690842E+03  0.20017330127E+03  0.26329100494E+03  0.90658251652E+02 0.  0.
         23    2    4    4    0    0 -0.56012539168E+03  0.24064069613E+02 -0.69029660112E+03  0.89439960969E+03  0.95507750638E+02 0.  0.
          1    1    3    3  502    0  0.46470562990E+02 -0.23427098391E+02 -0.52260651249E+02  0.73753086936E+02  0.00000000000E+00 0. -1.
         -1    1    3    3    0  502  0.46848421988E+03 -0.13845387964E+03 -0.17274516868E+03  0.51815811715E+03  0.00000000000E+00 0.  1.
         13    1    5    5    0    0  0.48522297516E+02  0.20314876510E+02  0.49929080522E+02  0.72525999791E+02  0.00000000000E+00 0.  1.
        -13    1    5    5    0    0 -0.33516887092E+01  0.11750203191E+03  0.15024422075E+03  0.19076500515E+03  0.00000000000E+00 0. -1.
          3    1    6    6  503    0 -0.34963122055E+03  0.17351046782E+02 -0.50130123203E+03  0.61142945173E+03  0.00000000000E+00 0. -1.
         -3    1    6    6    0  503 -0.21049417113E+03  0.67130228309E+01 -0.18899536910E+03  0.28297015796E+03  0.00000000000E+00 0.  1.
<mgrwt>
<rscale>  0 0.15967770E+04</rscale>
<asrwt>0</asrwt>
<pdfrwt beam="1">  1        2 0.18959469E+00 0.15967770E+04</pdfrwt>
<pdfrwt beam="2">  1       -2 0.79574823E-01 0.15967770E+04</pdfrwt>
<totfact> 0.24314388E+01</totfact>
</mgrwt>
</event>
<event>
12    3  0.4769008E-008  0.1448245E+04  0.7818608E-02  0.8919618E-01
         -2   -1    0    0    0  501 -0.00000000000E+00  0.00000000000E+00  0.99189165451E+03  0.99189165451E+03  0.00000000000E+00 0.  1.
          2   -1    0    0  501    0  0.00000000000E+00 -0.00000000000E+00 -0.52863989449E+03  0.52863989449E+03  0.00000000000E+00 0. -1.
         23    2    1    2    0    0  0.19516382184E+03  0.43543784146E+02  0.56031985948E+03  0.60191331968E+03  0.91412914800E+02 0.  0.
        254    2    1    2    0    0 -0.19516382184E+03 -0.43543784146E+02 -0.97068099455E+02  0.91861822932E+03  0.89132051295E+03 0.  0.
         23    2    4    4    0    0 -0.23276205893E+03  0.39270618201E+03 -0.61577382443E+02  0.46952883110E+03  0.90935294246E+02 0.  0.
         23    2    4    4    0    0  0.37598237084E+02 -0.43624996616E+03 -0.35490717012E+02  0.44908939822E+03  0.93241815684E+02 0.  0.
          1    1    3    3  502    0  0.74736535655E+02 -0.27728204211E+02  0.21628916895E+03  0.23051118774E+03  0.00000000000E+00 0. -1.
         -1    1    3    3    0  502  0.12042728619E+03  0.71271988357E+02  0.34403069053E+03  0.37140213194E+03  0.00000000000E+00 0.  1.
         13    1    5    5    0    0 -0.21093879046E+03  0.32913416559E+03 -0.22039005520E+02  0.39154845172E+03  0.00000000000E+00 0.  1.
        -13    1    5    5    0    0 -0.21823268462E+02  0.63572016421E+02 -0.39538376923E+02  0.77980379378E+02  0.00000000000E+00 0. -1.
          4    1    6    6  503    0 -0.93129019562E+01 -0.34737404661E+02 -0.26627276732E+02  0.44748511613E+02  0.00000000000E+00 0. -1.
         -4    1    6    6    0  503  0.46911139040E+02 -0.40151256150E+03 -0.88634402802E+01  0.40434088660E+03  0.00000000000E+00 0.  1.
<mgrwt>
<rscale>  0 0.14482451E+04</rscale>
<asrwt>0</asrwt>
<pdfrwt beam="1">  1        2 0.81329215E-01 0.14482451E+04</pdfrwt>
<pdfrwt beam="2">  1       -2 0.15259872E+00 0.14482451E+04</pdfrwt>
<totfact> 0.16001956E+01</totfact>
</mgrwt>
</event>
<event>
12    3  0.4769008E-008  0.1226103E+04  0.7818608E-02  0.9090310E-01
          1   -1    0    0  501    0  0.00000000000E+00  0.00000000000E+00  0.39111995527E+03  0.39111995527E+03  0.00000000000E+00 0. -1.
         -1   -1    0    0    0  501 -0.00000000000E+00 -0.00000000000E+00 -0.96091350657E+03  0.96091350657E+03  0.00000000000E+00 0.  1.
         23    2    1    2    0    0 -0.25606077816E+02  0.20272957831E+03  0.78171871695E+02  0.23652582190E+03  0.89881420531E+02 0.  0.
        254    2    1    2    0    0  0.25606077816E+02 -0.20272957831E+03 -0.64796542300E+03  0.11155076399E+04  0.88472772773E+03 0.  0.
         23    2    4    4    0    0  0.29444817320E+02 -0.10288277735E+01  0.20922146016E+03  0.23014898992E+03  0.91251752951E+02 0.  0.
         23    2    4    4    0    0 -0.38387395032E+01 -0.20170075054E+03 -0.85718688316E+03  0.88535865001E+03  0.91611450197E+02 0.  0.
          3    1    3    3  502    0 -0.13141168023E+02  0.15840582488E+03  0.16847352943E+02  0.15984032330E+03  0.00000000000E+00 0.  1.
         -3    1    3    3    0  502 -0.12464909793E+02  0.44323753435E+02  0.61324518753E+02  0.76685498596E+02  0.00000000000E+00 0. -1.
         13    1    5    5    0    0  0.13303413562E+02 -0.44880890375E+01  0.21279585524E+03  0.21325852800E+03  0.00000000000E+00 0. -1.
        -13    1    5    5    0    0  0.16141403758E+02  0.34592612640E+01 -0.35743950824E+01  0.16890461923E+02  0.00000000000E+00 0.  1.
          3    1    6    6  503    0  0.29342058978E+02 -0.17847322546E+03 -0.71413609588E+03  0.73668447253E+03  0.00000000000E+00 0. -1.
         -3    1    6    6    0  503 -0.33180798481E+02 -0.23227525084E+02 -0.14305078728E+03  0.14867417748E+03  0.00000000000E+00 0.  1.
<mgrwt>
<rscale>  0 0.12261035E+04</rscale>
<asrwt>0</asrwt>
<pdfrwt beam="1">  1        1 0.60172301E-01 0.12261035E+04</pdfrwt>
<pdfrwt beam="2">  1       -1 0.14783285E+00 0.12261035E+04</pdfrwt>
<totfact> 0.22160395E+01</totfact>
</mgrwt>
</event>
<event>
12    3  0.4769008E-008  0.1792998E+04  0.7818608E-02  0.8710032E-01
         -1   -1    0    0    0  501 -0.00000000000E+00  0.00000000000E+00  0.10202187030E+04  0.10202187030E+04  0.00000000000E+00 0.  1.
          1   -1    0    0  501    0  0.00000000000E+00 -0.00000000000E+00 -0.78778243269E+03  0.78778243269E+03  0.00000000000E+00 0. -1.
         23    2    1    2    0    0 -0.30180313430E+02 -0.57063442951E+03  0.43370890863E+03  0.72314766240E+03  0.91129691930E+02 0.  0.
        254    2    1    2    0    0  0.30180313430E+02  0.57063442951E+03 -0.20127263834E+03  0.10848534733E+04  0.89992326344E+03 0.  0.
         23    2    4    4    0    0 -0.39488158336E+03  0.25062809010E+03 -0.25608718788E+03  0.54234869382E+03  0.99073475077E+02 0.  0.
         23    2    4    4    0    0  0.42506189679E+03  0.32000633941E+03  0.54814549547E+02  0.54250477946E+03  0.90692488871E+02 0.  0.
          4    1    3    3  502    0 -0.17847061049E+02 -0.26273980137E+02  0.10277838227E+02  0.33383732250E+02  0.00000000000E+00 0. -1.
         -4    1    3    3    0  502 -0.12333252381E+02 -0.54436044937E+03  0.42343107040E+03  0.68976393015E+03  0.00000000000E+00 0.  1.
         13    1    5    5    0    0 -0.37985679849E+03  0.20912692893E+03 -0.22648891443E+03  0.48920597720E+03  0.00000000000E+00 0.  1.
        -13    1    5    5    0    0 -0.15024784869E+02  0.41501161168E+02 -0.29598273449E+02  0.53142716620E+02  0.00000000000E+00 0. -1.
          1    1    6    6  503    0  0.72914308157E+02  0.58089033872E+02  0.45014027459E+02  0.10352340247E+03  0.00000000000E+00 0. -1.
         -1    1    6    6    0  503  0.35214758863E+03  0.26191730553E+03  0.98005220879E+01  0.43898137700E+03  0.00000000000E+00 0.  1.
<mgrwt>
<rscale>  0 0.17929979E+04</rscale>
<asrwt>0</asrwt>
<pdfrwt beam="1">  1        1 0.12119730E+00 0.17929979E+04</pdfrwt>
<pdfrwt beam="2">  1       -1 0.15695672E+00 0.17929979E+04</pdfrwt>
<totfact> 0.65962412E+00</totfact>
</mgrwt>
</event>
<event>
12    3  0.4769008E-008  0.1574184E+04  0.7818608E-02  0.8836567E-01
          1   -1    0    0  501    0  0.00000000000E+00  0.00000000000E+00  0.10104437760E+04  0.10104437760E+04  0.00000000000E+00 0. -1.
         -1   -1    0    0    0  501 -0.00000000000E+00 -0.00000000000E+00 -0.61311025031E+03  0.61311025031E+03  0.00000000000E+00 0.  1.
         23    2    1    2    0    0 -0.24514124361E+03  0.19841045433E+03  0.56811824350E+03  0.65587539380E+03  0.89181028747E+02 0.  0.
        254    2    1    2    0    0  0.24514124361E+03 -0.19841045433E+03 -0.17078471776E+03  0.96767863256E+03  0.89876224797E+03 0.  0.
         23    2    4    4    0    0 -0.26033336564E+03  0.15147164544E+03  0.28178613199E+02  0.31547251311E+03  0.89508388710E+02 0.  0.
         23    2    4    4    0    0  0.50547460925E+03 -0.34988209977E+03 -0.19896333096E+03  0.65220611945E+03  0.88681175257E+02 0.  0.
          2    1    3    3  502    0 -0.14089595320E+03  0.15073495585E+03  0.42560054902E+03  0.47297835454E+03  0.00000000000E+00 0. -1.
         -2    1    3    3    0  502 -0.10424529041E+03  0.47675498485E+02  0.14251769449E+03  0.18289703926E+03  0.00000000000E+00 0.  1.
         13    1    5    5    0    0 -0.35267240630E+02  0.49959771792E+02 -0.19141269615E+02  0.64079210838E+02  0.00000000000E+00 0. -1.
        -13    1    5    5    0    0 -0.22506612501E+03  0.10151187365E+03  0.47319882814E+02  0.25139330227E+03  0.00000000000E+00 0.  1.
          4    1    6    6  503    0  0.41457177735E+03 -0.25694066112E+03 -0.12871953639E+03  0.50443729141E+03  0.00000000000E+00 0.  1.
         -4    1    6    6    0  503  0.90902831900E+02 -0.92941438645E+02 -0.70243794576E+02  0.14776882804E+03  0.00000000000E+00 0. -1.
<mgrwt>
<rscale>  0 0.15741835E+04</rscale>
<asrwt>0</asrwt>
<pdfrwt beam="1">  1        1 0.15545289E+00 0.15741835E+04</pdfrwt>
<pdfrwt beam="2">  1       -1 0.94324654E-01 0.15741835E+04</pdfrwt>
<totfact> 0.15539571E+01</totfact>
</mgrwt>
</event>
<event>
12    3  0.4769008E-008  0.1566833E+04  0.7818608E-02  0.8841187E-01
          2   -1    0    0  501    0  0.00000000000E+00  0.00000000000E+00  0.29513958519E+04  0.29513958519E+04  0.00000000000E+00 0. -1.
         -2   -1    0    0    0  501 -0.00000000000E+00 -0.00000000000E+00 -0.20794961101E+03  0.20794961101E+03  0.00000000000E+00 0.  1.
         23    2    1    2    0    0  0.39193921013E+03  0.23029812305E+03  0.40670129379E+03  0.61648925117E+03  0.89439837409E+02 0.  0.
        254    2    1    2    0    0 -0.39193921013E+03 -0.23029812305E+03  0.23367449470E+04  0.25428562117E+04  0.89391677236E+03 0.  0.
         23    2    4    4    0    0  0.17216475595E+03  0.18753081608E+03  0.41173399361E+03  0.49200066394E+03  0.87927593203E+02 0.  0.
         23    2    4    4    0    0 -0.56410396608E+03 -0.41782893913E+03  0.19250109534E+04  0.20508555478E+04  0.86873471373E+02 0.  0.
          4    1    3    3  502    0  0.22699015000E+02  0.44208545674E+02  0.39223799069E+02  0.63309929758E+02  0.00000000000E+00 0. -1.
         -4    1    3    3    0  502  0.36924019513E+03  0.18608957738E+03  0.36747749472E+03  0.55317932141E+03  0.00000000000E+00 0.  1.
         13    1    5    5    0    0  0.88530870718E+02  0.11838861729E+03  0.15980522729E+03  0.21769540749E+03  0.00000000000E+00 0. -1.
        -13    1    5    5    0    0  0.83633885236E+02  0.69142198789E+02  0.25192876632E+03  0.27430525644E+03  0.00000000000E+00 0.  1.
          1    1    6    6  503    0 -0.43180840555E+03 -0.30123700945E+03  0.15363701120E+04  0.16240798490E+04  0.00000000000E+00 0. -1.
         -1    1    6    6    0  503 -0.13229556053E+03 -0.11659192968E+03  0.38864084145E+03  0.42677569875E+03  0.00000000000E+00 0.  1.
<mgrwt>
<rscale>  0 0.15668333E+04</rscale>
<asrwt>0</asrwt>
<pdfrwt beam="1">  1        2 0.45406087E+00 0.15668333E+04</pdfrwt>
<pdfrwt beam="2">  1       -2 0.31992250E-01 0.15668333E+04</pdfrwt>
<totfact> 0.16410188E+01</totfact>
</mgrwt>
</event>
<event>
12    3  0.9672492E-008  0.1732750E+04  0.7818608E-02  0.8742903E-01
          2   -1    0    0  501    0  0.00000000000E+00  0.00000000000E+00  0.13656532042E+04  0.13656532042E+04  0.00000000000E+00 0. -1.
         -2   -1    0    0    0  501 -0.00000000000E+00 -0.00000000000E+00 -0.54963136068E+03  0.54963136068E+03  0.00000000000E+00 0.  1.
         23    2    1    2    0    0 -0.32957617831E+03  0.34151586177E+03 -0.63023738007E+02  0.48765456553E+03  0.92636076031E+02 0.  0.
        254    2    1    2    0    0  0.32957617831E+03 -0.34151586177E+03  0.87904558152E+03  0.14276299993E+04  0.10198787867E+04 0.  0.
         23    2    4    4    0    0  0.49248125311E+03  0.87941199322E+01  0.44401168061E+02  0.50262750827E+03  0.89709682481E+02 0.  0.
         23    2    4    4    0    0 -0.16290507480E+03 -0.35030998170E+03  0.83464441345E+03  0.92500249107E+03  0.98707471328E+02 0.  0.
          1    1    3    3  502    0  0.45188445708E+01  0.10745803148E+02  0.48839182525E+01  0.12639022868E+02  0.00000000000E+00 0. -1.
         -1    1    3    3    0  502 -0.33409502288E+03  0.33077005862E+03 -0.67907656259E+02  0.47501554266E+03  0.00000000000E+00 0.  1.
         13    1    5    5    0    0  0.49005247147E+03  0.17934972194E+01  0.51003655286E+02  0.49270276463E+03  0.00000000000E+00 0.  1.
        -13    1    5    5    0    0  0.24287816412E+01  0.70006227128E+01 -0.66024872249E+01  0.99247436331E+01  0.00000000000E+00 0. -1.
          4    1    6    6  503    0  0.12384593891E+02 -0.20550242014E+02  0.34813163365E+02  0.42280574218E+02  0.00000000000E+00 0. -1.
         -4    1    6    6    0  503 -0.17528966869E+03 -0.32975973968E+03  0.79983125009E+03  0.88272191685E+03  0.00000000000E+00 0.  1.
<mgrwt>
<rscale>  0 0.17327502E+04</rscale>
<asrwt>0</asrwt>
<pdfrwt beam="1">  1        2 0.21010049E+00 0.17327502E+04</pdfrwt>
<pdfrwt beam="2">  1       -2 0.84558672E-01 0.17327502E+04</pdfrwt>
<totfact> 0.17525824E+01</totfact>
</mgrwt>
</event>
<event>
12    3  0.4769008E-008  0.1484456E+04  0.7818608E-02  0.8894856E-01
         -1   -1    0    0    0  501 -0.00000000000E+00  0.00000000000E+00  0.35648841127E+03  0.35648841127E+03  0.00000000000E+00 0.  1.
          1   -1    0    0  501    0  0.00000000000E+00 -0.00000000000E+00 -0.15453589524E+04  0.15453589524E+04  0.00000000000E+00 0. -1.
         23    2    1    2    0    0 -0.13467032825E+03  0.39395953961E+03 -0.64692495697E+03  0.77478368419E+03  0.91856633825E+02 0.  0.
        254    2    1    2    0    0  0.13467032825E+03 -0.39395953961E+03 -0.54194558416E+03  0.11270636795E+04  0.89622949364E+03 0.  0.
         23    2    4    4    0    0 -0.16555389798E+03 -0.12626514329E+02 -0.60087157494E+03  0.62974995672E+03  0.89279540864E+02 0.  0.
         23    2    4    4    0    0  0.30022422622E+03 -0.38133302528E+03  0.58925990785E+02  0.49731372276E+03  0.91099968602E+02 0.  0.
          1    1    3    3  502    0 -0.14079158222E+03  0.36205947603E+03 -0.55629140400E+03  0.67850531315E+03  0.00000000000E+00 0. -1.
         -1    1    3    3    0  502  0.61212539664E+01  0.31900063576E+02 -0.90633552972E+02  0.96278371043E+02  0.00000000000E+00 0.  1.
         13    1    5    5    0    0 -0.16609198802E+03  0.37134159757E+01 -0.48351967450E+03  0.51126471966E+03  0.00000000000E+00 0. -1.
        -13    1    5    5    0    0  0.53809004601E+00 -0.16339930305E+02 -0.11735190044E+03  0.11848523705E+03  0.00000000000E+00 0.  1.
          1    1    6    6  503    0  0.24314652607E+03 -0.24458583680E+03  0.28625338166E+02  0.34606628655E+03  0.00000000000E+00 0. -1.
         -1    1    6    6    0  503  0.57077700158E+02 -0.13674718848E+03  0.30300652620E+02  0.15124743622E+03  0.00000000000E+00 0.  1.
<mgrwt>
<rscale>  0 0.14844562E+04</rscale>
<asrwt>0</asrwt>
<pdfrwt beam="1">  1        1 0.23774753E+00 0.14844562E+04</pdfrwt>
<pdfrwt beam="2">  1       -1 0.54844370E-01 0.14844562E+04</pdfrwt>
<totfact> 0.19800401E+01</totfact>
</mgrwt>
</event>
<event>
12    3  0.4769008E-008  0.1953788E+04  0.7818608E-02  0.8628537E-01
          1   -1    0    0  501    0  0.00000000000E+00  0.00000000000E+00  0.10461232269E+04  0.10461232269E+04  0.00000000000E+00 0. -1.
         -1   -1    0    0    0  501 -0.00000000000E+00 -0.00000000000E+00 -0.91224573654E+03  0.91224573654E+03  0.00000000000E+00 0.  1.
         23    2    1    2    0    0 -0.77442644105E+03 -0.58478339782E+02 -0.63752459211E+02  0.78512656715E+03  0.95933943742E+02 0.  0.
        254    2    1    2    0    0  0.77442644105E+03  0.58478339782E+02  0.19762994957E+03  0.11732423963E+04  0.85690378378E+03 0.  0.
         23    2    4    4    0    0  0.73785975316E+03 -0.15361723667E+03  0.40215568465E+03  0.85926385480E+03  0.92573790714E+02 0.  0.
         23    2    4    4    0    0  0.36566687891E+02  0.21209557645E+03 -0.20452573509E+03  0.31397854149E+03  0.10212782183E+03 0.  0.
          1    1    3    3  502    0 -0.62106836802E+03 -0.35997933155E+02 -0.87797603804E+02  0.62827556707E+03  0.00000000000E+00 0. -1.
         -1    1    3    3    0  502 -0.15335807304E+03 -0.22480406627E+02  0.24045144593E+02  0.15685100008E+03  0.00000000000E+00 0.  1.
         13    1    5    5    0    0  0.72073296524E+03 -0.14722745967E+03  0.40651969216E+03  0.84047022088E+03  0.00000000000E+00 0. -1.
        -13    1    5    5    0    0  0.17126787922E+02 -0.63897769949E+01 -0.43640075046E+01  0.18793633924E+02  0.00000000000E+00 0.  1.
          2    1    6    6  503    0  0.32295299731E+02  0.34974146307E+02 -0.93420758180E+02  0.10485044279E+03  0.00000000000E+00 0. -1.
         -2    1    6    6    0  503  0.42713881598E+01  0.17712143014E+03 -0.11110497691E+03  0.20912809870E+03  0.00000000000E+00 0.  1.
<mgrwt>
<rscale>  0 0.19537876E+04</rscale>
<asrwt>0</asrwt>
<pdfrwt beam="1">  1        1 0.16094203E+00 0.19537876E+04</pdfrwt>
<pdfrwt beam="2">  1       -1 0.14034550E+00 0.19537876E+04</pdfrwt>
<totfact> 0.54052387E+00</totfact>
</mgrwt>
</event>
<event>
12    3  0.4769008E-008  0.1304638E+04  0.7818608E-02  0.9025895E-01
         -1   -1    0    0    0  501 -0.00000000000E+00  0.00000000000E+00  0.45249997843E+03  0.45249997843E+03  0.00000000000E+00 0.  1.
          1   -1    0    0  501    0  0.00000000000E+00 -0.00000000000E+00 -0.94037647164E+03  0.94037647164E+03  0.00000000000E+00 0. -1.
         23    2    1    2    0    0  0.12171536068E+03  0.41469495432E+02 -0.49082591854E+03  0.51548570140E+03  0.91000428350E+02 0.  0.
        254    2    1    2    0    0 -0.12171536068E+03 -0.41469495432E+02  0.29494253244E+01  0.87739074867E+03  0.86791213764E+03 0.  0.
         23    2    4    4    0    0 -0.45950648227E+03  0.98761905091E+02  0.99249910005E+02  0.48848364287E+03  0.88688238079E+02 0.  0.
         23    2    4    4    0    0  0.33779112158E+03 -0.14023140052E+03 -0.96300484681E+02  0.38890710580E+03  0.90593962709E+02 0.  0.
          2    1    3    3  502    0  0.11313720720E+03  0.13844963653E+02 -0.45689890906E+03  0.47090160731E+03  0.00000000000E+00 0. -1.
         -2    1    3    3    0  502  0.85781534833E+01  0.27624531779E+02 -0.33927009482E+02  0.44584094087E+02  0.00000000000E+00 0.  1.
         13    1    5    5    0    0 -0.70456811523E+02  0.39731562294E+02  0.41026812715E+02  0.90697071033E+02  0.00000000000E+00 0. -1.
        -13    1    5    5    0    0 -0.38904967074E+03  0.59030342797E+02  0.58223097290E+02  0.39778657184E+03  0.00000000000E+00 0.  1.
          2    1    6    6  503    0  0.18362068821E+03 -0.12272220861E+03 -0.68828416336E+02  0.23133233349E+03  0.00000000000E+00 0. -1.
         -2    1    6    6    0  503  0.15417043337E+03 -0.17509191912E+02 -0.27472068345E+02  0.15757477231E+03  0.00000000000E+00 0.  1.
<mgrwt>
<rscale>  0 0.13046384E+04</rscale>
<asrwt>0</asrwt>
<pdfrwt beam="1">  1        1 0.14467330E+00 0.13046384E+04</pdfrwt>
<pdfrwt beam="2">  1       -1 0.69615381E-01 0.13046384E+04</pdfrwt>
<totfact> 0.34587712E+01</totfact>
</mgrwt>
</event>
<event>
12    3  0.4769008E-008  0.3277086E+04  0.7818608E-02  0.8168750E-01
          1   -1    0    0  501    0  0.00000000000E+00  0.00000000000E+00  0.13320661220E+04  0.13320661220E+04  0.00000000000E+00 0. -1.
         -1   -1    0    0    0  501 -0.00000000000E+00 -0.00000000000E+00 -0.20155333006E+04  0.20155333006E+04  0.00000000000E+00 0.  1.
         23    2    1    2    0    0 -0.68490547341E+02 -0.45905606859E+03  0.11553719765E+04  0.12484740831E+04  0.91540717128E+02 0.  0.
        254    2    1    2    0    0  0.68490547341E+02  0.45905606859E+03 -0.18388391551E+04  0.20991253395E+04  0.89976348210E+03 0.  0.
         23    2    4    4    0    0 -0.56820568061E+02  0.24393792163E+03 -0.18126597186E+04  0.18321046981E+04  0.90211323170E+02 0.  0.
         23    2    4    4    0    0  0.12531111540E+03  0.21511814696E+03 -0.26179436430E+02  0.26702064140E+03  0.92929905009E+02 0.  0.
          4    1    3    3  502    0  0.60316849567E+01 -0.92886448445E+00  0.38738839835E+02  0.39216600113E+02  0.00000000000E+00 0.  1.
         -4    1    3    3    0  502 -0.74522232297E+02 -0.45812720410E+03  0.11166331366E+04  0.12092574829E+04  0.00000000000E+00 0. -1.
         13    1    5    5    0    0  0.18705711469E+02  0.11454104352E+03 -0.83704655220E+03  0.84505413131E+03  0.00000000000E+00 0. -1.
        -13    1    5    5    0    0 -0.75526279530E+02  0.12939687810E+03 -0.97561316644E+03  0.98705056684E+03  0.00000000000E+00 0.  1.
          1    1    6    6  503    0 -0.75921159392E-01  0.30667891888E+02 -0.31446824519E+02  0.43925256166E+02  0.00000000000E+00 0. -1.
         -1    1    6    6    0  503  0.12538703656E+03  0.18445025507E+03  0.52673880896E+01  0.22309538523E+03  0.00000000000E+00 0.  1.
<mgrwt>
<rscale>  0 0.32770863E+04</rscale>
<asrwt>0</asrwt>
<pdfrwt beam="1">  1        1 0.20493325E+00 0.32770863E+04</pdfrwt>
<pdfrwt beam="2">  1       -1 0.31008205E+00 0.32770863E+04</pdfrwt>
<totfact> 0.20255074E-01</totfact>
</mgrwt>
</event>
<event>
12    3  0.4769008E-008  0.2054096E+04  0.7818608E-02  0.8581738E-01
          1   -1    0    0  501    0  0.00000000000E+00  0.00000000000E+00  0.24911086017E+04  0.24911086017E+04  0.00000000000E+00 0. -1.
         -1   -1    0    0    0  501 -0.00000000000E+00 -0.00000000000E+00 -0.42343722092E+03  0.42343722092E+03  0.00000000000E+00 0.  1.
         23    2    1    2    0    0  0.61997346162E+03 -0.50274485899E+03  0.52912154449E+03  0.96211034598E+03  0.92559292541E+02 0.  0.
        254    2    1    2    0    0 -0.61997346162E+03  0.50274485899E+03  0.15385498363E+04  0.19524354766E+04  0.89874868862E+03 0.  0.
         23    2    4    4    0    0 -0.33601681714E+03  0.73313660259E+03  0.11799404512E+04  0.14321155649E+04  0.91098537039E+02 0.  0.
         23    2    4    4    0    0 -0.28395664448E+03 -0.23039174359E+03  0.35860938509E+03  0.52031991171E+03  0.91762672090E+02 0.  0.
          1    1    3    3  502    0  0.30086551492E+03 -0.18931042062E+03  0.21325320916E+03  0.41453036636E+03  0.00000000000E+00 0. -1.
         -1    1    3    3    0  502  0.31910794670E+03 -0.31343443838E+03  0.31586833534E+03  0.54757997961E+03  0.00000000000E+00 0.  1.
         13    1    5    5    0    0 -0.33636881817E+02  0.39718347926E+02  0.48927062891E+02  0.71434196738E+02  0.00000000000E+00 0. -1.
        -13    1    5    5    0    0 -0.30237993532E+03  0.69341825466E+03  0.11310133883E+04  0.13606813681E+04  0.00000000000E+00 0.  1.
          2    1    6    6  503    0  0.34381007823E+01 -0.54168601412E+01  0.25121216079E+02  0.25927560781E+02  0.00000000000E+00 0. -1.
         -2    1    6    6    0  503 -0.28739474526E+03 -0.22497488345E+03  0.33348816901E+03  0.49439235093E+03  0.00000000000E+00 0.  1.
<mgrwt>
<rscale>  0 0.20540965E+04</rscale>
<asrwt>0</asrwt>
<pdfrwt beam="1">  1        1 0.38324747E+00 0.20540965E+04</pdfrwt>
<pdfrwt beam="2">  1       -1 0.65144190E-01 0.20540965E+04</pdfrwt>
<totfact> 0.30320957E+00</totfact>
</mgrwt>
</event>
<event>
12    3  0.4769008E-008  0.2306726E+04  0.7818608E-02  0.8475274E-01
         -2   -1    0    0    0  501 -0.00000000000E+00  0.00000000000E+00  0.34105620984E+03  0.34105620984E+03  0.00000000000E+00 0.  1.
          2   -1    0    0  501    0  0.00000000000E+00 -0.00000000000E+00 -0.39003713478E+04  0.39003713478E+04  0.00000000000E+00 0. -1.
         23    2    1    2    0    0 -0.14818563970E+03 -0.44486827489E+02 -0.32769308283E+04  0.32818521736E+04  0.91323459264E+02 0.  0.
        254    2    1    2    0    0  0.14818563970E+03  0.44486827489E+02 -0.28238430961E+03  0.95957538400E+03  0.90393913381E+03 0.  0.
         23    2    4    4    0    0 -0.78991021874E+02  0.33323676098E+03  0.14973089278E+03  0.38465657115E+03  0.90857124478E+02 0.  0.
         23    2    4    4    0    0  0.22717666158E+03 -0.28874993349E+03 -0.43211520239E+03  0.57491881285E+03  0.93927278112E+02 0.  0.
          2    1    3    3  502    0 -0.78496483726E+02  0.23816608963E+02 -0.15354186847E+04  0.15376083591E+04  0.00000000000E+00 0. -1.
         -2    1    3    3    0  502 -0.69689155978E+02 -0.68303436452E+02 -0.17415121437E+04  0.17442438145E+04  0.00000000000E+00 0.  1.
         13    1    5    5    0    0 -0.56471206849E+02  0.26347612382E+03  0.15552643496E+03  0.31112238267E+03  0.00000000000E+00 0. -1.
        -13    1    5    5    0    0 -0.22519815025E+02  0.69760637167E+02 -0.57955421811E+01  0.73534188483E+02  0.00000000000E+00 0.  1.
          3    1    6    6  503    0  0.22226273538E+03 -0.28791843893E+03 -0.39300002250E+03  0.53548741227E+03  0.00000000000E+00 0. -1.
         -3    1    6    6    0  503  0.49139261961E+01 -0.83149456457E+00 -0.39115179887E+02  0.39431400577E+02  0.00000000000E+00 0.  1.
<mgrwt>
<rscale>  0 0.23067257E+04</rscale>
<asrwt>0</asrwt>
<pdfrwt beam="1">  1        2 0.60005708E+00 0.23067257E+04</pdfrwt>
<pdfrwt beam="2">  1       -2 0.52470191E-01 0.23067257E+04</pdfrwt>
<totfact> 0.12822660E+00</totfact>
</mgrwt>
</event>
<event>
12    3  0.4769008E-008  0.1612370E+04  0.7818608E-02  0.8812985E-01
          1   -1    0    0  501    0  0.00000000000E+00  0.00000000000E+00  0.20760358720E+04  0.20760358720E+04  0.00000000000E+00 0. -1.
         -1   -1    0    0    0  501 -0.00000000000E+00 -0.00000000000E+00 -0.31306491541E+03  0.31306491541E+03  0.00000000000E+00 0.  1.
         23    2    1    2    0    0 -0.37562455912E+03  0.81679020891E+02  0.28507696731E+02  0.39611053574E+03  0.91244703301E+02 0.  0.
        254    2    1    2    0    0  0.37562455912E+03 -0.81679020891E+02  0.17344632598E+04  0.19929902517E+04  0.90326190642E+03 0.  0.
         23    2    4    4    0    0 -0.12773414891E+03  0.10102118562E+03  0.12002158796E+02  0.18684146100E+03  0.90798606768E+02 0.  0.
         23    2    4    4    0    0  0.50335870803E+03 -0.18270020651E+03  0.17224611010E+04  0.18061487907E+04  0.92476240057E+02 0.  0.
          4    1    3    3  502    0 -0.57569883153E+02  0.10447615605E+01 -0.26551242458E+02  0.63406241404E+02  0.00000000000E+00 0. -1.
         -4    1    3    3    0  502 -0.31805467597E+03  0.80634259330E+02  0.55058939189E+02  0.33270429433E+03  0.00000000000E+00 0.  1.
         13    1    5    5    0    0  0.12533725476E+02  0.88108840955E+01 -0.88429514597E+01  0.17689650742E+02  0.00000000000E+00 0.  1.
        -13    1    5    5    0    0 -0.14026787438E+03  0.92210301523E+02  0.20845110256E+02  0.16915181026E+03  0.00000000000E+00 0. -1.
          2    1    6    6  503    0  0.44622476899E+03 -0.19015858174E+03  0.15085478283E+04  0.15846114290E+04  0.00000000000E+00 0. -1.
         -2    1    6    6    0  503  0.57133939037E+02  0.74583752277E+01  0.21391327275E+03  0.22153736165E+03  0.00000000000E+00 0.  1.
<mgrwt>
<rscale>  0 0.16123697E+04</rscale>
<asrwt>0</asrwt>
<pdfrwt beam="1">  1        1 0.31939013E+00 0.16123697E+04</pdfrwt>
<pdfrwt beam="2">  1       -1 0.48163834E-01 0.16123697E+04</pdfrwt>
<totfact> 0.10936411E+01</totfact>
</mgrwt>
</event>
<event>
12    3  0.4769008E-008  0.1831747E+04  0.7818608E-02  0.8689597E-01
         -1   -1    0    0    0  501 -0.00000000000E+00  0.00000000000E+00  0.66921871342E+03  0.66921871342E+03  0.00000000000E+00 0.  1.
          1   -1    0    0  501    0  0.00000000000E+00 -0.00000000000E+00 -0.12534378717E+04  0.12534378717E+04  0.00000000000E+00 0. -1.
         23    2    1    2    0    0 -0.46566408642E+03  0.31948609594E+03  0.19840630664E+03  0.60409289183E+03  0.81539883264E+02 0.  0.
        254    2    1    2    0    0  0.46566408642E+03 -0.31948609594E+03 -0.78262546495E+03  0.13185636933E+04  0.89843930685E+03 0.  0.
         23    2    4    4    0    0 -0.66087340813E+02  0.25055399671E+03 -0.20777717325E+03  0.34574246485E+03  0.96029455885E+02 0.  0.
         23    2    4    4    0    0  0.53175142723E+03 -0.57004009265E+03 -0.57484829171E+03  0.97282122848E+03  0.90693420383E+02 0.  0.
          3    1    3    3  502    0 -0.94248088201E+02  0.94593388299E+02  0.21547878400E+02  0.13525872357E+03  0.00000000000E+00 0. -1.
         -3    1    3    3    0  502 -0.37141599822E+03  0.22489270764E+03  0.17685842824E+03  0.46883416825E+03  0.00000000000E+00 0.  1.
         13    1    5    5    0    0 -0.72398452876E+02  0.23655300436E+03 -0.15772504052E+03  0.29338719852E+03  0.00000000000E+00 0.  1.
        -13    1    5    5    0    0  0.63111120623E+01  0.14000992353E+02 -0.50052132725E+02  0.52355266331E+02  0.00000000000E+00 0. -1.
          1    1    6    6  503    0  0.85546324026E+02 -0.84633866835E+02 -0.13173200223E+03  0.17842193077E+03  0.00000000000E+00 0. -1.
         -1    1    6    6    0  503  0.44620510321E+03 -0.48540622582E+03 -0.44311628948E+03  0.79439929770E+03  0.00000000000E+00 0.  1.
<mgrwt>
<rscale>  0 0.18317468E+04</rscale>
<asrwt>0</asrwt>
<pdfrwt beam="1">  1        1 0.19283659E+00 0.18317468E+04</pdfrwt>
<pdfrwt beam="2">  1       -1 0.10295673E+00 0.18317468E+04</pdfrwt>
<totfact> 0.81947644E+00</totfact>
</mgrwt>
</event>
<event>
12    3  0.4769008E-008  0.1452095E+04  0.7818608E-02  0.8916950E-01
          1   -1    0    0  501    0  0.00000000000E+00  0.00000000000E+00  0.23056397151E+04  0.23056397151E+04  0.00000000000E+00 0. -1.
         -1   -1    0    0    0  501 -0.00000000000E+00 -0.00000000000E+00 -0.22863268990E+03  0.22863268990E+03  0.00000000000E+00 0.  1.
         23    2    1    2    0    0 -0.37607591430E+03 -0.37998077888E+02  0.24293307692E+03  0.45846651402E+03  0.91094002991E+02 0.  0.
        254    2    1    2    0    0  0.37607591430E+03  0.37998077888E+02  0.18340739483E+04  0.20758058910E+04  0.89569297306E+03 0.  0.
         23    2    4    4    0    0  0.37300192891E+03  0.37549484773E+03  0.66071369357E+03  0.85150271509E+03  0.91583127753E+02 0.  0.
         23    2    4    4    0    0  0.30739853895E+01 -0.33749676984E+03  0.11733602547E+04  0.12243031759E+04  0.90721883218E+02 0.  0.
          1    1    3    3  502    0 -0.88020983439E+02 -0.27524640718E+02  0.10233329206E+03  0.13775849170E+03  0.00000000000E+00 0. -1.
         -1    1    3    3    0  502 -0.28805493086E+03 -0.10473437170E+02  0.14059978486E+03  0.32070802232E+03  0.00000000000E+00 0.  1.
         13    1    5    5    0    0  0.20717720734E+03  0.14810008191E+03  0.34025651307E+03  0.42500649899E+03  0.00000000000E+00 0. -1.
        -13    1    5    5    0    0  0.16582472158E+03  0.22739476582E+03  0.32045718050E+03  0.42649621609E+03  0.00000000000E+00 0.  1.
          4    1    6    6  503    0  0.26104091897E+02 -0.31832787885E+03  0.10629745682E+04  0.11099229679E+04  0.00000000000E+00 0.  1.
         -4    1    6    6    0  503 -0.23030106507E+02 -0.19168890998E+02  0.11038568653E+03  0.11438020799E+03  0.00000000000E+00 0. -1.
<mgrwt>
<rscale>  0 0.14520945E+04</rscale>
<asrwt>0</asrwt>
<pdfrwt beam="1">  1        1 0.35471379E+00 0.14520945E+04</pdfrwt>
<pdfrwt beam="2">  1       -1 0.35174262E-01 0.14520945E+04</pdfrwt>
<totfact> 0.13803825E+01</totfact>
</mgrwt>
</event>
<event>
12    3  0.4769008E-008  0.2871923E+04  0.7818608E-02  0.8281281E-01
          2   -1    0    0  501    0  0.00000000000E+00  0.00000000000E+00  0.43524664476E+04  0.43524664476E+04  0.00000000000E+00 0. -1.
         -2   -1    0    0    0  501 -0.00000000000E+00 -0.00000000000E+00 -0.47375094784E+03  0.47375094784E+03  0.00000000000E+00 0.  1.
         23    2    1    2    0    0  0.81544559884E+03  0.26768373515E+03  0.33835004255E+04  0.34918837126E+04  0.92577676213E+02 0.  0.
        254    2    1    2    0    0 -0.81544559884E+03 -0.26768373515E+03  0.49521507432E+03  0.13343336829E+04  0.89364551182E+03 0.  0.
         23    2    4    4    0    0 -0.74140108628E+03 -0.55078354216E+03  0.42171140917E+03  0.10193700150E+04  0.90755902666E+02 0.  0.
         23    2    4    4    0    0 -0.74044512562E+02  0.28309980701E+03  0.73503665152E+02  0.31496366788E+03  0.90394871117E+02 0.  0.
          4    1    3    3  502    0  0.62906631713E+03  0.18452757972E+03  0.24375930438E+04  0.25242097192E+04  0.00000000000E+00 0. -1.
         -4    1    3    3    0  502  0.18637928172E+03  0.83156155423E+02  0.94590738165E+03  0.96767399339E+03  0.00000000000E+00 0.  1.
         13    1    5    5    0    0 -0.67289340310E+03 -0.48004840777E+03  0.35036618804E+03  0.89776860686E+03  0.00000000000E+00 0. -1.
        -13    1    5    5    0    0 -0.68507683178E+02 -0.70735134387E+02  0.71345221123E+02  0.12160140817E+03  0.00000000000E+00 0.  1.
          3    1    6    6  503    0 -0.58724897403E+00  0.14257915187E+03  0.62187112595E+01  0.14271591284E+03  0.00000000000E+00 0. -1.
         -3    1    6    6    0  503 -0.73457263588E+02  0.14052065515E+03  0.67284953893E+02  0.17224775504E+03  0.00000000000E+00 0.  1.
<mgrwt>
<rscale>  0 0.28719228E+04</rscale>
<asrwt>0</asrwt>
<pdfrwt beam="1">  1        2 0.66961019E+00 0.28719228E+04</pdfrwt>
<pdfrwt beam="2">  1       -2 0.72884764E-01 0.28719228E+04</pdfrwt>
<totfact> 0.25017380E-01</totfact>
</mgrwt>
</event>
<event>
12    3  0.4769008E-008  0.1701044E+04  0.7818608E-02  0.8760769E-01
          2   -1    0    0  501    0  0.00000000000E+00  0.00000000000E+00  0.18845246378E+04  0.18845246378E+04  0.00000000000E+00 0.  1.
         -2   -1    0    0    0  501 -0.00000000000E+00 -0.00000000000E+00 -0.38385694933E+03  0.38385694933E+03  0.00000000000E+00 0. -1.
         23    2    1    2    0    0 -0.40147500543E+03 -0.20947295841E+03  0.10893029180E+04  0.11831002338E+04  0.89912267229E+02 0.  0.
        254    2    1    2    0    0  0.40147500543E+03  0.20947295841E+03  0.41136477039E+03  0.10852813532E+04  0.89641147977E+03 0.  0.
         23    2    4    4    0    0  0.13175336795E+03  0.28250255101E+03 -0.21790732515E+03  0.39107334468E+03  0.91039097475E+02 0.  0.
         23    2    4    4    0    0  0.26972163748E+03 -0.73029592602E+02  0.62927209554E+03  0.69420800856E+03  0.88647085708E+02 0.  0.
          1    1    3    3  502    0 -0.46072198309E+02 -0.49010284857E+02  0.22633927206E+03  0.23612310678E+03  0.00000000000E+00 0. -1.
         -1    1    3    3    0  502 -0.35540280712E+03 -0.16046267355E+03  0.86296364598E+03  0.94697712707E+03  0.00000000000E+00 0.  1.
         13    1    5    5    0    0  0.14247047513E+02 -0.16734214360E+00  0.16692665915E+01  0.14345480723E+02  0.00000000000E+00 0. -1.
        -13    1    5    5    0    0  0.11750632044E+03  0.28266989316E+03 -0.21957659174E+03  0.37672786395E+03  0.00000000000E+00 0.  1.
          1    1    6    6  503    0 -0.50167883012E+01 -0.22432507363E+01  0.21601303173E+01  0.59047863393E+01  0.00000000000E+00 0. -1.
         -1    1    6    6    0  503  0.27473842578E+03 -0.70786341866E+02  0.62711196522E+03  0.68830322222E+03  0.00000000000E+00 0.  1.
<mgrwt>
<rscale>  0 0.17010442E+04</rscale>
<asrwt>0</asrwt>
<pdfrwt beam="1">  1        2 0.28992686E+00 0.17010442E+04</pdfrwt>
<pdfrwt beam="2">  1       -2 0.59054916E-01 0.17010442E+04</pdfrwt>
<totfact> 0.19736873E+01</totfact>
</mgrwt>
</event>
<event>
12    3  0.4769008E-008  0.2634253E+04  0.7818608E-02  0.8356659E-01
          1   -1    0    0  501    0  0.00000000000E+00  0.00000000000E+00  0.19229056906E+04  0.19229056906E+04  0.00000000000E+00 0. -1.
         -1   -1    0    0    0  501 -0.00000000000E+00 -0.00000000000E+00 -0.90218759759E+03  0.90218759759E+03  0.00000000000E+00 0.  1.
         23    2    1    2    0    0  0.79907656632E+03  0.54976157638E+03  0.11324804394E+04  0.14936082496E+04  0.87134997710E+02 0.  0.
        254    2    1    2    0    0 -0.79907656632E+03 -0.54976157638E+03 -0.11176234647E+03  0.13314850386E+04  0.90531786468E+03 0.  0.
         23    2    4    4    0    0  0.11830556532E+03  0.31521337068E+02 -0.18366986277E+03  0.23925825286E+03  0.92304342233E+02 0.  0.
         23    2    4    4    0    0 -0.91738213164E+03 -0.58128291344E+03  0.71907516300E+02  0.10922267857E+04  0.91152946064E+02 0.  0.
          4    1    3    3  502    0  0.56297290421E+03  0.43376232998E+03  0.81807651476E+03  0.10836685073E+04  0.00000000000E+00 0. -1.
         -4    1    3    3    0  502  0.23610366212E+03  0.11599924639E+03  0.31440392468E+03  0.40993974226E+03  0.00000000000E+00 0.  1.
         13    1    5    5    0    0  0.85943364030E+02  0.36527237990E+02 -0.18418653875E+03  0.20650709914E+03  0.00000000000E+00 0. -1.
        -13    1    5    5    0    0  0.32362201288E+02 -0.50059009225E+01  0.51667597901E+00  0.32751153725E+02  0.00000000000E+00 0.  1.
          3    1    6    6  503    0 -0.33544106630E+03 -0.20020145698E+03  0.68512790414E+02  0.39660475891E+03  0.00000000000E+00 0. -1.
         -3    1    6    6    0  503 -0.58194106534E+03 -0.38108145646E+03  0.33947258859E+01  0.69562202679E+03  0.00000000000E+00 0.  1.
<mgrwt>
<rscale>  0 0.26342526E+04</rscale>
<asrwt>0</asrwt>
<pdfrwt beam="1">  1        1 0.29583164E+00 0.26342526E+04</pdfrwt>
<pdfrwt beam="2">  1       -1 0.13879809E+00 0.26342526E+04</pdfrwt>
<totfact> 0.12653981E+00</totfact>
</mgrwt>
</event>
<event>
12    3  0.4769008E-008  0.1679828E+04  0.7818608E-02  0.8772953E-01
         -2   -1    0    0    0  501 -0.00000000000E+00  0.00000000000E+00  0.43918141539E+03  0.43918141539E+03  0.00000000000E+00 0.  1.
          2   -1    0    0  501    0  0.00000000000E+00 -0.00000000000E+00 -0.16062966121E+04  0.16062966121E+04  0.00000000000E+00 0. -1.
         23    2    1    2    0    0  0.13160352735E+03  0.26497539817E+03  0.21278346646E+03  0.37596851468E+03  0.92434140806E+02 0.  0.
        254    2    1    2    0    0 -0.13160352735E+03 -0.26497539817E+03 -0.13798986632E+04  0.16695095128E+04  0.89196986646E+03 0.  0.
         23    2    4    4    0    0 -0.26901651261E+03  0.26058026707E+03 -0.63949514695E+03  0.74664355637E+03  0.90832800523E+02 0.  0.
         23    2    4    4    0    0  0.13741298526E+03 -0.52555566524E+03 -0.74040351623E+03  0.92286595644E+03  0.91613977818E+02 0.  0.
          2    1    3    3  502    0  0.11063645331E+03  0.12673447152E+03  0.95353549449E+02  0.19337618898E+03  0.00000000000E+00 0. -1.
         -2    1    3    3    0  502  0.20967074038E+02  0.13824092664E+03  0.11742991702E+03  0.18259232570E+03  0.00000000000E+00 0.  1.
         13    1    5    5    0    0 -0.19387254400E+03  0.18907352346E+03 -0.37519323199E+03  0.46271516285E+03  0.00000000000E+00 0.  1.
        -13    1    5    5    0    0 -0.75143968609E+02  0.71506743608E+02 -0.26430191496E+03  0.28392839353E+03  0.00000000000E+00 0. -1.
          2    1    6    6  503    0  0.44261501884E+02 -0.54203331079E+02 -0.82193413324E+02  0.10794831561E+03  0.00000000000E+00 0.  1.
         -2    1    6    6    0  503  0.93151483376E+02 -0.47135233416E+03 -0.65821010290E+03  0.81491764083E+03  0.00000000000E+00 0. -1.
<mgrwt>
<rscale>  0 0.16798281E+04</rscale>
<asrwt>0</asrwt>
<pdfrwt beam="1">  1        2 0.24712256E+00 0.16798281E+04</pdfrwt>
<pdfrwt beam="2">  1       -2 0.67566372E-01 0.16798281E+04</pdfrwt>
<totfact> 0.21165635E+01</totfact>
</mgrwt>
</event>
<event>
12    3  0.4769008E-008  0.1524220E+04  0.7818608E-02  0.8868504E-01
          1   -1    0    0  501    0  0.00000000000E+00  0.00000000000E+00  0.23433719510E+04  0.23433719510E+04  0.00000000000E+00 0. -1.
         -1   -1    0    0    0  501 -0.00000000000E+00 -0.00000000000E+00 -0.24785310356E+03  0.24785310356E+03  0.00000000000E+00 0.  1.
         23    2    1    2    0    0 -0.62637613341E+02  0.48369623418E+03  0.57156555407E+03  0.75683560651E+03  0.90705209996E+02 0.  0.
        254    2    1    2    0    0  0.62637613341E+02 -0.48369623418E+03  0.15239532934E+04  0.18343894481E+04  0.89703148730E+03 0.  0.
         23    2    4    4    0    0  0.23647849576E+03 -0.22455090132E+03  0.70630937261E+02  0.34516807572E+03  0.88357710225E+02 0.  0.
         23    2    4    4    0    0 -0.17384088242E+03 -0.25914533286E+03  0.14533223562E+04  0.14892213724E+04  0.90870617358E+02 0.  0.
          4    1    3    3  502    0 -0.33136500388E+02  0.25647827739E+03  0.37154808946E+03  0.45268876418E+03  0.00000000000E+00 0. -1.
         -4    1    3    3    0  502 -0.29501112953E+02  0.22721795679E+03  0.20001746461E+03  0.30414684233E+03  0.00000000000E+00 0.  1.
         13    1    5    5    0    0 -0.70141153975E+01 -0.11518216800E+02 -0.18682283828E+01  0.13614602835E+02  0.00000000000E+00 0. -1.
        -13    1    5    5    0    0  0.24349261115E+03 -0.21303268452E+03  0.72499165644E+02  0.33155347288E+03  0.00000000000E+00 0.  1.
          2    1    6    6  503    0 -0.10891485954E+02 -0.21761818859E+02  0.39629191188E+02  0.46504559137E+02  0.00000000000E+00 0. -1.
         -2    1    6    6    0  503 -0.16294939646E+03 -0.23738351400E+03  0.14136931650E+04  0.14427168132E+04  0.00000000000E+00 0.  1.
<mgrwt>
<rscale>  0 0.15242205E+04</rscale>
<asrwt>0</asrwt>
<pdfrwt beam="1">  1        1 0.36051875E+00 0.15242205E+04</pdfrwt>
<pdfrwt beam="2">  1       -1 0.38131248E-01 0.15242205E+04</pdfrwt>
<totfact> 0.11171520E+01</totfact>
</mgrwt>
</event>
<event>
12    3  0.4769008E-008  0.2020633E+04  0.7818608E-02  0.8597034E-01
         -2   -1    0    0    0  501 -0.00000000000E+00  0.00000000000E+00  0.33426174325E+03  0.33426174325E+03  0.00000000000E+00 0.  1.
          2   -1    0    0  501    0  0.00000000000E+00 -0.00000000000E+00 -0.30537133324E+04  0.30537133324E+04  0.00000000000E+00 0. -1.
         23    2    1    2    0    0 -0.51693729876E+03  0.35745162145E+03 -0.24343555279E+03  0.67967209271E+03  0.87735128195E+02 0.  0.
        254    2    1    2    0    0  0.51693729876E+03 -0.35745162145E+03 -0.24760160364E+04  0.27083029830E+04  0.89958535037E+03 0.  0.
         23    2    4    4    0    0  0.23737701497E+03  0.91981166401E+01 -0.80263321026E+02  0.26716078787E+03  0.92196709738E+02 0.  0.
         23    2    4    4    0    0  0.27956028380E+03 -0.36664973809E+03 -0.23957527154E+04  0.24411421951E+04  0.83415591123E+02 0.  0.
          4    1    3    3  502    0 -0.15345854602E+03  0.65922686324E+02 -0.43147481754E+02  0.17250226405E+03  0.00000000000E+00 0. -1.
         -4    1    3    3    0  502 -0.36347875274E+03  0.29152893512E+03 -0.20028807104E+03  0.50716982866E+03  0.00000000000E+00 0.  1.
         13    1    5    5    0    0  0.22973093260E+03  0.24168676886E+02 -0.56079525904E+02  0.23770851807E+03  0.00000000000E+00 0. -1.
        -13    1    5    5    0    0  0.76460823620E+01 -0.14970560246E+02 -0.24183795122E+02  0.29452269795E+02  0.00000000000E+00 0.  1.
          3    1    6    6  503    0  0.12900078422E+03 -0.11948670300E+03 -0.10500835364E+04  0.10647035775E+04  0.00000000000E+00 0. -1.
         -3    1    6    6    0  503  0.15055949958E+03 -0.24716303509E+03 -0.13456691790E+04  0.13764386176E+04  0.00000000000E+00 0.  1.
<mgrwt>
<rscale>  0 0.20206331E+04</rscale>
<asrwt>0</asrwt>
<pdfrwt beam="1">  1        2 0.46980207E+00 0.20206331E+04</pdfrwt>
<pdfrwt beam="2">  1       -2 0.51424881E-01 0.20206331E+04</pdfrwt>
<totfact> 0.53501366E+00</totfact>
</mgrwt>
</event>
<event>
12    3  0.4769008E-008  0.2737667E+04  0.7818608E-02  0.8322886E-01
          2   -1    0    0  501    0  0.00000000000E+00  0.00000000000E+00  0.19920563102E+04  0.19920563102E+04  0.00000000000E+00 0. -1.
         -2   -1    0    0    0  501 -0.00000000000E+00 -0.00000000000E+00 -0.94058839845E+03  0.94058839845E+03  0.00000000000E+00 0.  1.
         23    2    1    2    0    0  0.40821146524E+03  0.87988043498E+03 -0.32168339083E+03  0.10259810876E+04  0.91273259793E+02 0.  0.
        254    2    1    2    0    0 -0.40821146524E+03 -0.87988043498E+03  0.13731513026E+04  0.19066636210E+04  0.89944176233E+03 0.  0.
         23    2    4    4    0    0 -0.38118402861E+03 -0.81624416543E+03  0.51671616786E+03  0.10424982566E+04  0.90836202388E+02 0.  0.
         23    2    4    4    0    0 -0.27027436628E+02 -0.63636269556E+02  0.85643513472E+03  0.86416536442E+03  0.92306987611E+02 0.  0.
          4    1    3    3  502    0  0.37400356000E+02  0.12819679735E+03 -0.70357931046E+02  0.15094185616E+03  0.00000000000E+00 0. -1.
         -4    1    3    3    0  502  0.37081110924E+03  0.75168363763E+03 -0.25132545978E+03  0.87503923143E+03  0.00000000000E+00 0.  1.
         13    1    5    5    0    0 -0.24882892290E+03 -0.60836879485E+03  0.40389315850E+03  0.77146490971E+03  0.00000000000E+00 0. -1.
        -13    1    5    5    0    0 -0.13235510570E+03 -0.20787537058E+03  0.11282300936E+03  0.27103334691E+03  0.00000000000E+00 0.  1.
          4    1    6    6  503    0 -0.37678687971E+02 -0.68427423821E+02  0.84191459089E+03  0.84553070565E+03  0.00000000000E+00 0. -1.
         -4    1    6    6    0  503  0.10651251343E+02  0.47911542652E+01  0.14520543829E+02  0.18634658770E+02  0.00000000000E+00 0.  1.
<mgrwt>
<rscale>  0 0.27376669E+04</rscale>
<asrwt>0</asrwt>
<pdfrwt beam="1">  1        2 0.30647020E+00 0.27376669E+04</pdfrwt>
<pdfrwt beam="2">  1       -2 0.14470591E+00 0.27376669E+04</pdfrwt>
<totfact> 0.19448147E+00</totfact>
</mgrwt>
</event>
<event>
12    3  0.4769008E-008  0.3791939E+04  0.7818608E-02  0.8047887E-01
         -2   -1    0    0    0  501 -0.00000000000E+00  0.00000000000E+00  0.16848609112E+04  0.16848609112E+04  0.00000000000E+00 0.  1.
          2   -1    0    0  501    0  0.00000000000E+00 -0.00000000000E+00 -0.21335291646E+04  0.21335291646E+04  0.00000000000E+00 0. -1.
         23    2    1    2    0    0  0.17846535693E+04 -0.55733132481E+02 -0.34300148181E+03  0.18204807283E+04  0.91681628192E+02 0.  0.
        254    2    1    2    0    0 -0.17846535693E+04  0.55733132481E+02 -0.10566677161E+03  0.19979093475E+04  0.89015827216E+03 0.  0.
         23    2    4    4    0    0 -0.14714931035E+04  0.39269078358E+03 -0.10387850279E+03  0.15290131928E+04  0.87135499210E+02 0.  0.
         23    2    4    4    0    0 -0.31316046586E+03 -0.33695765110E+03 -0.17882688178E+01  0.46889615470E+03  0.90832097751E+02 0.  0.
          3    1    3    3  502    0  0.17357734779E+04 -0.40147831750E+02 -0.33897604379E+03  0.17690184208E+04  0.00000000000E+00 0.  1.
         -3    1    3    3    0  502  0.48880091436E+02 -0.15585300732E+02 -0.40254380219E+01  0.51462307458E+02  0.00000000000E+00 0. -1.
         13    1    5    5    0    0 -0.12529169414E+04  0.30486749728E+03 -0.10117410682E+03  0.12934377653E+04  0.00000000000E+00 0. -1.
        -13    1    5    5    0    0 -0.21857616210E+03  0.87823286300E+02 -0.27043959700E+01  0.23557542744E+03  0.00000000000E+00 0.  1.
          1    1    6    6  503    0 -0.26176074037E+03 -0.31585420568E+03 -0.19190991239E+02  0.41067122932E+03  0.00000000000E+00 0. -1.
         -1    1    6    6    0  503 -0.51399725486E+02 -0.21103445419E+02  0.17402722422E+02  0.58224925387E+02  0.00000000000E+00 0.  1.
<mgrwt>
<rscale>  0 0.37919388E+04</rscale>
<asrwt>0</asrwt>
<pdfrwt beam="1">  1        2 0.32823526E+00 0.37919388E+04</pdfrwt>
<pdfrwt beam="2">  1       -2 0.25920937E+00 0.37919388E+04</pdfrwt>
<totfact> 0.25474936E-01</totfact>
</mgrwt>
</event>
<event>
12    3  0.4769008E-008  0.1080576E+04  0.7818608E-02  0.9224333E-01
         -2   -1    0    0    0  501 -0.00000000000E+00  0.00000000000E+00  0.17484430253E+03  0.17484430253E+03  0.00000000000E+00 0.  1.
          2   -1    0    0  501    0  0.00000000000E+00 -0.00000000000E+00 -0.16695502792E+04  0.16695502792E+04  0.00000000000E+00 0. -1.
         23    2    1    2    0    0 -0.15403726790E+03 -0.11153634558E+03 -0.10023380645E+03  0.23381873266E+03  0.91959488373E+02 0.  0.
        254    2    1    2    0    0  0.15403726790E+03  0.11153634558E+03 -0.13944721703E+04  0.16105758491E+04  0.78309264828E+03 0.  0.
         23    2    4    4    0    0 -0.19955335532E+03  0.59347315419E+02 -0.11401629856E+04  0.11631639096E+04  0.98158043551E+02 0.  0.
         23    2    4    4    0    0  0.35359062322E+03  0.52189030157E+02 -0.25430918470E+03  0.44741193949E+03  0.88058267541E+02 0.  0.
          1    1    3    3  502    0  0.74489743728E+01 -0.25784084473E+02 -0.38049363801E+01  0.27106895288E+02  0.00000000000E+00 0. -1.
         -1    1    3    3    0  502 -0.16148624227E+03 -0.85752261103E+02 -0.96428870071E+02  0.20671183737E+03  0.00000000000E+00 0.  1.
         13    1    5    5    0    0 -0.11806191462E+03  0.82000793004E+02 -0.78644374524E+03  0.79947264504E+03  0.00000000000E+00 0. -1.
        -13    1    5    5    0    0 -0.81491440701E+02 -0.22653477585E+02 -0.35371924033E+03  0.36369126458E+03  0.00000000000E+00 0.  1.
          4    1    6    6  503    0  0.34344096567E+03  0.40701986267E+02 -0.25820075391E+03  0.43159700868E+03  0.00000000000E+00 0. -1.
         -4    1    6    6    0  503  0.10149657547E+02  0.11487043890E+02  0.38915692057E+01  0.15814930810E+02  0.00000000000E+00 0.  1.
<mgrwt>
<rscale>  0 0.10805764E+04</rscale>
<asrwt>0</asrwt>
<pdfrwt beam="1">  1        2 0.25685388E+00 0.10805764E+04</pdfrwt>
<pdfrwt beam="2">  1       -2 0.26899124E-01 0.10805764E+04</pdfrwt>
<totfact> 0.12720199E+02</totfact>
</mgrwt>
</event>
<event>
12    3  0.4769008E-008  0.2493231E+04  0.7818608E-02  0.8405401E-01
          3   -1    0    0  501    0  0.00000000000E+00  0.00000000000E+00  0.73922240771E+03  0.73922240771E+03  0.00000000000E+00 0. -1.
         -3   -1    0    0    0  501 -0.00000000000E+00 -0.00000000000E+00 -0.21022770643E+04  0.21022770643E+04  0.00000000000E+00 0.  1.
         23    2    1    2    0    0  0.59565586524E+03  0.90098256024E+03 -0.43533681265E+03  0.11681920325E+04  0.92622895128E+02 0.  0.
        254    2    1    2    0    0 -0.59565586524E+03 -0.90098256024E+03 -0.92771784394E+03  0.16733074395E+04  0.87904602012E+03 0.  0.
         23    2    4    4    0    0  0.12354312705E+03 -0.33809811945E+03 -0.58608828242E+03  0.69403629450E+03  0.92809809168E+02 0.  0.
         23    2    4    4    0    0 -0.71919899228E+03 -0.56288444079E+03 -0.34162956153E+03  0.97927114501E+03  0.90416447327E+02 0.  0.
          2    1    3    3  502    0  0.55896037497E+03  0.82329799658E+03 -0.37601934278E+03  0.10637889067E+04  0.00000000000E+00 0. -1.
         -2    1    3    3    0  502  0.36695490271E+02  0.77684563665E+02 -0.59317469869E+02  0.10440312577E+03  0.00000000000E+00 0.  1.
         13    1    5    5    0    0  0.22224117614E+02 -0.15434964292E+03 -0.18999343552E+03  0.24579509599E+03  0.00000000000E+00 0. -1.
        -13    1    5    5    0    0  0.10131900943E+03 -0.18374847653E+03 -0.39609484690E+03  0.44824119851E+03  0.00000000000E+00 0.  1.
          1    1    6    6  503    0 -0.22060715487E+03 -0.12383142473E+03 -0.10739671327E+03  0.27483775678E+03  0.00000000000E+00 0. -1.
         -1    1    6    6    0  503 -0.49859183742E+03 -0.43905301606E+03 -0.23423284826E+03  0.70443338823E+03  0.00000000000E+00 0.  1.
<mgrwt>
<rscale>  0 0.24932311E+04</rscale>
<asrwt>0</asrwt>
<pdfrwt beam="1">  1        3 0.11372653E+00 0.24932311E+04</pdfrwt>
<pdfrwt beam="2">  1       -3 0.32342723E+00 0.24932311E+04</pdfrwt>
<totfact> 0.42154686E-02</totfact>
</mgrwt>
</event>
<event>
12    3  0.4769008E-008  0.2457188E+04  0.7818608E-02  0.8418398E-01
         -2   -1    0    0    0  501 -0.00000000000E+00  0.00000000000E+00  0.18130807483E+04  0.18130807483E+04  0.00000000000E+00 0. -1.
          2   -1    0    0  501    0  0.00000000000E+00 -0.00000000000E+00 -0.83252966208E+03  0.83252966208E+03  0.00000000000E+00 0.  1.
         23    2    1    2    0    0  0.26671422743E+03  0.54891281720E+03  0.13651112764E+04  0.14980345542E+04  0.90205147969E+02 0.  0.
        254    2    1    2    0    0 -0.26671422743E+03 -0.54891281720E+03 -0.38456019019E+03  0.11475758561E+04  0.89252565548E+03 0.  0.
         23    2    4    4    0    0 -0.58453933069E+03 -0.30011449171E+03 -0.28429192958E+03  0.72172917730E+03  0.91193019913E+02 0.  0.
         23    2    4    4    0    0  0.31782510326E+03 -0.24879832550E+03 -0.10026826061E+03  0.42584667883E+03  0.91532872549E+02 0.  0.
          2    1    3    3  502    0  0.20087967165E+03  0.36327282250E+03  0.83453889727E+03  0.93208098205E+03  0.00000000000E+00 0. -1.
         -2    1    3    3    0  502  0.65834555783E+02  0.18563999471E+03  0.53057237914E+03  0.56595357219E+03  0.00000000000E+00 0.  1.
         13    1    5    5    0    0 -0.22376077369E+03 -0.16446483551E+03 -0.10947879274E+03  0.29850154442E+03  0.00000000000E+00 0. -1.
        -13    1    5    5    0    0 -0.36077855700E+03 -0.13564965619E+03 -0.17481313685E+03  0.42322763288E+03  0.00000000000E+00 0.  1.
          4    1    6    6  503    0  0.12216919547E+03 -0.14479606692E+03 -0.71112952934E+02  0.20235677748E+03  0.00000000000E+00 0.  1.
         -4    1    6    6    0  503  0.19565590779E+03 -0.10400225858E+03 -0.29155307671E+02  0.22348990136E+03  0.00000000000E+00 0. -1.
<mgrwt>
<rscale>  0 0.24571882E+04</rscale>
<asrwt>0</asrwt>
<pdfrwt beam="1">  1        2 0.12808149E+00 0.24571882E+04</pdfrwt>
<pdfrwt beam="2">  1       -2 0.27893550E+00 0.24571882E+04</pdfrwt>
<totfact> 0.12491801E+00</totfact>
</mgrwt>
</event>
<event>
12    3  0.4769008E-008  0.1290563E+04  0.7818608E-02  0.9037082E-01
          2   -1    0    0  501    0  0.00000000000E+00  0.00000000000E+00  0.28332716564E+03  0.28332716564E+03  0.00000000000E+00 0. -1.
         -2   -1    0    0    0  501 -0.00000000000E+00 -0.00000000000E+00 -0.14696379971E+04  0.14696379971E+04  0.00000000000E+00 0.  1.
         23    2    1    2    0    0 -0.13076200954E+03  0.38193332484E+02 -0.70498438916E+03  0.72332567151E+03  0.87404830089E+02 0.  0.
        254    2    1    2    0    0  0.13076200954E+03 -0.38193332484E+02 -0.48132644227E+03  0.10296394912E+04  0.89995827905E+03 0.  0.
         23    2    4    4    0    0  0.12791212134E+03 -0.45352833497E+03 -0.31061564139E+03  0.57157264936E+03  0.90353502520E+02 0.  0.
         23    2    4    4    0    0  0.28498882052E+01  0.41533500249E+03 -0.17071080088E+03  0.45806684184E+03  0.90397831276E+02 0.  0.
          4    1    3    3  502    0  0.90617639430E+01 -0.99691699177E+01 -0.76431214614E+02  0.77609474177E+02  0.00000000000E+00 0. -1.
         -4    1    3    3    0  502 -0.13982377348E+03  0.48162502401E+02 -0.62855317455E+03  0.64571619734E+03  0.00000000000E+00 0.  1.
         13    1    5    5    0    0  0.24699086255E+02 -0.14749947339E+02 -0.14125431283E+02  0.32048925369E+02  0.00000000000E+00 0. -1.
        -13    1    5    5    0    0  0.10321303508E+03 -0.43877838764E+03 -0.29649021011E+03  0.53952372400E+03  0.00000000000E+00 0.  1.
          1    1    6    6  503    0 -0.40239019181E+02  0.28244285736E+03 -0.11067315584E+03  0.30600930339E+03  0.00000000000E+00 0. -1.
         -1    1    6    6    0  503  0.43088907387E+02  0.13289214513E+03 -0.60037645034E+02  0.15205753845E+03  0.00000000000E+00 0.  1.
<mgrwt>
<rscale>  0 0.12905632E+04</rscale>
<asrwt>0</asrwt>
<pdfrwt beam="1">  1        2 0.43588794E-01 0.12905632E+04</pdfrwt>
<pdfrwt beam="2">  1       -2 0.22609816E+00 0.12905632E+04</pdfrwt>
<totfact> 0.10385333E+01</totfact>
</mgrwt>
</event>
<event>
12    3  0.4769008E-008  0.1585586E+04  0.7818608E-02  0.8829453E-01
         -1   -1    0    0    0  501 -0.00000000000E+00  0.00000000000E+00  0.49301949350E+03  0.49301949350E+03  0.00000000000E+00 0.  1.
          1   -1    0    0  501    0  0.00000000000E+00 -0.00000000000E+00 -0.12748387580E+04  0.12748387580E+04  0.00000000000E+00 0. -1.
         23    2    1    2    0    0  0.31135285287E+03 -0.17408275985E+02 -0.67938493616E+03  0.75316518017E+03  0.91925241780E+02 0.  0.
        254    2    1    2    0    0 -0.31135285287E+03  0.17408275985E+02 -0.10243432834E+03  0.10146930713E+04  0.96013831832E+03 0.  0.
         23    2    4    4    0    0 -0.51962358041E+02 -0.44254762823E+03  0.48905609361E+02  0.45801323036E+03  0.93999311999E+02 0.  0.
         23    2    4    4    0    0 -0.25939049483E+03  0.45995590421E+03 -0.15133993770E+03  0.55667984096E+03  0.90254118791E+02 0.  0.
          2    1    3    3  502    0  0.24992126538E+03  0.23217632797E+02 -0.54149546752E+03  0.59683920674E+03  0.00000000000E+00 0. -1.
         -2    1    3    3    0  502  0.61431587494E+02 -0.40625908782E+02 -0.13788946864E+03  0.15632597343E+03  0.00000000000E+00 0.  1.
         13    1    5    5    0    0 -0.18125762904E+02 -0.40245719879E+03  0.45803118215E+02  0.40546056007E+03  0.00000000000E+00 0. -1.
        -13    1    5    5    0    0 -0.33836595137E+02 -0.40090429441E+02  0.31024911462E+01  0.52552670290E+02  0.00000000000E+00 0.  1.
          1    1    6    6  503    0 -0.18040243472E+03  0.23702252355E+03 -0.64818625014E+02  0.30483793936E+03  0.00000000000E+00 0. -1.
         -1    1    6    6    0  503 -0.78988060112E+02  0.22293338066E+03 -0.86521312683E+02  0.25184190160E+03  0.00000000000E+00 0.  1.
<mgrwt>
<rscale>  0 0.15855855E+04</rscale>
<asrwt>0</asrwt>
<pdfrwt beam="1">  1        1 0.19612904E+00 0.15855855E+04</pdfrwt>
<pdfrwt beam="2">  1       -1 0.75849155E-01 0.15855855E+04</pdfrwt>
<totfact> 0.15818546E+01</totfact>
</mgrwt>
</event>
<event>
12    3  0.4769008E-008  0.1405798E+04  0.7818608E-02  0.8949632E-01
         -1   -1    0    0    0  501 -0.00000000000E+00  0.00000000000E+00  0.30427965427E+03  0.30427965427E+03  0.00000000000E+00 0.  1.
          1   -1    0    0  501    0  0.00000000000E+00 -0.00000000000E+00 -0.16237268903E+04  0.16237268903E+04  0.00000000000E+00 0. -1.
         23    2    1    2    0    0  0.21627044963E+03  0.21647597217E+03 -0.21727980331E+02  0.32040498398E+03  0.92479698951E+02 0.  0.
        254    2    1    2    0    0 -0.21627044963E+03 -0.21647597217E+03 -0.12977192557E+04  0.16076015606E+04  0.89814962959E+03 0.  0.
         23    2    4    4    0    0  0.17745967719E+03 -0.25251573098E+02  0.32429348740E+02  0.20423968941E+03  0.92372122957E+02 0.  0.
         23    2    4    4    0    0 -0.39373012682E+03 -0.19122439907E+03 -0.13301486045E+04  0.14033618712E+04  0.92406969659E+02 0.  0.
          3    1    3    3  502    0  0.13633938070E+03  0.12755547862E+03 -0.57918919557E+02  0.19548255190E+03  0.00000000000E+00 0. -1.
         -3    1    3    3    0  502  0.79931068931E+02  0.88920493551E+02  0.36190939225E+02  0.12492243208E+03  0.00000000000E+00 0.  1.
         13    1    5    5    0    0  0.54834748095E+02 -0.96417910456E+01 -0.32647141494E+02  0.64541843644E+02  0.00000000000E+00 0.  1.
        -13    1    5    5    0    0  0.12262492910E+03 -0.15609782052E+02  0.65076490234E+02  0.13969784577E+03  0.00000000000E+00 0. -1.
          1    1    6    6  503    0 -0.36045614919E+03 -0.14782578993E+03 -0.12140408284E+04  0.12750200911E+04  0.00000000000E+00 0. -1.
         -1    1    6    6    0  503 -0.33273977627E+02 -0.43398609136E+02 -0.11610777609E+03  0.12834178014E+03  0.00000000000E+00 0.  1.
<mgrwt>
<rscale>  0 0.14057981E+04</rscale>
<asrwt>0</asrwt>
<pdfrwt beam="1">  1        1 0.24980414E+00 0.14057981E+04</pdfrwt>
<pdfrwt beam="2">  1       -1 0.46812254E-01 0.14057981E+04</pdfrwt>
<totfact> 0.23822147E+01</totfact>
</mgrwt>
</event>
<event>
12    3  0.4769008E-008  0.1765289E+04  0.7818608E-02  0.8724979E-01
         -2   -1    0    0    0  501 -0.00000000000E+00  0.00000000000E+00  0.29254691520E+03  0.29254691520E+03  0.00000000000E+00 0.  1.
          2   -1    0    0  501    0  0.00000000000E+00 -0.00000000000E+00 -0.26630308233E+04  0.26630308233E+04  0.00000000000E+00 0. -1.
         23    2    1    2    0    0 -0.73169541813E+02 -0.47067525031E+03 -0.14056985307E+03  0.50408738113E+03  0.86343680252E+02 0.  0.
        254    2    1    2    0    0  0.73169541813E+02  0.47067525031E+03 -0.22299140550E+04  0.24514903574E+04  0.90022180952E+03 0.  0.
         23    2    4    4    0    0 -0.14326379849E+03  0.18491389854E+02 -0.71967757152E+01  0.17110809444E+03  0.91431608029E+02 0.  0.
         23    2    4    4    0    0  0.21643334030E+03  0.45218386046E+03 -0.22227172793E+04  0.22803822629E+04  0.91419510258E+02 0.  0.
          1    1    3    3  502    0 -0.44224795521E+02 -0.15075414624E+03 -0.83197081711E+02  0.17777626262E+03  0.00000000000E+00 0. -1.
         -1    1    3    3    0  502 -0.28944746292E+02 -0.31992110407E+03 -0.57372771357E+02  0.32631111851E+03  0.00000000000E+00 0.  1.
         13    1    5    5    0    0 -0.81503240258E+02 -0.34037319732E+02  0.77482182719E+01  0.88664266722E+02  0.00000000000E+00 0. -1.
        -13    1    5    5    0    0 -0.61760558230E+02  0.52528709586E+02 -0.14944993987E+02  0.82443827718E+02  0.00000000000E+00 0.  1.
          3    1    6    6  503    0  0.17108649753E+03  0.40381513516E+03 -0.18100456591E+04  0.18624184656E+04  0.00000000000E+00 0. -1.
         -3    1    6    6    0  503  0.45346842773E+02  0.48368725294E+02 -0.41267162020E+03  0.41796379730E+03  0.00000000000E+00 0.  1.
<mgrwt>
<rscale>  0 0.17652892E+04</rscale>
<asrwt>0</asrwt>
<pdfrwt beam="1">  1        2 0.40969706E+00 0.17652892E+04</pdfrwt>
<pdfrwt beam="2">  1       -2 0.45007217E-01 0.17652892E+04</pdfrwt>
<totfact> 0.12406138E+01</totfact>
</mgrwt>
</event>
<event>
12    3  0.4769008E-008  0.2320507E+04  0.7818608E-02  0.8469879E-01
         -2   -1    0    0    0  501 -0.00000000000E+00  0.00000000000E+00  0.91178298235E+03  0.91178298235E+03  0.00000000000E+00 0.  1.
          2   -1    0    0  501    0  0.00000000000E+00 -0.00000000000E+00 -0.14764351458E+04  0.14764351458E+04  0.00000000000E+00 0. -1.
         23    2    1    2    0    0  0.41665947507E+03 -0.22589111080E+03 -0.11264001431E+04  0.12255737500E+04  0.92853767761E+02 0.  0.
        254    2    1    2    0    0 -0.41665947507E+03  0.22589111080E+03  0.56174797969E+03  0.11626443781E+04  0.90086028061E+03 0.  0.
         23    2    4    4    0    0 -0.47696812005E+02  0.49078437786E+03  0.10329228364E+03  0.51203062543E+03  0.91442736684E+02 0.  0.
         23    2    4    4    0    0 -0.36896266306E+03 -0.26489326706E+03  0.45845569605E+03  0.65061375269E+03  0.82551440174E+02 0.  0.
          3    1    3    3  502    0  0.41216229806E+03 -0.21084635191E+03 -0.10493392670E+04  0.11469293096E+04  0.00000000000E+00 0. -1.
         -3    1    3    3    0  502  0.44971770036E+01 -0.15044758890E+02 -0.77060876155E+02  0.78644440394E+02  0.00000000000E+00 0.  1.
         13    1    5    5    0    0 -0.92868100929E+01  0.33382434739E+03  0.10613745791E+03  0.35041418310E+03  0.00000000000E+00 0. -1.
        -13    1    5    5    0    0 -0.38410001912E+02  0.15696003047E+03 -0.28451742715E+01  0.16161644233E+03  0.00000000000E+00 0.  1.
          2    1    6    6  503    0 -0.13647821754E+03 -0.95527454655E+02  0.11402387473E+03  0.20187432344E+03  0.00000000000E+00 0. -1.
         -2    1    6    6    0  503 -0.23248444552E+03 -0.16936581241E+03  0.34443182133E+03  0.44873942925E+03  0.00000000000E+00 0.  1.
<mgrwt>
<rscale>  0 0.23205072E+04</rscale>
<asrwt>0</asrwt>
<pdfrwt beam="1">  1        2 0.22714387E+00 0.23205072E+04</pdfrwt>
<pdfrwt beam="2">  1       -2 0.14027430E+00 0.23205072E+04</pdfrwt>
<totfact> 0.42342856E+00</totfact>
</mgrwt>
</event>
<event>
12    3  0.4769008E-008  0.1256286E+04  0.7818608E-02  0.9064967E-01
         -2   -1    0    0    0  501 -0.00000000000E+00  0.00000000000E+00  0.90265633647E+03  0.90265633647E+03  0.00000000000E+00 0.  1.
          2   -1    0    0  501    0  0.00000000000E+00 -0.00000000000E+00 -0.43711422536E+03  0.43711422536E+03  0.00000000000E+00 0. -1.
         23    2    1    2    0    0 -0.78891278862E+00  0.27717577688E+03  0.22479966182E+03  0.36859730316E+03  0.92206563039E+02 0.  0.
        254    2    1    2    0    0  0.78891278862E+00 -0.27717577688E+03  0.24074244929E+03  0.97117325867E+03  0.89910707804E+03 0.  0.
         23    2    4    4    0    0  0.39301469015E+03 -0.32616647401E+03  0.22462392645E+03  0.56525246854E+03  0.90605349795E+02 0.  0.
         23    2    4    4    0    0 -0.39222577736E+03  0.48990697127E+02  0.16118522838E+02  0.40592079013E+03  0.90943566277E+02 0.  0.
          1    1    3    3  502    0 -0.22348561853E+02  0.31492767700E+02  0.62134783305E+02  0.73157254805E+02  0.00000000000E+00 0. -1.
         -1    1    3    3    0  502  0.21559649064E+02  0.24568300918E+03  0.16266487852E+03  0.29544004835E+03  0.00000000000E+00 0.  1.
         13    1    5    5    0    0  0.16137086889E+03 -0.14833329705E+03  0.14412730603E+03  0.26232804784E+03  0.00000000000E+00 0.  1.
        -13    1    5    5    0    0  0.23164382126E+03 -0.17783317696E+03  0.80496620421E+02  0.30292442069E+03  0.00000000000E+00 0. -1.
          2    1    6    6  503    0 -0.14157227700E+03  0.10686563157E+02  0.49090918395E+02  0.15022260321E+03  0.00000000000E+00 0. -1.
         -2    1    6    6    0  503 -0.25065350037E+03  0.38304133970E+02 -0.32972395557E+02  0.25569818692E+03  0.00000000000E+00 0.  1.
<mgrwt>
<rscale>  0 0.12562865E+04</rscale>
<asrwt>0</asrwt>
<pdfrwt beam="1">  1        2 0.67248343E-01 0.12562865E+04</pdfrwt>
<pdfrwt beam="2">  1       -2 0.13887021E+00 0.12562865E+04</pdfrwt>
<totfact> 0.25905126E+01</totfact>
</mgrwt>
</event>
<event>
12    3  0.4769008E-008  0.2036093E+04  0.7818608E-02  0.8589929E-01
          1   -1    0    0  501    0  0.00000000000E+00  0.00000000000E+00  0.22680087187E+04  0.22680087187E+04  0.00000000000E+00 0. -1.
         -1   -1    0    0    0  501 -0.00000000000E+00 -0.00000000000E+00 -0.45697305130E+03  0.45697305130E+03  0.00000000000E+00 0.  1.
         23    2    1    2    0    0  0.15133530205E+03  0.47308029275E+03  0.15724687158E+04  0.16535005529E+04  0.12123893449E+03 0.  0.
        254    2    1    2    0    0 -0.15133530205E+03 -0.47308029275E+03  0.23856695156E+03  0.10714812171E+04  0.91893986261E+03 0.  0.
         23    2    4    4    0    0  0.48880477468E+02 -0.58536614273E+03 -0.14778643883E+03  0.61232506764E+03  0.89768228382E+02 0.  0.
         23    2    4    4    0    0 -0.20021577952E+03  0.11228584998E+03  0.38635339039E+03  0.45915614942E+03  0.94132655375E+02 0.  0.
          1    1    3    3  502    0  0.69851285167E+02  0.23765619517E+03  0.97923654963E+03  0.10100811300E+04  0.00000000000E+00 0. -1.
         -1    1    3    3    0  502  0.81484016886E+02  0.23542409758E+03  0.59323216617E+03  0.64341942286E+03  0.00000000000E+00 0.  1.
         13    1    5    5    0    0  0.33344734566E+02 -0.50069628467E+03 -0.15689527289E+03  0.52576113156E+03  0.00000000000E+00 0. -1.
        -13    1    5    5    0    0  0.15535742902E+02 -0.84669858060E+02  0.91088340621E+01  0.86563936079E+02  0.00000000000E+00 0.  1.
          1    1    6    6  503    0 -0.30810101210E+02  0.42501136140E+02  0.15737931382E+03  0.16590315647E+03  0.00000000000E+00 0. -1.
         -1    1    6    6    0  503 -0.16940567831E+03  0.69784713841E+02  0.22897407658E+03  0.29325299295E+03  0.00000000000E+00 0.  1.
<mgrwt>
<rscale>  0 0.20360932E+04</rscale>
<asrwt>0</asrwt>
<pdfrwt beam="1">  1        1 0.34892441E+00 0.20360932E+04</pdfrwt>
<pdfrwt beam="2">  1       -1 0.70303547E-01 0.20360932E+04</pdfrwt>
<totfact> 0.37020591E+00</totfact>
</mgrwt>
</event>
<event>
12    3  0.4769008E-008  0.1774190E+04  0.7818608E-02  0.8720146E-01
          1   -1    0    0  501    0  0.00000000000E+00  0.00000000000E+00  0.11529855512E+04  0.11529855512E+04  0.00000000000E+00 0. -1.
         -1   -1    0    0    0  501 -0.00000000000E+00 -0.00000000000E+00 -0.68252187138E+03  0.68252187138E+03  0.00000000000E+00 0.  1.
         23    2    1    2    0    0  0.12958852099E+03  0.11736288996E+03 -0.42839004749E+03  0.47962726254E+03  0.12632119960E+03 0.  0.
        254    2    1    2    0    0 -0.12958852099E+03 -0.11736288996E+03  0.89885372732E+03  0.13558801600E+04  0.99995287518E+03 0.  0.
         23    2    4    4    0    0  0.39833097675E+03  0.12462526864E+03  0.37470470893E+03  0.56829370002E+03  0.91406159344E+02 0.  0.
         23    2    4    4    0    0 -0.52791949774E+03 -0.24198815860E+03  0.52414901838E+03  0.78758646003E+03  0.91120653799E+02 0.  0.
          4    1    3    3  502    0 -0.19218418519E+02  0.24500156564E+02 -0.25631983823E+02  0.40331177478E+02  0.00000000000E+00 0. -1.
         -4    1    3    3    0  502  0.14880693951E+03  0.92862733397E+02 -0.40275806366E+03  0.43929608506E+03  0.00000000000E+00 0.  1.
         13    1    5    5    0    0  0.58453426764E+02  0.26539627383E+02  0.10655791946E+03  0.12440154790E+03  0.00000000000E+00 0.  1.
        -13    1    5    5    0    0  0.33987754999E+03  0.98085641252E+02  0.26814678948E+03  0.44389215212E+03  0.00000000000E+00 0. -1.
          3    1    6    6  503    0 -0.25607570936E+03 -0.85778778119E+02  0.28999592253E+03  0.39627061812E+03  0.00000000000E+00 0. -1.
         -3    1    6    6    0  503 -0.27184378838E+03 -0.15620938048E+03  0.23415309585E+03  0.39131584190E+03  0.00000000000E+00 0.  1.
<mgrwt>
<rscale>  0 0.17741904E+04</rscale>
<asrwt>0</asrwt>
<pdfrwt beam="1">  1        1 0.17738239E+00 0.17741904E+04</pdfrwt>
<pdfrwt beam="2">  1       -1 0.10500337E+00 0.17741904E+04</pdfrwt>
<totfact> 0.93182382E+00</totfact>
</mgrwt>
</event>
<event>
12    3  0.4769008E-008  0.1497517E+04  0.7818608E-02  0.8886106E-01
         -2   -1    0    0    0  501 -0.00000000000E+00  0.00000000000E+00  0.27000431153E+03  0.27000431153E+03  0.00000000000E+00 0.  1.
          2   -1    0    0  501    0  0.00000000000E+00 -0.00000000000E+00 -0.20764089584E+04  0.20764089584E+04  0.00000000000E+00 0. -1.
         23    2    1    2    0    0  0.18476963243E+03 -0.16511104017E+03 -0.11783688459E+04  0.12084065332E+04  0.10144821286E+03 0.  0.
        254    2    1    2    0    0 -0.18476963243E+03  0.16511104017E+03 -0.62803580098E+03  0.11380067367E+04  0.91609436898E+03 0.  0.
         23    2    4    4    0    0 -0.16638175953E+03  0.52947637483E+03 -0.45325294067E+03  0.72352302745E+03  0.10009606195E+03 0.  0.
         23    2    4    4    0    0 -0.18387872900E+02 -0.36436533466E+03 -0.17478286031E+03  0.41448370928E+03  0.90263425735E+02 0.  0.
          3    1    3    3  502    0  0.12851419219E+03 -0.16787344247E+03 -0.92521487921E+03  0.94906267601E+03  0.00000000000E+00 0. -1.
         -3    1    3    3    0  502  0.56255440240E+02  0.27624023083E+01 -0.25315396665E+03  0.25934385718E+03  0.00000000000E+00 0.  1.
         13    1    5    5    0    0 -0.10268985732E+03  0.44297911558E+03 -0.38858479185E+03  0.59814199325E+03  0.00000000000E+00 0. -1.
        -13    1    5    5    0    0 -0.63691902205E+02  0.86497259249E+02 -0.64668148823E+02  0.12538103420E+03  0.00000000000E+00 0.  1.
          2    1    6    6  503    0  0.65659484774E+01 -0.24708047605E+02 -0.41534830873E+02  0.48772343306E+02  0.00000000000E+00 0.  1.
         -2    1    6    6    0  503 -0.24953821377E+02 -0.33965728706E+03 -0.13324802944E+03  0.36571136597E+03  0.00000000000E+00 0. -1.
<mgrwt>
<rscale>  0 0.14975171E+04</rscale>
<asrwt>0</asrwt>
<pdfrwt beam="1">  1        2 0.31944752E+00 0.14975171E+04</pdfrwt>
<pdfrwt beam="2">  1       -2 0.41539126E-01 0.14975171E+04</pdfrwt>
<totfact> 0.32159765E+01</totfact>
</mgrwt>
</event>
<event>
12    3  0.4769008E-008  0.1203549E+04  0.7818608E-02  0.9109756E-01
          3   -1    0    0  501    0  0.00000000000E+00  0.00000000000E+00  0.11363078660E+04  0.11363078660E+04  0.00000000000E+00 0. -1.
         -3   -1    0    0    0  501 -0.00000000000E+00 -0.00000000000E+00 -0.31869223020E+03  0.31869223020E+03  0.00000000000E+00 0.  1.
         23    2    1    2    0    0  0.23073591269E+03 -0.60922658754E+02  0.24750334644E+03  0.35525274968E+03  0.89420232062E+02 0.  0.
        254    2    1    2    0    0 -0.23073591269E+03  0.60922658754E+02  0.57011228936E+03  0.10997473465E+04  0.90965134637E+03 0.  0.
         23    2    4    4    0    0 -0.45152184434E+03 -0.26787309084E+03  0.35562469735E+03  0.63960327812E+03  0.83638862403E+02 0.  0.
         23    2    4    4    0    0  0.22078593165E+03  0.32879574959E+03  0.21448759201E+03  0.46014406840E+03  0.94204904305E+02 0.  0.
          4    1    3    3  502    0  0.10229516268E+02  0.16300266019E+02  0.85456357443E+01  0.21056342647E+02  0.00000000000E+00 0. -1.
         -4    1    3    3    0  502  0.22050639642E+03 -0.77222924774E+02  0.23895771070E+03  0.33419640704E+03  0.00000000000E+00 0.  1.
         13    1    5    5    0    0 -0.31592469039E+03 -0.22471542423E+03  0.23742945188E+03  0.45461871552E+03  0.00000000000E+00 0.  1.
        -13    1    5    5    0    0 -0.13559715396E+03 -0.43157666606E+02  0.11819524547E+03  0.18498456260E+03  0.00000000000E+00 0. -1.
          3    1    6    6  503    0  0.40583563340E+02  0.34696578927E+02  0.65288798116E+02  0.84341599238E+02  0.00000000000E+00 0. -1.
         -3    1    6    6    0  503  0.18020236831E+03  0.29409917067E+03  0.14919879389E+03  0.37580246917E+03  0.00000000000E+00 0.  1.
<mgrwt>
<rscale>  0 0.12035489E+04</rscale>
<asrwt>0</asrwt>
<pdfrwt beam="1">  1        3 0.17481659E+00 0.12035489E+04</pdfrwt>
<pdfrwt beam="2">  1       -3 0.49029575E-01 0.12035489E+04</pdfrwt>
<totfact> 0.23000376E+00</totfact>
</mgrwt>
</event>
<event>
12    3  0.4769008E-008  0.1903992E+04  0.7818608E-02  0.8652872E-01
          2   -1    0    0  501    0  0.00000000000E+00  0.00000000000E+00  0.14964769832E+04  0.14964769832E+04  0.00000000000E+00 0.  1.
         -2   -1    0    0    0  501 -0.00000000000E+00 -0.00000000000E+00 -0.60561990433E+03  0.60561990433E+03  0.00000000000E+00 0. -1.
         23    2    1    2    0    0  0.46118157899E+03 -0.57693725936E+03  0.33442310462E+03  0.81575187278E+03  0.89817899113E+02 0.  0.
        254    2    1    2    0    0 -0.46118157899E+03  0.57693725936E+03  0.55643397425E+03  0.12863450148E+04  0.89415864322E+03 0.  0.
         23    2    4    4    0    0  0.75272364265E+02  0.59061024474E+03  0.38196621473E+03  0.71444518332E+03  0.10023642435E+03 0.  0.
         23    2    4    4    0    0 -0.53645394325E+03 -0.13672985372E+02  0.17446775952E+03  0.57189983143E+03  0.93062529084E+02 0.  0.
          4    1    3    3  502    0  0.44771607228E+03 -0.56468898708E+03  0.33985083377E+03  0.79675712907E+03  0.00000000000E+00 0. -1.
         -4    1    3    3    0  502  0.13465506712E+02 -0.12248272279E+02 -0.54277291530E+01  0.18994743710E+02  0.00000000000E+00 0.  1.
         13    1    5    5    0    0  0.36756048992E+01  0.34760902211E+03  0.25466668692E+03  0.43092999867E+03  0.00000000000E+00 0. -1.
        -13    1    5    5    0    0  0.71596759365E+02  0.24300122262E+03  0.12729952781E+03  0.28351518465E+03  0.00000000000E+00 0.  1.
          2    1    6    6  503    0 -0.20988678218E+03 -0.20131368306E+02  0.23785117156E+02  0.21218733497E+03  0.00000000000E+00 0. -1.
         -2    1    6    6    0  503 -0.32656716108E+03  0.64583829339E+01  0.15068264236E+03  0.35971249646E+03  0.00000000000E+00 0.  1.
<mgrwt>
<rscale>  0 0.19039919E+04</rscale>
<asrwt>0</asrwt>
<pdfrwt beam="1">  1        2 0.23022723E+00 0.19039919E+04</pdfrwt>
<pdfrwt beam="2">  1       -2 0.93172294E-01 0.19039919E+04</pdfrwt>
<totfact> 0.11644567E+01</totfact>
</mgrwt>
</event>
<event>
12    3  0.4769008E-008  0.1522662E+04  0.7818608E-02  0.8869521E-01
          2   -1    0    0  501    0  0.00000000000E+00  0.00000000000E+00  0.38946180406E+04  0.38946180406E+04  0.00000000000E+00 0.  1.
         -2   -1    0    0    0  501 -0.00000000000E+00 -0.00000000000E+00 -0.14882715127E+03  0.14882715127E+03  0.00000000000E+00 0. -1.
         23    2    1    2    0    0  0.46564027163E+03  0.22314301556E+02  0.81954772388E+03  0.94724786219E+03  0.91111196306E+02 0.  0.
        254    2    1    2    0    0 -0.46564027163E+03 -0.22314301556E+02  0.29262431655E+04  0.30961973297E+04  0.89789757229E+03 0.  0.
         23    2    4    4    0    0  0.21466236015E+03  0.16695913319E+03  0.62998234612E+03  0.69209437277E+03  0.90341482070E+02 0.  0.
         23    2    4    4    0    0 -0.68030263178E+03 -0.18927343474E+03  0.22962608193E+04  0.24041029569E+04  0.90890995688E+02 0.  0.
          1    1    3    3  502    0  0.46229703654E+03  0.10182316227E+02  0.79820392200E+03  0.92247044974E+03  0.00000000000E+00 0. -1.
         -1    1    3    3    0  502  0.33432350918E+01  0.12131985328E+02  0.21343801881E+02  0.24777412448E+02  0.00000000000E+00 0.  1.
         13    1    5    5    0    0  0.18073847076E+03  0.94273337094E+02  0.49085538175E+03  0.53150057638E+03  0.00000000000E+00 0. -1.
        -13    1    5    5    0    0  0.33923889381E+02  0.72685796093E+02  0.13912696437E+03  0.16059379639E+03  0.00000000000E+00 0.  1.
          2    1    6    6  503    0 -0.18436650184E+03 -0.60879064606E+02  0.50540789497E+03  0.54141888386E+03  0.00000000000E+00 0. -1.
         -2    1    6    6    0  503 -0.49593612994E+03 -0.12839437014E+03  0.17908529244E+04  0.18626840730E+04  0.00000000000E+00 0.  1.
<mgrwt>
<rscale>  0 0.15226620E+04</rscale>
<asrwt>0</asrwt>
<pdfrwt beam="1">  1        2 0.59917193E+00 0.15226620E+04</pdfrwt>
<pdfrwt beam="2">  1       -2 0.22896488E-01 0.15226620E+04</pdfrwt>
<totfact> 0.68713563E+00</totfact>
</mgrwt>
</event>
<event>
12    3  0.4769008E-008  0.1167485E+04  0.7818608E-02  0.9141803E-01
         -4   -1    0    0    0  501 -0.00000000000E+00  0.00000000000E+00  0.49088932959E+03  0.49088932959E+03  0.00000000000E+00 0.  1.
          4   -1    0    0  501    0  0.00000000000E+00 -0.00000000000E+00 -0.69415865705E+03  0.69415865705E+03  0.00000000000E+00 0. -1.
         23    2    1    2    0    0 -0.97000485412E+02 -0.19368425856E+03  0.39692986159E+02  0.23810439577E+03  0.90528912238E+02 0.  0.
        254    2    1    2    0    0  0.97000485412E+02  0.19368425856E+03 -0.24296231362E+03  0.94694359087E+03  0.88924057053E+03 0.  0.
         23    2    4    4    0    0 -0.38491034727E+03  0.73730938227E+02 -0.17559479892E+03  0.43749120064E+03  0.83503236723E+02 0.  0.
         23    2    4    4    0    0  0.48191083269E+03  0.11995332033E+03 -0.67367514698E+02  0.50945239023E+03  0.91523254731E+02 0.  0.
          2    1    3    3  502    0 -0.33966829041E+02 -0.21029720300E+02  0.36746327264E+02  0.54279712401E+02  0.00000000000E+00 0. -1.
         -2    1    3    3    0  502 -0.63033656372E+02 -0.17265453826E+03  0.29466588957E+01  0.18382468337E+03  0.00000000000E+00 0.  1.
         13    1    5    5    0    0 -0.26005628468E+03  0.12873309210E+02 -0.13194207261E+03  0.29189673485E+03  0.00000000000E+00 0. -1.
        -13    1    5    5    0    0 -0.12485406260E+03  0.60857629017E+02 -0.43652726311E+02  0.14559446580E+03  0.00000000000E+00 0.  1.
          4    1    6    6  503    0  0.29523495211E+03  0.10235393519E+03 -0.72894267692E+01  0.31255901961E+03  0.00000000000E+00 0. -1.
         -4    1    6    6    0  503  0.18667588058E+03  0.17599385149E+02 -0.60078087929E+02  0.19689337062E+03  0.00000000000E+00 0.  1.
<mgrwt>
<rscale>  0 0.11674846E+04</rscale>
<asrwt>0</asrwt>
<pdfrwt beam="1">  1        4 0.10679364E+00 0.11674846E+04</pdfrwt>
<pdfrwt beam="2">  1       -4 0.75521436E-01 0.11674846E+04</pdfrwt>
<totfact> 0.21951998E+00</totfact>
</mgrwt>
</event>
<event>
12    3  0.4769008E-008  0.1338956E+04  0.7818608E-02  0.8999231E-01
          2   -1    0    0  501    0  0.00000000000E+00  0.00000000000E+00  0.12939649129E+04  0.12939649129E+04  0.00000000000E+00 0. -1.
         -2   -1    0    0    0  501 -0.00000000000E+00 -0.00000000000E+00 -0.34637760933E+03  0.34637760933E+03  0.00000000000E+00 0.  1.
         23    2    1    2    0    0  0.23020470864E+03 -0.26250398767E+03  0.44469486958E+03  0.57267542709E+03  0.91110187881E+02 0.  0.
        254    2    1    2    0    0 -0.23020470864E+03  0.26250398767E+03  0.50289243398E+03  0.10676670951E+04  0.87470547868E+03 0.  0.
         23    2    4    4    0    0  0.18346732834E+03  0.39875036709E+03  0.42434749774E+03  0.61569564474E+03  0.79675669386E+02 0.  0.
         23    2    4    4    0    0 -0.41367203698E+03 -0.13624637942E+03  0.78544936233E+02  0.45197145038E+03  0.91767395436E+02 0.  0.
          1    1    3    3  502    0  0.22475789279E+03 -0.22116084204E+03  0.36210000020E+03  0.48015064154E+03  0.00000000000E+00 0. -1.
         -1    1    3    3    0  502  0.54468158516E+01 -0.41343145627E+02  0.82594869374E+02  0.92524785545E+02  0.00000000000E+00 0.  1.
         13    1    5    5    0    0  0.52864879257E+02  0.46632500574E+02  0.63592804040E+02  0.94938560629E+02  0.00000000000E+00 0. -1.
        -13    1    5    5    0    0  0.13060244909E+03  0.35211786651E+03  0.36075469370E+03  0.52075708412E+03  0.00000000000E+00 0.  1.
          3    1    6    6  503    0 -0.39293722857E+02  0.99918346649E+01  0.21877252388E+02  0.46070029173E+02  0.00000000000E+00 0. -1.
         -3    1    6    6    0  503 -0.37437831413E+03 -0.14623821408E+03  0.56667683844E+02  0.40590142121E+03  0.00000000000E+00 0.  1.
<mgrwt>
<rscale>  0 0.13389555E+04</rscale>
<asrwt>0</asrwt>
<pdfrwt beam="1">  1        2 0.19907152E+00 0.13389555E+04</pdfrwt>
<pdfrwt beam="2">  1       -2 0.53288864E-01 0.13389555E+04</pdfrwt>
<totfact> 0.54074312E+01</totfact>
</mgrwt>
</event>
<event>
12    3  0.4769008E-008  0.1976718E+04  0.7818608E-02  0.8617584E-01
         -1   -1    0    0    0  501 -0.00000000000E+00  0.00000000000E+00  0.74076513671E+03  0.74076513671E+03  0.00000000000E+00 0.  1.
          1   -1    0    0  501    0  0.00000000000E+00 -0.00000000000E+00 -0.13187086890E+04  0.13187086890E+04  0.00000000000E+00 0. -1.
         23    2    1    2    0    0  0.73674928807E+00  0.57015554509E+03  0.33207607645E+03  0.66569568945E+03  0.88308221658E+02 0.  0.
        254    2    1    2    0    0 -0.73674928807E+00 -0.57015554509E+03 -0.91001962875E+03  0.13937781363E+04  0.88848403476E+03 0.  0.
         23    2    4    4    0    0  0.59154503182E+02 -0.73032698809E+03 -0.38177450283E+03  0.83128507612E+03  0.91686105782E+02 0.  0.
         23    2    4    4    0    0 -0.59891252470E+02  0.16017144300E+03 -0.52824512592E+03  0.56249306015E+03  0.90075947834E+02 0.  0.
          2    1    3    3  502    0 -0.19694312199E+02  0.44791039196E+02  0.45932866073E+02  0.67111335190E+02  0.00000000000E+00 0. -1.
         -2    1    3    3    0  502  0.20431061487E+02  0.52536450589E+03  0.28614321038E+03  0.59858435426E+03  0.00000000000E+00 0.  1.
         13    1    5    5    0    0  0.43723631445E+02 -0.59370314168E+03 -0.26814093914E+03  0.65291250534E+03  0.00000000000E+00 0. -1.
        -13    1    5    5    0    0  0.15430871737E+02 -0.13662384641E+03 -0.11363356369E+03  0.17837257078E+03  0.00000000000E+00 0.  1.
          4    1    6    6  503    0  0.22797411099E+02  0.53205598183E+02 -0.17004283581E+03  0.17962495272E+03  0.00000000000E+00 0.  1.
         -4    1    6    6    0  503 -0.82688663569E+02  0.10696584482E+03 -0.35820229011E+03  0.38286810743E+03  0.00000000000E+00 0. -1.
<mgrwt>
<rscale>  0 0.19767179E+04</rscale>
<asrwt>0</asrwt>
<pdfrwt beam="1">  1        1 0.20287826E+00 0.19767179E+04</pdfrwt>
<pdfrwt beam="2">  1       -1 0.11396387E+00 0.19767179E+04</pdfrwt>
<totfact> 0.57194879E+00</totfact>
</mgrwt>
</event>
<event>
12    3  0.4769008E-008  0.1302565E+04  0.7818608E-02  0.9027533E-01
         -2   -1    0    0    0  501 -0.00000000000E+00  0.00000000000E+00  0.37198738623E+03  0.37198738623E+03  0.00000000000E+00 0.  1.
          2   -1    0    0  501    0  0.00000000000E+00 -0.00000000000E+00 -0.11402784010E+04  0.11402784010E+04  0.00000000000E+00 0. -1.
         23    2    1    2    0    0 -0.72353273032E+02  0.97177986419E+02 -0.55974034654E+03  0.58038078055E+03  0.94095896467E+02 0.  0.
        254    2    1    2    0    0  0.72353273032E+02 -0.97177986419E+02 -0.20855066820E+03  0.93188500664E+03  0.90013206099E+03 0.  0.
         23    2    4    4    0    0  0.16439271542E+03  0.36093203399E+03 -0.20491761415E+03  0.45605701069E+03  0.93273095627E+02 0.  0.
         23    2    4    4    0    0 -0.92039442391E+02 -0.45811002041E+03 -0.36330540432E+01  0.47582799595E+03  0.89794392334E+02 0.  0.
          3    1    3    3  502    0 -0.69863959912E+02  0.10704244383E+03 -0.39162256532E+03  0.41195544825E+03  0.00000000000E+00 0. -1.
         -3    1    3    3    0  502 -0.24893131197E+01 -0.98644574130E+01 -0.16811778121E+03  0.16842533230E+03  0.00000000000E+00 0.  1.
         13    1    5    5    0    0  0.55428817827E+01  0.89478318250E+02 -0.70373040376E+02  0.11397130247E+03  0.00000000000E+00 0.  1.
        -13    1    5    5    0    0  0.15884983364E+03  0.27145371574E+03 -0.13454457378E+03  0.34208570822E+03  0.00000000000E+00 0. -1.
          2    1    6    6  503    0 -0.99891986408E+02 -0.28479793895E+03 -0.12971470962E+02  0.30208696436E+03  0.00000000000E+00 0. -1.
         -2    1    6    6    0  503  0.78525440161E+01 -0.17331208146E+03  0.93384169192E+01  0.17374103159E+03  0.00000000000E+00 0.  1.
<mgrwt>
<rscale>  0 0.13025654E+04</rscale>
<asrwt>0</asrwt>
<pdfrwt beam="1">  1        2 0.17542744E+00 0.13025654E+04</pdfrwt>
<pdfrwt beam="2">  1       -2 0.57228830E-01 0.13025654E+04</pdfrwt>
<totfact> 0.57708224E+01</totfact>
</mgrwt>
</event>
<event>
12    3  0.4769008E-008  0.1337693E+04  0.7818608E-02  0.9000197E-01
         -1   -1    0    0    0  501 -0.00000000000E+00  0.00000000000E+00  0.11178512445E+04  0.11178512445E+04  0.00000000000E+00 0.  1.
          1   -1    0    0  501    0  0.00000000000E+00 -0.00000000000E+00 -0.40019218775E+03  0.40019218775E+03  0.00000000000E+00 0. -1.
         23    2    1    2    0    0 -0.24127474466E+03 -0.29346401757E+03  0.14031485059E+03  0.41551710690E+03  0.92906279692E+02 0.  0.
        254    2    1    2    0    0  0.24127474466E+03  0.29346401757E+03  0.57734420611E+03  0.11025263253E+04  0.85901299969E+03 0.  0.
         23    2    4    4    0    0  0.49751354925E+03  0.35756637795E+03  0.54228156517E+03  0.82328940608E+03  0.91447820731E+02 0.  0.
         23    2    4    4    0    0 -0.25623880458E+03 -0.64102360376E+02  0.35062640931E+02  0.27923691922E+03  0.83525030303E+02 0.  0.
          2    1    3    3  502    0 -0.20894222099E+03 -0.26260337282E+03  0.15334397170E+03  0.36896037293E+03  0.00000000000E+00 0. -1.
         -2    1    3    3    0  502 -0.32332523674E+02 -0.30860644750E+02 -0.13029121111E+02  0.46556733975E+02  0.00000000000E+00 0.  1.
         13    1    5    5    0    0  0.43883587981E+03  0.34659706813E+03  0.47914652398E+03  0.73640196122E+03  0.00000000000E+00 0.  1.
        -13    1    5    5    0    0  0.58677669441E+02  0.10969309822E+02  0.63135041194E+02  0.86887444868E+02  0.00000000000E+00 0. -1.
          4    1    6    6  503    0 -0.14604006050E+03  0.57674580969E+01  0.25924481323E+02  0.14843531109E+03  0.00000000000E+00 0. -1.
         -4    1    6    6    0  503 -0.11019874408E+03 -0.69869818473E+02  0.91381596083E+01  0.13080160814E+03  0.00000000000E+00 0.  1.
<mgrwt>
<rscale>  0 0.13376925E+04</rscale>
<asrwt>0</asrwt>
<pdfrwt beam="1">  1        1 0.61568030E-01 0.13376925E+04</pdfrwt>
<pdfrwt beam="2">  1       -1 0.17197711E+00 0.13376925E+04</pdfrwt>
<totfact> 0.13978515E+01</totfact>
</mgrwt>
</event>
<event>
12    3  0.4769008E-008  0.3007163E+04  0.7818608E-02  0.8241689E-01
         -2   -1    0    0    0  501 -0.00000000000E+00  0.00000000000E+00  0.12809955017E+04  0.12809955017E+04  0.00000000000E+00 0.  1.
          2   -1    0    0  501    0  0.00000000000E+00 -0.00000000000E+00 -0.17648435925E+04  0.17648435925E+04  0.00000000000E+00 0. -1.
         23    2    1    2    0    0  0.17888260022E+03  0.54928696130E+03  0.10385488327E+04  0.11922618443E+04  0.95861759433E+02 0.  0.
        254    2    1    2    0    0 -0.17888260022E+03 -0.54928696130E+03 -0.15223969235E+04  0.18535772499E+04  0.88563032807E+03 0.  0.
         23    2    4    4    0    0 -0.55636818419E+01 -0.44675327677E+03 -0.17544449519E+03  0.48855470674E+03  0.91024643487E+02 0.  0.
         23    2    4    4    0    0 -0.17331891838E+03 -0.10253368453E+03 -0.13469524283E+04  0.13650225431E+04  0.91940715563E+02 0.  0.
          4    1    3    3  502    0 -0.63212170620E+00  0.61959960634E+02  0.71735083319E+02  0.94791130801E+02  0.00000000000E+00 0. -1.
         -4    1    3    3    0  502  0.17951472192E+03  0.48732700066E+03  0.96681374936E+03  0.10974707135E+04  0.00000000000E+00 0.  1.
         13    1    5    5    0    0 -0.41054582156E+02 -0.26919503101E+03 -0.79712759982E+02  0.28373503051E+03  0.00000000000E+00 0.  1.
        -13    1    5    5    0    0  0.35490900314E+02 -0.17755824576E+03 -0.95731735207E+02  0.20481967622E+03  0.00000000000E+00 0. -1.
          4    1    6    6  503    0 -0.12883795400E+03 -0.45988575422E+02 -0.10767867527E+04  0.10854417895E+04  0.00000000000E+00 0. -1.
         -4    1    6    6    0  503 -0.44480964374E+02 -0.56545109109E+02 -0.27016567558E+03  0.27958075366E+03  0.00000000000E+00 0.  1.
<mgrwt>
<rscale>  0 0.30071626E+04</rscale>
<asrwt>0</asrwt>
<pdfrwt beam="1">  1        2 0.27151440E+00 0.30071626E+04</pdfrwt>
<pdfrwt beam="2">  1       -2 0.19707623E+00 0.30071626E+04</pdfrwt>
<totfact> 0.10737061E+00</totfact>
</mgrwt>
</event>
<event>
12    3  0.4769008E-008  0.1445194E+04  0.7818608E-02  0.8921739E-01
         -2   -1    0    0    0  501 -0.00000000000E+00  0.00000000000E+00  0.16107107702E+03  0.16107107702E+03  0.00000000000E+00 0. -1.
          2   -1    0    0  501    0  0.00000000000E+00 -0.00000000000E+00 -0.32417143050E+04  0.32417143050E+04  0.00000000000E+00 0.  1.
         23    2    1    2    0    0 -0.52977422192E+02  0.44179896608E+01 -0.19730293241E+04  0.19758375275E+04  0.90901570056E+02 0.  0.
        254    2    1    2    0    0  0.52977422192E+02 -0.44179896608E+01 -0.11076139038E+04  0.14269478545E+04  0.89807877913E+03 0.  0.
         23    2    4    4    0    0  0.36992480604E+03  0.83317581408E+02 -0.99562983022E+03  0.10694148355E+04  0.92645291302E+02 0.  0.
         23    2    4    4    0    0 -0.31694738385E+03 -0.87735571069E+02 -0.11198407360E+03  0.35753301900E+03  0.84476342074E+02 0.  0.
          3    1    3    3  502    0 -0.37027908254E+02 -0.36420204723E+02 -0.64611638772E+03  0.64820049660E+03  0.00000000000E+00 0. -1.
         -3    1    3    3    0  502 -0.15949513938E+02  0.40838194384E+02 -0.13269129364E+04  0.13276370309E+04  0.00000000000E+00 0.  1.
         13    1    5    5    0    0  0.35877673530E+03  0.68704935174E+02 -0.97780222337E+03  0.10438095142E+04  0.00000000000E+00 0. -1.
        -13    1    5    5    0    0  0.11148070747E+02  0.14612646234E+02 -0.17827606852E+02  0.25605321271E+02  0.00000000000E+00 0.  1.
          2    1    6    6  503    0 -0.20447081202E+03 -0.42359562558E+02 -0.29566453872E+02  0.21089528374E+03  0.00000000000E+00 0. -1.
         -2    1    6    6    0  503 -0.11247657183E+03 -0.45376008511E+02 -0.82417619732E+02  0.14663773526E+03  0.00000000000E+00 0.  1.
<mgrwt>
<rscale>  0 0.14451940E+04</rscale>
<asrwt>0</asrwt>
<pdfrwt beam="1">  1        2 0.49872527E+00 0.14451940E+04</pdfrwt>
<pdfrwt beam="2">  1       -2 0.24780166E-01 0.14451940E+04</pdfrwt>
<totfact> 0.17419976E+01</totfact>
</mgrwt>
</event>
<event>
12    3  0.4769008E-008  0.1409514E+04  0.7818608E-02  0.8946961E-01
          2   -1    0    0  501    0  0.00000000000E+00  0.00000000000E+00  0.57740627489E+03  0.57740627489E+03  0.00000000000E+00 0. -1.
         -2   -1    0    0    0  501 -0.00000000000E+00 -0.00000000000E+00 -0.86019530406E+03  0.86019530406E+03  0.00000000000E+00 0.  1.
         23    2    1    2    0    0  0.29700989231E+03  0.20285448509E+03  0.10189709145E+03  0.38462596269E+03  0.90494727352E+02 0.  0.
        254    2    1    2    0    0 -0.29700989231E+03 -0.20285448509E+03 -0.38468612061E+03  0.10529756163E+04  0.91181654887E+03 0.  0.
         23    2    4    4    0    0  0.35059646477E+02  0.28582930380E+03 -0.34021390466E+03  0.45394532586E+03  0.85984232403E+02 0.  0.
         23    2    4    4    0    0 -0.33206953879E+03 -0.48868378889E+03 -0.44472215953E+02  0.59903029040E+03  0.88190060174E+02 0.  0.
          1    1    3    3  502    0  0.18948890179E+02 -0.70784186886E+01  0.15980352866E+02  0.25778598252E+02  0.00000000000E+00 0. -1.
         -1    1    3    3    0  502  0.27806100213E+03  0.20993290378E+03  0.85916738580E+02  0.35884736444E+03  0.00000000000E+00 0.  1.
         13    1    5    5    0    0  0.56032244120E+02  0.25559644723E+03 -0.31416567897E+03  0.40886333910E+03  0.00000000000E+00 0.  1.
        -13    1    5    5    0    0 -0.20972597643E+02  0.30232856572E+02 -0.26048225685E+02  0.45081986755E+02  0.00000000000E+00 0. -1.
          3    1    6    6  503    0 -0.80196238451E+02 -0.72604893525E+02  0.14280118263E+02  0.10911841734E+03  0.00000000000E+00 0. -1.
         -3    1    6    6    0  503 -0.25187330034E+03 -0.41607889537E+03 -0.58752334216E+02  0.48991187306E+03  0.00000000000E+00 0.  1.
<mgrwt>
<rscale>  0 0.14095136E+04</rscale>
<asrwt>0</asrwt>
<pdfrwt beam="1">  1        2 0.88831736E-01 0.14095136E+04</pdfrwt>
<pdfrwt beam="2">  1       -2 0.13233774E+00 0.14095136E+04</pdfrwt>
<totfact> 0.20962003E+01</totfact>
</mgrwt>
</event>
<event>
12    3  0.4769008E-008  0.1373307E+04  0.7818608E-02  0.8973370E-01
         -2   -1    0    0    0  501 -0.00000000000E+00  0.00000000000E+00  0.39694035616E+03  0.39694035616E+03  0.00000000000E+00 0.  1.
          2   -1    0    0  501    0  0.00000000000E+00 -0.00000000000E+00 -0.11878186955E+04  0.11878186955E+04  0.00000000000E+00 0. -1.
         23    2    1    2    0    0  0.26361124561E+03 -0.15457785268E+03  0.49282183267E+02  0.32233802846E+03  0.89932583936E+02 0.  0.
        254    2    1    2    0    0 -0.26361124561E+03  0.15457785268E+03 -0.84016052257E+03  0.12624210232E+04  0.89132033223E+03 0.  0.
         23    2    4    4    0    0  0.27393720318E+03 -0.69396947075E+02 -0.49940166071E+03  0.58089516974E+03  0.90441428296E+02 0.  0.
         23    2    4    4    0    0 -0.53754844879E+03  0.22397479976E+03 -0.34075886186E+03  0.68152585341E+03  0.96113688975E+02 0.  0.
          1    1    3    3  502    0  0.14470258824E+03 -0.11019440848E+03 -0.10199689043E+02  0.18216937273E+03  0.00000000000E+00 0. -1.
         -1    1    3    3    0  502  0.11890865737E+03 -0.44383444202E+02  0.59481872310E+02  0.14016865574E+03  0.00000000000E+00 0.  1.
         13    1    5    5    0    0  0.58707977850E+02 -0.55304321690E+02 -0.12336344352E+03  0.14738973458E+03  0.00000000000E+00 0.  1.
        -13    1    5    5    0    0  0.21522922533E+03 -0.14092625385E+02 -0.37603821719E+03  0.43350543516E+03  0.00000000000E+00 0. -1.
          2    1    6    6  503    0 -0.43199162598E+03  0.21702121171E+03 -0.26401655478E+03  0.55083546767E+03  0.00000000000E+00 0. -1.
         -2    1    6    6    0  503 -0.10555682282E+03  0.69535880499E+01 -0.76742307080E+02  0.13069038574E+03  0.00000000000E+00 0.  1.
<mgrwt>
<rscale>  0 0.13733072E+04</rscale>
<asrwt>0</asrwt>
<pdfrwt beam="1">  1        2 0.18274133E+00 0.13733072E+04</pdfrwt>
<pdfrwt beam="2">  1       -2 0.61067748E-01 0.13733072E+04</pdfrwt>
<totfact> 0.46862777E+01</totfact>
</mgrwt>
</event>
<event>
12    3  0.4769008E-008  0.1680443E+04  0.7818608E-02  0.8772598E-01
         -1   -1    0    0    0  501 -0.00000000000E+00  0.00000000000E+00  0.66687698994E+03  0.66687698994E+03  0.00000000000E+00 0.  1.
          1   -1    0    0  501    0  0.00000000000E+00 -0.00000000000E+00 -0.10586246763E+04  0.10586246763E+04  0.00000000000E+00 0. -1.
         23    2    1    2    0    0  0.10153852724E+03  0.19534549303E+03 -0.70950415411E+03  0.74857636274E+03  0.92198112717E+02 0.  0.
        254    2    1    2    0    0 -0.10153852724E+03 -0.19534549303E+03  0.31775646771E+03  0.97692530354E+03  0.89718668167E+03 0.  0.
         23    2    4    4    0    0  0.24681934009E+02  0.33407814018E+03  0.13692664683E+02  0.34723487655E+03  0.90372389673E+02 0.  0.
         23    2    4    4    0    0 -0.12622046125E+03 -0.52942363321E+03  0.30406380302E+03  0.62969042699E+03  0.88511294782E+02 0.  0.
          4    1    3    3  502    0  0.19316289493E+02  0.32399167324E+02 -0.27088617457E+03  0.27349980741E+03  0.00000000000E+00 0. -1.
         -4    1    3    3    0  502  0.82222237745E+02  0.16294632570E+03 -0.43861797954E+03  0.47507655532E+03  0.00000000000E+00 0.  1.
         13    1    5    5    0    0 -0.54323672105E+01  0.30513178537E+03  0.11017676749E+02  0.30537895516E+03  0.00000000000E+00 0. -1.
        -13    1    5    5    0    0  0.30114301220E+02  0.28946354811E+02  0.26749879345E+01  0.41855921388E+02  0.00000000000E+00 0.  1.
          4    1    6    6  503    0 -0.72529953350E+02 -0.16049156932E+03  0.70211510646E+02  0.18959903529E+03  0.00000000000E+00 0.  1.
         -4    1    6    6    0  503 -0.53690507898E+02 -0.36893206388E+03  0.23385229238E+03  0.44009139170E+03  0.00000000000E+00 0. -1.
<mgrwt>
<rscale>  0 0.16804433E+04</rscale>
<asrwt>0</asrwt>
<pdfrwt beam="1">  1        1 0.16286533E+00 0.16804433E+04</pdfrwt>
<pdfrwt beam="2">  1       -1 0.10259646E+00 0.16804433E+04</pdfrwt>
<totfact> 0.11674575E+01</totfact>
</mgrwt>
</event>
<event>
12    3  0.4769008E-008  0.2186458E+04  0.7818608E-02  0.8524086E-01
         -1   -1    0    0    0  501 -0.00000000000E+00  0.00000000000E+00  0.73368353758E+03  0.73368353758E+03  0.00000000000E+00 0.  1.
          1   -1    0    0  501    0  0.00000000000E+00 -0.00000000000E+00 -0.16289719931E+04  0.16289719931E+04  0.00000000000E+00 0. -1.
         23    2    1    2    0    0  0.90369611844E+03  0.66685754826E+02 -0.48766916308E+03  0.10330479627E+04  0.90847213924E+02 0.  0.
        254    2    1    2    0    0 -0.90369611844E+03 -0.66685754826E+02 -0.40761929240E+03  0.13296075679E+04  0.88350955444E+03 0.  0.
         23    2    4    4    0    0 -0.50778765989E+03 -0.33313279308E+03  0.10482828037E+03  0.62290692175E+03  0.90544461119E+02 0.  0.
         23    2    4    4    0    0 -0.39590845854E+03  0.26644703825E+03 -0.51244757277E+03  0.70670064618E+03  0.95319235859E+02 0.  0.
          4    1    3    3  502    0  0.14678235386E+03  0.23079518028E+02 -0.11699098103E+03  0.18911534364E+03  0.00000000000E+00 0. -1.
         -4    1    3    3    0  502  0.75691376458E+03  0.43606236798E+02 -0.37067818204E+03  0.84393261908E+03  0.00000000000E+00 0.  1.
         13    1    5    5    0    0 -0.10063631567E+03 -0.26710906668E+02  0.25456343079E+02  0.10718752712E+03  0.00000000000E+00 0. -1.
        -13    1    5    5    0    0 -0.40715134422E+03 -0.30642188641E+03  0.79371937291E+02  0.51571939463E+03  0.00000000000E+00 0.  1.
          1    1    6    6  503    0 -0.53315551168E+02  0.15841736151E+02 -0.26925359335E+02  0.61793879761E+02  0.00000000000E+00 0. -1.
         -1    1    6    6    0  503 -0.34259290738E+03  0.25060530210E+03 -0.48552221344E+03  0.64490676642E+03  0.00000000000E+00 0.  1.
<mgrwt>
<rscale>  0 0.21864583E+04</rscale>
<asrwt>0</asrwt>
<pdfrwt beam="1">  1        1 0.25061108E+00 0.21864583E+04</pdfrwt>
<pdfrwt beam="2">  1       -1 0.11287439E+00 0.21864583E+04</pdfrwt>
<totfact> 0.34921063E+00</totfact>
</mgrwt>
</event>
<event>
12    3  0.4769008E-008  0.1807498E+04  0.7818608E-02  0.8702322E-01
          1   -1    0    0  501    0  0.00000000000E+00  0.00000000000E+00  0.25644135677E+04  0.25644135677E+04  0.00000000000E+00 0. -1.
         -1   -1    0    0    0  501 -0.00000000000E+00 -0.00000000000E+00 -0.31849850844E+03  0.31849850844E+03  0.00000000000E+00 0.  1.
         23    2    1    2    0    0  0.19478987619E+03  0.62750678668E+03  0.58653710824E+03  0.88550681079E+03  0.91589679637E+02 0.  0.
        254    2    1    2    0    0 -0.19478987619E+03 -0.62750678668E+03  0.16593779510E+04  0.19974052653E+04  0.89687498933E+03 0.  0.
         23    2    4    4    0    0 -0.61797565462E+02  0.22172962551E+03  0.35955829964E+03  0.43612688482E+03  0.89115222597E+02 0.  0.
         23    2    4    4    0    0 -0.13299231073E+03 -0.84923641219E+03  0.12998196514E+04  0.15612783805E+04  0.95758116449E+02 0.  0.
          3    1    3    3  502    0  0.47204811805E+02  0.88287967696E+02  0.55628972992E+02  0.11453227551E+03  0.00000000000E+00 0. -1.
         -3    1    3    3    0  502  0.14758506439E+03  0.53921881898E+03  0.53090813525E+03  0.77097453528E+03  0.00000000000E+00 0.  1.
         13    1    5    5    0    0 -0.26157287901E+01  0.37220944261E+02  0.13814905304E+02  0.39788092909E+02  0.00000000000E+00 0. -1.
        -13    1    5    5    0    0 -0.59181836672E+02  0.18450868125E+03  0.34574339433E+03  0.39633879191E+03  0.00000000000E+00 0.  1.
          3    1    6    6  503    0  0.85238407129E+01 -0.74532285180E+02  0.83292629827E+02  0.11209540391E+03  0.00000000000E+00 0. -1.
         -3    1    6    6    0  503 -0.14151615144E+03 -0.77470412701E+03  0.12165270215E+04  0.14491829766E+04  0.00000000000E+00 0.  1.
<mgrwt>
<rscale>  0 0.18074976E+04</rscale>
<asrwt>0</asrwt>
<pdfrwt beam="1">  1        1 0.39452515E+00 0.18074976E+04</pdfrwt>
<pdfrwt beam="2">  1       -1 0.48999772E-01 0.18074976E+04</pdfrwt>
<totfact> 0.48122641E+00</totfact>
</mgrwt>
</event>
<event>
12    3  0.4769008E-008  0.1047852E+04  0.7818608E-02  0.9257565E-01
         -2   -1    0    0    0  501 -0.00000000000E+00  0.00000000000E+00  0.64385010720E+03  0.64385010720E+03  0.00000000000E+00 0.  1.
          2   -1    0    0  501    0  0.00000000000E+00 -0.00000000000E+00 -0.42633877339E+03  0.42633877339E+03  0.00000000000E+00 0. -1.
         23    2    1    2    0    0 -0.91397427330E+02 -0.35711039319E+02 -0.20195763246E+02  0.13593654959E+03  0.91880948018E+02 0.  0.
        254    2    1    2    0    0  0.91397427330E+02  0.35711039319E+02  0.23770709705E+03  0.93425233100E+03  0.89816144759E+03 0.  0.
         23    2    4    4    0    0  0.20283019091E+03 -0.31732523360E+03  0.36510905366E+03  0.53253736740E+03  0.91956709279E+02 0.  0.
         23    2    4    4    0    0 -0.11143276358E+03  0.35303627292E+03 -0.12740195661E+03  0.40171496361E+03  0.89954336413E+02 0.  0.
          4    1    3    3  502    0 -0.46722758311E+02  0.77252121174E+00 -0.52129221843E+02  0.70007633178E+02  0.00000000000E+00 0. -1.
         -4    1    3    3    0  502 -0.44674669019E+02 -0.36483560530E+02  0.31933458597E+02  0.65928916409E+02  0.00000000000E+00 0.  1.
         13    1    5    5    0    0 -0.32438098397E+01  0.36643396496E+01  0.11098528427E+02  0.12129592763E+02  0.00000000000E+00 0.  1.
        -13    1    5    5    0    0  0.20607400075E+03 -0.32098957325E+03  0.35401052524E+03  0.52040777463E+03  0.00000000000E+00 0. -1.
          2    1    6    6  503    0 -0.46939031029E+02  0.60160316856E+02 -0.52462849696E+02  0.92600685507E+02  0.00000000000E+00 0. -1.
         -2    1    6    6    0  503 -0.64493732547E+02  0.29287595607E+03 -0.74939106919E+02  0.30911427810E+03  0.00000000000E+00 0.  1.
<mgrwt>
<rscale>  0 0.10478516E+04</rscale>
<asrwt>0</asrwt>
<pdfrwt beam="1">  1        2 0.65590580E-01 0.10478516E+04</pdfrwt>
<pdfrwt beam="2">  1       -2 0.99053863E-01 0.10478516E+04</pdfrwt>
<totfact> 0.62248846E+01</totfact>
</mgrwt>
</event>
<event>
12    3  0.4769008E-008  0.1516888E+04  0.7818608E-02  0.8873300E-01
          1   -1    0    0  501    0  0.00000000000E+00  0.00000000000E+00  0.56902771068E+03  0.56902771068E+03  0.00000000000E+00 0. -1.
         -1   -1    0    0    0  501 -0.00000000000E+00 -0.00000000000E+00 -0.10109125209E+04  0.10109125209E+04  0.00000000000E+00 0.  1.
         23    2    1    2    0    0 -0.37896334146E+03 -0.22459469100E+03 -0.32885405156E+03  0.55704400874E+03  0.89983615489E+02 0.  0.
        254    2    1    2    0    0  0.37896334146E+03  0.22459469100E+03 -0.11303075868E+03  0.10228962228E+04  0.91623399899E+03 0.  0.
         23    2    4    4    0    0  0.42506549365E+03 -0.21050834070E+03 -0.26387488614E+03  0.55058321304E+03  0.92290213722E+02 0.  0.
         23    2    4    4    0    0 -0.46102152184E+02  0.43510303169E+03  0.15084412746E+03  0.47231300981E+03  0.94263311099E+02 0.  0.
          1    1    3    3  502    0 -0.34026484114E+02  0.30699230882E+01 -0.41081474969E+02  0.53431391846E+02  0.00000000000E+00 0. -1.
         -1    1    3    3    0  502 -0.34493685735E+03 -0.22766461408E+03 -0.28777257659E+03  0.50361261690E+03  0.00000000000E+00 0.  1.
         13    1    5    5    0    0  0.26169639568E+03 -0.78984561323E+02 -0.14269959850E+03  0.30836137867E+03  0.00000000000E+00 0. -1.
        -13    1    5    5    0    0  0.16336909796E+03 -0.13152377937E+03 -0.12117528764E+03  0.24222183437E+03  0.00000000000E+00 0.  1.
          3    1    6    6  503    0 -0.17133102486E+02  0.85179253650E+02  0.71055912818E+02  0.11224077334E+03  0.00000000000E+00 0. -1.
         -3    1    6    6    0  503 -0.28969049698E+02  0.34992377804E+03  0.79788214647E+02  0.36007223647E+03  0.00000000000E+00 0.  1.
<mgrwt>
<rscale>  0 0.15168879E+04</rscale>
<asrwt>0</asrwt>
<pdfrwt beam="1">  1        1 0.87542725E-01 0.15168879E+04</pdfrwt>
<pdfrwt beam="2">  1       -1 0.15552500E+00 0.15168879E+04</pdfrwt>
<totfact> 0.11289055E+01</totfact>
</mgrwt>
</event>
<event>
12    3  0.4769008E-008  0.2329957E+04  0.7818608E-02  0.8466202E-01
          2   -1    0    0  501    0  0.00000000000E+00  0.00000000000E+00  0.17804677146E+04  0.17804677146E+04  0.00000000000E+00 0. -1.
         -2   -1    0    0    0  501 -0.00000000000E+00 -0.00000000000E+00 -0.76225773784E+03  0.76225773784E+03  0.00000000000E+00 0.  1.
         23    2    1    2    0    0 -0.45196975707E+02 -0.66608232880E+03 -0.36152958606E+03  0.76421624077E+03  0.87260447577E+02 0.  0.
        254    2    1    2    0    0  0.45196975707E+02  0.66608232880E+03  0.13797395628E+04  0.17785092117E+04  0.90205616201E+03 0.  0.
         23    2    4    4    0    0  0.10843179559E+03  0.67561691282E+03  0.41010423541E+03  0.80291126647E+03  0.90913974310E+02 0.  0.
         23    2    4    4    0    0 -0.63234819886E+02 -0.95345840284E+01  0.96963532742E+03  0.97559794521E+03  0.86655246701E+02 0.  0.
          3    1    3    3  502    0 -0.36319008669E+01 -0.40678379369E+03 -0.25928516821E+03  0.48240547671E+03  0.00000000000E+00 0. -1.
         -3    1    3    3    0  502 -0.41565074841E+02 -0.25929853511E+03 -0.10224441786E+03  0.28181076406E+03  0.00000000000E+00 0.  1.
         13    1    5    5    0    0  0.38746314004E+02  0.27965806201E+03  0.22138768775E+03  0.35877906402E+03  0.00000000000E+00 0. -1.
        -13    1    5    5    0    0  0.69685481589E+02  0.39595885082E+03  0.18871654767E+03  0.44413220245E+03  0.00000000000E+00 0.  1.
          2    1    6    6  503    0  0.15459471355E+02 -0.23143409207E+02  0.24741909087E+03  0.24897955573E+03  0.00000000000E+00 0. -1.
         -2    1    6    6    0  503 -0.78694291240E+02  0.13608825179E+02  0.72221623655E+03  0.72661838949E+03  0.00000000000E+00 0.  1.
<mgrwt>
<rscale>  0 0.23299573E+04</rscale>
<asrwt>0</asrwt>
<pdfrwt beam="1">  1        2 0.27391811E+00 0.23299573E+04</pdfrwt>
<pdfrwt beam="2">  1       -2 0.11727042E+00 0.23299573E+04</pdfrwt>
<totfact> 0.44977356E+00</totfact>
</mgrwt>
</event>
<event>
12    3  0.4769008E-008  0.2353756E+04  0.7818608E-02  0.8457022E-01
          2   -1    0    0  501    0  0.00000000000E+00  0.00000000000E+00  0.96203835533E+03  0.96203835533E+03  0.00000000000E+00 0. -1.
         -2   -1    0    0    0  501 -0.00000000000E+00 -0.00000000000E+00 -0.14396950483E+04  0.14396950483E+04  0.00000000000E+00 0.  1.
         23    2    1    2    0    0  0.27025626458E+03 -0.17873571698E+03 -0.11123895871E+04  0.11622898617E+04  0.92315893802E+02 0.  0.
        254    2    1    2    0    0 -0.27025626458E+03  0.17873571698E+03  0.63473289412E+03  0.12394435418E+04  0.10140757080E+04 0.  0.
         23    2    4    4    0    0 -0.40621343457E+03  0.74756963595E+02 -0.13692826145E+03  0.44395419790E+03  0.88022855085E+02 0.  0.
         23    2    4    4    0    0  0.13595716999E+03  0.10397875339E+03  0.77166115558E+03  0.79548934394E+03  0.89701862151E+02 0.  0.
          4    1    3    3  502    0  0.18442990981E+03 -0.16923432867E+03 -0.84616268608E+03  0.88240916867E+03  0.00000000000E+00 0.  1.
         -4    1    3    3    0  502  0.85826354774E+02 -0.95013883110E+01 -0.26622690097E+03  0.27988069307E+03  0.00000000000E+00 0. -1.
         13    1    5    5    0    0 -0.14190221883E+03  0.58946524825E+01 -0.89015535818E+01  0.14230328279E+03  0.00000000000E+00 0. -1.
        -13    1    5    5    0    0 -0.26431121574E+03  0.68862311113E+02 -0.12802670787E+03  0.30165091511E+03  0.00000000000E+00 0.  1.
          3    1    6    6  503    0  0.11041410870E+03  0.75086495486E+02  0.39710289615E+03  0.41895103214E+03  0.00000000000E+00 0. -1.
         -3    1    6    6    0  503  0.25543061284E+02  0.28892257901E+02  0.37455825943E+03  0.37653831180E+03  0.00000000000E+00 0.  1.
<mgrwt>
<rscale>  0 0.23537560E+04</rscale>
<asrwt>0</asrwt>
<pdfrwt beam="1">  1        2 0.14800590E+00 0.23537560E+04</pdfrwt>
<pdfrwt beam="2">  1       -2 0.22149154E+00 0.23537560E+04</pdfrwt>
<totfact> 0.23266704E+00</totfact>
</mgrwt>
</event>
<event>
12    3  0.4769008E-008  0.1352612E+04  0.7818608E-02  0.8988853E-01
          2   -1    0    0  501    0  0.00000000000E+00  0.00000000000E+00  0.17368960655E+04  0.17368960655E+04  0.00000000000E+00 0. -1.
         -2   -1    0    0    0  501 -0.00000000000E+00 -0.00000000000E+00 -0.26333738444E+03  0.26333738444E+03  0.00000000000E+00 0.  1.
         23    2    1    2    0    0 -0.23662543924E+03 -0.67516849218E+02  0.67444970515E+01  0.26087083339E+03  0.86359597329E+02 0.  0.
        254    2    1    2    0    0  0.23662543924E+03  0.67516849218E+02  0.14668141840E+04  0.17393626165E+04  0.90182500409E+03 0.  0.
         23    2    4    4    0    0  0.26518936664E+03  0.30778204131E+03  0.14156491497E+04  0.14756680705E+04  0.92079063071E+02 0.  0.
         23    2    4    4    0    0 -0.28563927398E+02 -0.24026519209E+03  0.51165034231E+02  0.26369454606E+03  0.91507881721E+02 0.  0.
          1    1    3    3  502    0  0.62533635844E+01  0.39134429351E+01 -0.16803565912E+01  0.75659229443E+01  0.00000000000E+00 0. -1.
         -1    1    3    3    0  502 -0.24287880283E+03 -0.71430292153E+02  0.84248536428E+01  0.25330491045E+03  0.00000000000E+00 0.  1.
         13    1    5    5    0    0  0.10502568042E+01  0.15253632717E+02  0.13175529977E+03  0.13263949400E+03  0.00000000000E+00 0.  1.
        -13    1    5    5    0    0  0.26413910984E+03  0.29252840859E+03  0.12838938500E+04  0.13430285765E+04  0.00000000000E+00 0. -1.
          3    1    6    6  503    0 -0.15049511092E+02 -0.24366194758E+03  0.52461857529E+02  0.24969957745E+03  0.00000000000E+00 0. -1.
         -3    1    6    6    0  503 -0.13514416307E+02  0.33967554866E+01 -0.12968232985E+01  0.13994968618E+02  0.00000000000E+00 0.  1.
<mgrwt>
<rscale>  0 0.13526118E+04</rscale>
<asrwt>0</asrwt>
<pdfrwt beam="1">  1        2 0.26721477E+00 0.13526118E+04</pdfrwt>
<pdfrwt beam="2">  1       -2 0.40513445E-01 0.13526118E+04</pdfrwt>
<totfact> 0.52688662E+01</totfact>
</mgrwt>
</event>
<event>
12    3  0.4769008E-008  0.1415175E+04  0.7818608E-02  0.8942907E-01
          2   -1    0    0  501    0  0.00000000000E+00  0.00000000000E+00  0.80991606981E+03  0.80991606981E+03  0.00000000000E+00 0.  1.
         -2   -1    0    0    0  501 -0.00000000000E+00 -0.00000000000E+00 -0.61818763965E+03  0.61818763965E+03  0.00000000000E+00 0. -1.
         23    2    1    2    0    0  0.29532113686E+03 -0.99570911551E+02  0.32706244027E+03  0.46126093328E+03  0.93074531604E+02 0.  0.
        254    2    1    2    0    0 -0.29532113686E+03  0.99570911551E+02 -0.13533401011E+03  0.96684277617E+03  0.90517441372E+03 0.  0.
         23    2    4    4    0    0  0.29685683712E+03 -0.98622984642E+02 -0.37914855519E+02  0.32828750436E+03  0.92112292359E+02 0.  0.
         23    2    4    4    0    0 -0.59217797398E+03  0.19819389619E+03 -0.97419154590E+02  0.63855527182E+03  0.91141484101E+02 0.  0.
          3    1    3    3  502    0  0.18509916968E+03 -0.15391794469E+02  0.17085065501E+03  0.25236591741E+03  0.00000000000E+00 0. -1.
         -3    1    3    3    0  502  0.11022196718E+03 -0.84179117081E+02  0.15621178526E+03  0.20889501587E+03  0.00000000000E+00 0.  1.
         13    1    5    5    0    0  0.35201101400E+02 -0.41416217950E+02  0.12436884049E+02  0.55759274870E+02  0.00000000000E+00 0.  1.
        -13    1    5    5    0    0  0.26165573572E+03 -0.57206766692E+02 -0.50351739567E+02  0.27252822949E+03  0.00000000000E+00 0. -1.
          3    1    6    6  503    0 -0.30895648002E+03  0.81015017463E+02 -0.89072452739E+01  0.31952602182E+03  0.00000000000E+00 0. -1.
         -3    1    6    6    0  503 -0.28322149396E+03  0.11717887873E+03 -0.88511909316E+02  0.31902925000E+03  0.00000000000E+00 0.  1.
<mgrwt>
<rscale>  0 0.14151750E+04</rscale>
<asrwt>0</asrwt>
<pdfrwt beam="1">  1        2 0.12460247E+00 0.14151750E+04</pdfrwt>
<pdfrwt beam="2">  1       -2 0.95105791E-01 0.14151750E+04</pdfrwt>
<totfact> 0.30631910E+01</totfact>
</mgrwt>
</event>
<event>
12    3  0.4769008E-008  0.1440493E+04  0.7818608E-02  0.8925018E-01
         -2   -1    0    0    0  501 -0.00000000000E+00  0.00000000000E+00  0.45296027403E+03  0.45296027403E+03  0.00000000000E+00 0.  1.
          2   -1    0    0  501    0  0.00000000000E+00 -0.00000000000E+00 -0.11452543715E+04  0.11452543715E+04  0.00000000000E+00 0. -1.
         23    2    1    2    0    0 -0.34786895244E+03 -0.86160597464E+02  0.57832543355E+02  0.37425167391E+03  0.91012393250E+02 0.  0.
        254    2    1    2    0    0  0.34786895244E+03  0.86160597464E+02 -0.75012664078E+03  0.12239629716E+04  0.89830892347E+03 0.  0.
         23    2    4    4    0    0  0.54749053345E+03 -0.15051978299E+03 -0.24762092445E+03  0.62617363230E+03  0.91516153062E+02 0.  0.
         23    2    4    4    0    0 -0.19962158101E+03  0.23668038046E+03 -0.50250571632E+03  0.59778933929E+03  0.94729726751E+02 0.  0.
          3    1    3    3  502    0 -0.47440543712E+02 -0.32135373581E+02 -0.17374135184E+02  0.59876105387E+02  0.00000000000E+00 0. -1.
         -3    1    3    3    0  502 -0.30042840872E+03 -0.54025223884E+02  0.75206678540E+02  0.31437556852E+03  0.00000000000E+00 0.  1.
         13    1    5    5    0    0  0.43949888632E+01 -0.72277627827E+01  0.55030260635E+01  0.10091569640E+02  0.00000000000E+00 0.  1.
        -13    1    5    5    0    0  0.54309554458E+03 -0.14329202021E+03 -0.25312395051E+03  0.61608206266E+03  0.00000000000E+00 0. -1.
          4    1    6    6  503    0 -0.59825243833E+02  0.93944424129E+02 -0.10581727053E+03  0.15362912929E+03  0.00000000000E+00 0.  1.
         -4    1    6    6    0  503 -0.13979633718E+03  0.14273595633E+03 -0.39668844580E+03  0.44416021000E+03  0.00000000000E+00 0. -1.
<mgrwt>
<rscale>  0 0.14404926E+04</rscale>
<asrwt>0</asrwt>
<pdfrwt beam="1">  1        2 0.17619298E+00 0.14404926E+04</pdfrwt>
<pdfrwt beam="2">  1       -2 0.69686197E-01 0.14404926E+04</pdfrwt>
<totfact> 0.37237980E+01</totfact>
</mgrwt>
</event>
<event>
12    3  0.4769008E-008  0.1184397E+04  0.7818608E-02  0.9126624E-01
         -1   -1    0    0    0  501 -0.00000000000E+00  0.00000000000E+00  0.20015461439E+03  0.20015461439E+03  0.00000000000E+00 0.  1.
          1   -1    0    0  501    0  0.00000000000E+00 -0.00000000000E+00 -0.17521416606E+04  0.17521416606E+04  0.00000000000E+00 0. -1.
         23    2    1    2    0    0 -0.14552929720E+03 -0.37867408903E+02 -0.18281304471E+02  0.17602612100E+03  0.89656411813E+02 0.  0.
        254    2    1    2    0    0  0.14552929720E+03  0.37867408903E+02 -0.15337057418E+04  0.17762701540E+04  0.88332872747E+03 0.  0.
         23    2    4    4    0    0  0.48211195694E+03  0.67357027496E+02 -0.11756255634E+04  0.12756410740E+04  0.90530526063E+02 0.  0.
         23    2    4    4    0    0 -0.33658265974E+03 -0.29489618593E+02 -0.35808017841E+03  0.50062908008E+03  0.90832467815E+02 0.  0.
          2    1    3    3  502    0 -0.90922695843E+01  0.23682382310E+02 -0.37729713180E+01  0.25646830421E+02  0.00000000000E+00 0. -1.
         -2    1    3    3    0  502 -0.13643702761E+03 -0.61549791214E+02 -0.14508333153E+02  0.15037929057E+03  0.00000000000E+00 0.  1.
         13    1    5    5    0    0  0.75085567907E+02  0.36844635873E+02 -0.26094740393E+03  0.27402357073E+03  0.00000000000E+00 0. -1.
        -13    1    5    5    0    0  0.40702638903E+03  0.30512391623E+02 -0.91467815944E+03  0.10016175032E+04  0.00000000000E+00 0.  1.
          1    1    6    6  503    0 -0.30458483869E+03 -0.53609742063E+02 -0.32539714629E+03  0.44892007219E+03  0.00000000000E+00 0.  1.
         -1    1    6    6    0  503 -0.31997821051E+02  0.24120123470E+02 -0.32683032119E+02  0.51709007887E+02  0.00000000000E+00 0. -1.
<mgrwt>
<rscale>  0 0.11843973E+04</rscale>
<asrwt>0</asrwt>
<pdfrwt beam="1">  1        1 0.26956026E+00 0.11843973E+04</pdfrwt>
<pdfrwt beam="2">  1       -1 0.30793017E-01 0.11843973E+04</pdfrwt>
<totfact> 0.42428495E+01</totfact>
</mgrwt>
</event>
<event>
12    3  0.4769008E-008  0.2998176E+04  0.7818608E-02  0.8244252E-01
          2   -1    0    0  501    0  0.00000000000E+00  0.00000000000E+00  0.32720083697E+04  0.32720083697E+04  0.00000000000E+00 0. -1.
         -2   -1    0    0    0  501 -0.00000000000E+00 -0.00000000000E+00 -0.68681503491E+03  0.68681503491E+03  0.00000000000E+00 0.  1.
         23    2    1    2    0    0 -0.76418917633E+03 -0.10806383714E+04  0.15971680840E+04  0.20762360036E+04  0.89697642241E+02 0.  0.
        254    2    1    2    0    0  0.76418917633E+03  0.10806383714E+04  0.98802525077E+03  0.18825874010E+04  0.90342517089E+03 0.  0.
         23    2    4    4    0    0  0.19098695804E+03  0.56292985820E+03 -0.28569825648E+02  0.60207659993E+03  0.91180885307E+02 0.  0.
         23    2    4    4    0    0  0.57320221829E+03  0.51770851319E+03  0.10165950764E+04  0.12805108011E+04  0.98282626372E+02 0.  0.
          2    1    3    3  502    0 -0.18891414778E+03 -0.29727544282E+03  0.37046898645E+03  0.51118344463E+03  0.00000000000E+00 0. -1.
         -2    1    3    3    0  502 -0.57527502855E+03 -0.78336292857E+03  0.12266990975E+04  0.15650525589E+04  0.00000000000E+00 0.  1.
         13    1    5    5    0    0  0.11659574575E+03  0.27803010994E+03  0.26012115999E+02  0.30260855926E+03  0.00000000000E+00 0. -1.
        -13    1    5    5    0    0  0.74391212295E+02  0.28489974826E+03 -0.54581941647E+02  0.29946804067E+03  0.00000000000E+00 0.  1.
          3    1    6    6  503    0  0.53626566739E+02  0.21706765907E+02  0.51625450377E+02  0.77538245228E+02  0.00000000000E+00 0. -1.
         -3    1    6    6    0  503  0.51957565155E+03  0.49600174729E+03  0.96496962605E+03  0.12029725559E+04  0.00000000000E+00 0.  1.
<mgrwt>
<rscale>  0 0.29981758E+04</rscale>
<asrwt>0</asrwt>
<pdfrwt beam="1">  1        2 0.50338589E+00 0.29981758E+04</pdfrwt>
<pdfrwt beam="2">  1       -2 0.10566385E+00 0.29981758E+04</pdfrwt>
<totfact> 0.72017413E-01</totfact>
</mgrwt>
</event>
<event>
12    3  0.4769008E-008  0.1261673E+04  0.7818608E-02  0.9060523E-01
         -2   -1    0    0    0  501 -0.00000000000E+00  0.00000000000E+00  0.11091508611E+04  0.11091508611E+04  0.00000000000E+00 0.  1.
          2   -1    0    0  501    0  0.00000000000E+00 -0.00000000000E+00 -0.35879248504E+03  0.35879248504E+03  0.00000000000E+00 0. -1.
         23    2    1    2    0    0 -0.33089773984E+02 -0.43429147628E+02 -0.15763821804E+03  0.19023481204E+03  0.91424569553E+02 0.  0.
        254    2    1    2    0    0  0.33089773984E+02  0.43429147628E+02  0.90799659408E+03  0.12777085341E+04  0.89727379275E+03 0.  0.
         23    2    4    4    0    0 -0.23550825256E+03  0.34941813820E+03  0.25224341435E+03  0.50050389319E+03  0.96541362583E+02 0.  0.
         23    2    4    4    0    0  0.26859802655E+03 -0.30598899057E+03  0.65575317973E+03  0.77720464088E+03  0.90888166728E+02 0.  0.
          1    1    3    3  502    0 -0.48961976143E+02 -0.62799954544E+02 -0.13354134863E+03  0.15548119241E+03  0.00000000000E+00 0. -1.
         -1    1    3    3    0  502  0.15872202160E+02  0.19370806916E+02 -0.24096869411E+02  0.34753619630E+02  0.00000000000E+00 0.  1.
         13    1    5    5    0    0 -0.40215337553E+02  0.11287817763E+02  0.22197759206E+02  0.47301466342E+02  0.00000000000E+00 0. -1.
        -13    1    5    5    0    0 -0.19529291501E+03  0.33813032044E+03  0.23004565514E+03  0.45320242685E+03  0.00000000000E+00 0.  1.
          2    1    6    6  503    0  0.34435098845E+02 -0.38995370645E+01  0.46732920985E+02  0.58180308744E+02  0.00000000000E+00 0. -1.
         -2    1    6    6    0  503  0.23416292770E+03 -0.30208945351E+03  0.60902025875E+03  0.71902433213E+03  0.00000000000E+00 0.  1.
<mgrwt>
<rscale>  0 0.12616735E+04</rscale>
<asrwt>0</asrwt>
<pdfrwt beam="1">  1        2 0.55198844E-01 0.12616735E+04</pdfrwt>
<pdfrwt beam="2">  1       -2 0.17063859E+00 0.12616735E+04</pdfrwt>
<totfact> 0.18605698E+01</totfact>
</mgrwt>
</event>
<event>
12    3  0.4769008E-008  0.2084846E+04  0.7818608E-02  0.8567948E-01
         -2   -1    0    0    0  501 -0.00000000000E+00  0.00000000000E+00  0.37914531440E+03  0.37914531440E+03  0.00000000000E+00 0.  1.
          2   -1    0    0  501    0  0.00000000000E+00 -0.00000000000E+00 -0.28660408889E+04  0.28660408889E+04  0.00000000000E+00 0. -1.
         23    2    1    2    0    0 -0.13824664984E+03  0.52838528138E+03 -0.96764294823E+01  0.55365647026E+03  0.90214810286E+02 0.  0.
        254    2    1    2    0    0  0.13824664984E+03 -0.52838528138E+03 -0.24772191450E+04  0.26915297330E+04  0.89967464656E+03 0.  0.
         23    2    4    4    0    0 -0.22224574081E+03  0.11573597972E+03 -0.36482744446E+03  0.45197762887E+03  0.91633653521E+02 0.  0.
         23    2    4    4    0    0  0.36049239065E+03 -0.64412126110E+03 -0.21123917005E+04  0.22395521042E+04  0.92455221784E+02 0.  0.
          3    1    3    3  502    0 -0.60961196492E+02  0.37196208077E+03  0.16207115760E+02  0.37727274963E+03  0.00000000000E+00 0. -1.
         -3    1    3    3    0  502 -0.77285453350E+02  0.15642320061E+03 -0.25883545242E+02  0.17638372063E+03  0.00000000000E+00 0.  1.
         13    1    5    5    0    0  0.69227072653E+01  0.10577995650E+02 -0.32135044072E+02  0.34532288157E+02  0.00000000000E+00 0.  1.
        -13    1    5    5    0    0 -0.22916844807E+03  0.10515798407E+03 -0.33269240039E+03  0.41744534071E+03  0.00000000000E+00 0. -1.
          3    1    6    6  503    0  0.22381072200E+03 -0.43915785348E+03 -0.15219615287E+04  0.15997867841E+04  0.00000000000E+00 0. -1.
         -3    1    6    6    0  503  0.13668166866E+03 -0.20496340762E+03 -0.59043017180E+03  0.63976532009E+03  0.00000000000E+00 0.  1.
<mgrwt>
<rscale>  0 0.20848463E+04</rscale>
<asrwt>0</asrwt>
<pdfrwt beam="1">  1        2 0.44092939E+00 0.20848463E+04</pdfrwt>
<pdfrwt beam="2">  1       -2 0.58330045E-01 0.20848463E+04</pdfrwt>
<totfact> 0.53537820E+00</totfact>
</mgrwt>
</event>
<event>
12    3  0.4769008E-008  0.1938182E+04  0.7818608E-02  0.8636081E-01
          2   -1    0    0  501    0  0.00000000000E+00  0.00000000000E+00  0.10687685368E+04  0.10687685368E+04  0.00000000000E+00 0. -1.
         -2   -1    0    0    0  501 -0.00000000000E+00 -0.00000000000E+00 -0.87871008897E+03  0.87871008897E+03  0.00000000000E+00 0.  1.
         23    2    1    2    0    0 -0.47976568973E+03  0.25154832689E+03 -0.46115761164E+03  0.71727902766E+03  0.91494168904E+02 0.  0.
        254    2    1    2    0    0  0.47976568973E+03 -0.25154832689E+03  0.65121605945E+03  0.12301995981E+04  0.89210818698E+03 0.  0.
         23    2    4    4    0    0  0.15505926740E+03 -0.55013540060E+03  0.46003944308E+03  0.73935744911E+03  0.91218490252E+02 0.  0.
         23    2    4    4    0    0  0.32470642233E+03  0.29858707371E+03  0.19117661637E+03  0.49084214899E+03  0.98939452655E+02 0.  0.
          4    1    3    3  502    0 -0.39083667340E+02  0.30607309594E+02 -0.13643370729E+02  0.51482832267E+02  0.00000000000E+00 0. -1.
         -4    1    3    3    0  502 -0.44068202239E+03  0.22094101730E+03 -0.44751424091E+03  0.66579619539E+03  0.00000000000E+00 0.  1.
         13    1    5    5    0    0 -0.11916263794E+02 -0.23859434768E+02  0.20635222291E+02  0.33720651970E+02  0.00000000000E+00 0. -1.
        -13    1    5    5    0    0  0.16697553119E+03 -0.52627596583E+03  0.43940422079E+03  0.70563679714E+03  0.00000000000E+00 0.  1.
          3    1    6    6  503    0  0.82435332120E+02  0.13960692826E+03  0.62021387236E+02  0.17358666675E+03  0.00000000000E+00 0. -1.
         -3    1    6    6    0  503  0.24227109021E+03  0.15898014545E+03  0.12915522913E+03  0.31725548224E+03  0.00000000000E+00 0.  1.
<mgrwt>
<rscale>  0 0.19381823E+04</rscale>
<asrwt>0</asrwt>
<pdfrwt beam="1">  1        2 0.16442593E+00 0.19381823E+04</pdfrwt>
<pdfrwt beam="2">  1       -2 0.13518617E+00 0.19381823E+04</pdfrwt>
<totfact> 0.83627171E+00</totfact>
</mgrwt>
</event>
<event>
12    3  0.4769008E-008  0.1349234E+04  0.7818608E-02  0.8991408E-01
          2   -1    0    0  501    0  0.00000000000E+00  0.00000000000E+00  0.66944867183E+03  0.66944867183E+03  0.00000000000E+00 0. -1.
         -2   -1    0    0    0  501 -0.00000000000E+00 -0.00000000000E+00 -0.67982512371E+03  0.67982512371E+03  0.00000000000E+00 0.  1.
         23    2    1    2    0    0  0.32978550001E+03  0.12610327808E+03 -0.10368595805E+03  0.37917819412E+03  0.91459347460E+02 0.  0.
        254    2    1    2    0    0 -0.32978550001E+03 -0.12610327808E+03  0.93309506160E+02  0.97009560142E+03  0.89873149449E+03 0.  0.
         23    2    4    4    0    0 -0.23241102370E+03  0.15489412405E+03  0.42421360994E+03  0.51586873509E+03  0.90312188412E+02 0.  0.
         23    2    4    4    0    0 -0.97374476310E+02 -0.28099740213E+03 -0.33090410378E+03  0.45422686633E+03  0.91559770397E+02 0.  0.
          3    1    3    3  502    0  0.72826756338E+02  0.19245105535E+02 -0.62450536410E+02  0.97847738981E+02  0.00000000000E+00 0. -1.
         -3    1    3    3    0  502  0.25695874367E+03  0.10685817255E+03 -0.41235421638E+02  0.28133045514E+03  0.00000000000E+00 0.  1.
         13    1    5    5    0    0 -0.59886129790E+02  0.66231135849E+02  0.75924256060E+02  0.11720667453E+03  0.00000000000E+00 0. -1.
        -13    1    5    5    0    0 -0.17252489391E+03  0.88662988205E+02  0.34828935388E+03  0.39866206055E+03  0.00000000000E+00 0.  1.
          3    1    6    6  503    0  0.61553329299E+01 -0.65413464085E+02 -0.37316623264E+02  0.75560173232E+02  0.00000000000E+00 0. -1.
         -3    1    6    6    0  503 -0.10352980924E+03 -0.21558393805E+03 -0.29358748052E+03  0.37866669310E+03  0.00000000000E+00 0.  1.
<mgrwt>
<rscale>  0 0.13492339E+04</rscale>
<asrwt>0</asrwt>
<pdfrwt beam="1">  1        2 0.10299210E+00 0.13492339E+04</pdfrwt>
<pdfrwt beam="2">  1       -2 0.10458848E+00 0.13492339E+04</pdfrwt>
<totfact> 0.31421580E+01</totfact>
</mgrwt>
</event>
<event>
12    3  0.4769008E-008  0.2033682E+04  0.7818608E-02  0.8591033E-01
         -3   -1    0    0    0  501 -0.00000000000E+00  0.00000000000E+00  0.60192616396E+03  0.60192616396E+03  0.00000000000E+00 0.  1.
          3   -1    0    0  501    0  0.00000000000E+00 -0.00000000000E+00 -0.17177621985E+04  0.17177621985E+04  0.00000000000E+00 0. -1.
         23    2    1    2    0    0 -0.49214128098E+03 -0.56399849762E+03 -0.80947414099E+03  0.11055884961E+04  0.82341921259E+02 0.  0.
        254    2    1    2    0    0  0.49214128098E+03  0.56399849762E+03 -0.30636189350E+03  0.12140998663E+04  0.90547420165E+03 0.  0.
         23    2    4    4    0    0 -0.12288527820E+03  0.51710787811E+03 -0.22883089952E+03  0.58578552885E+03  0.90993164717E+02 0.  0.
         23    2    4    4    0    0  0.61502655918E+03  0.46890619502E+02 -0.77530993973E+02  0.62831433748E+03  0.91167170393E+02 0.  0.
          3    1    3    3  502    0 -0.14796368783E+03 -0.11550137249E+03 -0.20191344602E+03  0.27568616151E+03  0.00000000000E+00 0. -1.
         -3    1    3    3    0  502 -0.34417759315E+03 -0.44849712512E+03 -0.60756069497E+03  0.82990233458E+03  0.00000000000E+00 0.  1.
         13    1    5    5    0    0 -0.34980277989E+02  0.33702765585E+03 -0.14576122985E+03  0.36885986063E+03  0.00000000000E+00 0. -1.
        -13    1    5    5    0    0 -0.87905000209E+02  0.18008022226E+03 -0.83069669670E+02  0.21692566822E+03  0.00000000000E+00 0.  1.
          2    1    6    6  503    0  0.22347964996E+03 -0.21090680136E+02 -0.49887581637E+02  0.22994943256E+03  0.00000000000E+00 0. -1.
         -2    1    6    6    0  503  0.39154690922E+03  0.67981299638E+02 -0.27643412336E+02  0.39836490491E+03  0.00000000000E+00 0.  1.
<mgrwt>
<rscale>  0 0.20336824E+04</rscale>
<asrwt>0</asrwt>
<pdfrwt beam="1">  1        3 0.26427111E+00 0.20336824E+04</pdfrwt>
<pdfrwt beam="2">  1       -3 0.92604025E-01 0.20336824E+04</pdfrwt>
<totfact> 0.15487966E-01</totfact>
</mgrwt>
</event>
<event>
12    3  0.4769008E-008  0.2043032E+04  0.7818608E-02  0.8586762E-01
         -2   -1    0    0    0  501 -0.00000000000E+00  0.00000000000E+00  0.33903670098E+03  0.33903670098E+03  0.00000000000E+00 0.  1.
          2   -1    0    0  501    0  0.00000000000E+00 -0.00000000000E+00 -0.30778232811E+04  0.30778232811E+04  0.00000000000E+00 0. -1.
         23    2    1    2    0    0  0.63293793867E+03  0.33668082480E+03 -0.17582320494E+04  0.19009677330E+04  0.91290582219E+02 0.  0.
        254    2    1    2    0    0 -0.63293793867E+03 -0.33668082480E+03 -0.98055453069E+03  0.15158922490E+04  0.90690556899E+03 0.  0.
         23    2    4    4    0    0  0.16112140021E+03 -0.87079698553E+02  0.26057183391E+02  0.20656043568E+03  0.91898080910E+02 0.  0.
         23    2    4    4    0    0 -0.79405933888E+03 -0.24960112624E+03 -0.10066117141E+04  0.13093318134E+04  0.90838861068E+02 0.  0.
          3    1    3    3  502    0  0.57058325454E+03  0.27096105682E+03 -0.15592385185E+04  0.16823227699E+04  0.00000000000E+00 0. -1.
         -3    1    3    3    0  502  0.62354684132E+02  0.65719767976E+02 -0.19899353091E+03  0.21864496308E+03  0.00000000000E+00 0.  1.
         13    1    5    5    0    0  0.19439054585E+02 -0.61841646509E+01 -0.28040233089E+02  0.34675285251E+02  0.00000000000E+00 0. -1.
        -13    1    5    5    0    0  0.14168234562E+03 -0.80895533902E+02  0.54097416480E+02  0.17188515043E+03  0.00000000000E+00 0.  1.
          3    1    6    6  503    0 -0.36426015496E+03 -0.13575518862E+03 -0.40649499023E+03  0.56245276140E+03  0.00000000000E+00 0. -1.
         -3    1    6    6    0  503 -0.42979918392E+03 -0.11384593762E+03 -0.60011672386E+03  0.74687905197E+03  0.00000000000E+00 0.  1.
<mgrwt>
<rscale>  0 0.20430321E+04</rscale>
<asrwt>0</asrwt>
<pdfrwt beam="1">  1        2 0.47351128E+00 0.20430321E+04</pdfrwt>
<pdfrwt beam="2">  1       -2 0.52159492E-01 0.20430321E+04</pdfrwt>
<totfact> 0.50069533E+00</totfact>
</mgrwt>
</event>
<event>
12    3  0.4769008E-008  0.1181950E+04  0.7818608E-02  0.9128804E-01
          1   -1    0    0  501    0  0.00000000000E+00  0.00000000000E+00  0.24141027130E+03  0.24141027130E+03  0.00000000000E+00 0. -1.
         -1   -1    0    0    0  501 -0.00000000000E+00 -0.00000000000E+00 -0.14467125842E+04  0.14467125842E+04  0.00000000000E+00 0.  1.
         23    2    1    2    0    0 -0.97372921264E+02 -0.95269589926E+02 -0.51997048525E+03  0.54616832960E+03  0.96813006199E+02 0.  0.
        254    2    1    2    0    0  0.97372921264E+02  0.95269589926E+02 -0.68533182769E+03  0.11419545259E+04  0.90322901012E+03 0.  0.
         23    2    4    4    0    0  0.47987962945E+03  0.15471493614E+03 -0.33413361422E+03  0.61173522154E+03  0.91397696286E+02 0.  0.
         23    2    4    4    0    0 -0.38250670819E+03 -0.59445346215E+02 -0.35119821347E+03  0.53021930441E+03  0.89147039367E+02 0.  0.
          3    1    3    3  502    0 -0.94166508548E+02 -0.26596506668E+02 -0.32643425258E+03  0.34078442857E+03  0.00000000000E+00 0. -1.
         -3    1    3    3    0  502 -0.32064127162E+01 -0.68673083258E+02 -0.19353623266E+03  0.20538390103E+03  0.00000000000E+00 0.  1.
         13    1    5    5    0    0  0.41582949016E+03  0.10099091120E+03 -0.26567430580E+03  0.50368260422E+03  0.00000000000E+00 0. -1.
        -13    1    5    5    0    0  0.64050139291E+02  0.53724024938E+02 -0.68459308425E+02  0.10805261732E+03  0.00000000000E+00 0.  1.
          3    1    6    6  503    0 -0.25901568601E+02 -0.30499925741E+01 -0.63251469710E+02  0.68417411024E+02  0.00000000000E+00 0.  1.
         -3    1    6    6    0  503 -0.35660513959E+03 -0.56395353641E+02 -0.28794674376E+03  0.46180189339E+03  0.00000000000E+00 0. -1.
<mgrwt>
<rscale>  0 0.11819497E+04</rscale>
<asrwt>0</asrwt>
<pdfrwt beam="1">  1        1 0.37140043E-01 0.11819497E+04</pdfrwt>
<pdfrwt beam="2">  1       -1 0.22257116E+00 0.11819497E+04</pdfrwt>
<totfact> 0.12214778E+01</totfact>
</mgrwt>
</event>
<event>
12    3  0.4769008E-008  0.1976281E+04  0.7818608E-02  0.8617791E-01
         -2   -1    0    0    0  501 -0.00000000000E+00  0.00000000000E+00  0.46312730707E+03  0.46312730707E+03  0.00000000000E+00 0. -1.
          2   -1    0    0  501    0  0.00000000000E+00 -0.00000000000E+00 -0.21083221341E+04  0.21083221341E+04  0.00000000000E+00 0.  1.
         23    2    1    2    0    0 -0.54671162586E+03 -0.37601203913E+03 -0.11814465271E+04  0.13580284217E+04  0.90258752517E+02 0.  0.
        254    2    1    2    0    0  0.54671162586E+03  0.37601203913E+03 -0.46374829988E+03  0.12134210194E+04  0.90390786546E+03 0.  0.
         23    2    4    4    0    0  0.54169304403E+03 -0.71609452945E+02  0.11677368539E+02  0.55404500869E+03  0.90940876506E+02 0.  0.
         23    2    4    4    0    0  0.50185818278E+01  0.44762149207E+03 -0.47542566842E+03  0.65937601070E+03  0.91416469870E+02 0.  0.
          4    1    3    3  502    0 -0.33235098777E+02 -0.52054407262E+02 -0.91450764341E+02  0.11035159901E+03  0.00000000000E+00 0. -1.
         -4    1    3    3    0  502 -0.51347652708E+03 -0.32395763187E+03 -0.10899957628E+04  0.12476768227E+04  0.00000000000E+00 0.  1.
         13    1    5    5    0    0  0.29303739152E+03 -0.14523688600E+02  0.44734886491E+02  0.29678790479E+03  0.00000000000E+00 0.  1.
        -13    1    5    5    0    0  0.24865565251E+03 -0.57085764345E+02 -0.33057517952E+02  0.25725710391E+03  0.00000000000E+00 0. -1.
          1    1    6    6  503    0  0.28754039720E+02  0.37814518946E+03 -0.36208715622E+03  0.52433547258E+03  0.00000000000E+00 0. -1.
         -1    1    6    6    0  503 -0.23735457892E+02  0.69476302613E+02 -0.11333851220E+03  0.13504053812E+03  0.00000000000E+00 0.  1.
<mgrwt>
<rscale>  0 0.19762809E+04</rscale>
<asrwt>0</asrwt>
<pdfrwt beam="1">  1        2 0.32435725E+00 0.19762809E+04</pdfrwt>
<pdfrwt beam="2">  1       -2 0.71250356E-01 0.19762809E+04</pdfrwt>
<totfact> 0.96759892E+00</totfact>
</mgrwt>
</event>
<event>
12    3  0.4769008E-008  0.1654595E+04  0.7818608E-02  0.8787693E-01
         -2   -1    0    0    0  501 -0.00000000000E+00  0.00000000000E+00  0.20444843605E+04  0.20444843605E+04  0.00000000000E+00 0.  1.
          2   -1    0    0  501    0  0.00000000000E+00 -0.00000000000E+00 -0.33476485914E+03  0.33476485914E+03  0.00000000000E+00 0. -1.
         23    2    1    2    0    0  0.59719000854E+02  0.50826239622E+03  0.10658312221E+04  0.11859596044E+04  0.92773739794E+02 0.  0.
        254    2    1    2    0    0 -0.59719000854E+02 -0.50826239622E+03  0.64388827933E+03  0.11932896153E+04  0.86455246646E+03 0.  0.
         23    2    4    4    0    0  0.33283957065E+03  0.34996394930E+01  0.28819972607E+03  0.44981797444E+03  0.92101578459E+02 0.  0.
         23    2    4    4    0    0 -0.39255857150E+03 -0.51176203572E+03  0.35568855327E+03  0.74347164087E+03  0.10115888789E+03 0.  0.
          2    1    3    3  502    0 -0.15189975978E+01  0.47259503591E+02  0.50442390900E+02  0.69139010935E+02  0.00000000000E+00 0. -1.
         -2    1    3    3    0  502  0.61237998452E+02  0.46100289263E+03  0.10153888312E+04  0.11168205934E+04  0.00000000000E+00 0.  1.
         13    1    5    5    0    0  0.18546738883E+03 -0.33548060440E+02  0.12146381269E+03  0.22422551699E+03  0.00000000000E+00 0. -1.
        -13    1    5    5    0    0  0.14737218182E+03  0.37047699933E+02  0.16673591338E+03  0.22559245745E+03  0.00000000000E+00 0.  1.
          3    1    6    6  503    0 -0.60927911805E+02 -0.14447471354E+03  0.66507972705E+02  0.17031871219E+03  0.00000000000E+00 0. -1.
         -3    1    6    6    0  503 -0.33163065970E+03 -0.36728732217E+03  0.28918058056E+03  0.57315292868E+03  0.00000000000E+00 0.  1.
<mgrwt>
<rscale>  0 0.16545954E+04</rscale>
<asrwt>0</asrwt>
<pdfrwt beam="1">  1        2 0.51502287E-01 0.16545954E+04</pdfrwt>
<pdfrwt beam="2">  1       -2 0.31453605E+00 0.16545954E+04</pdfrwt>
<totfact> 0.24081095E+00</totfact>
</mgrwt>
</event>
<event>
12    3  0.4769008E-008  0.1688972E+04  0.7818608E-02  0.8767679E-01
         -1   -1    0    0    0  501 -0.00000000000E+00  0.00000000000E+00  0.68674294180E+03  0.68674294180E+03  0.00000000000E+00 0.  1.
          1   -1    0    0  501    0  0.00000000000E+00 -0.00000000000E+00 -0.10384620545E+04  0.10384620545E+04  0.00000000000E+00 0. -1.
         23    2    1    2    0    0 -0.15944260682E+03 -0.42810897996E+03  0.27254728636E+03  0.53955958863E+03  0.90240139587E+02 0.  0.
        254    2    1    2    0    0  0.15944260682E+03  0.42810897996E+03 -0.62426639908E+03  0.11856454077E+04  0.89852504260E+03 0.  0.
         23    2    4    4    0    0  0.29156884537E+03 -0.16150416604E+03 -0.56015900559E+02  0.35117072723E+03  0.95326341086E+02 0.  0.
         23    2    4    4    0    0 -0.13212623855E+03  0.58961314599E+03 -0.56825049852E+03  0.83447468047E+03  0.91314612395E+02 0.  0.
          1    1    3    3  502    0 -0.22205400449E+02 -0.12931986396E+03  0.11709785862E+03  0.17586533347E+03  0.00000000000E+00 0. -1.
         -1    1    3    3    0  502 -0.13723720638E+03 -0.29878911600E+03  0.15544942774E+03  0.36369425516E+03  0.00000000000E+00 0.  1.
         13    1    5    5    0    0  0.11022562930E+03 -0.11504511615E+03 -0.30862096307E+02  0.16228843796E+03  0.00000000000E+00 0.  1.
        -13    1    5    5    0    0  0.18134321607E+03 -0.46459049883E+02 -0.25153804252E+02  0.18888228927E+03  0.00000000000E+00 0. -1.
          1    1    6    6  503    0 -0.90062623300E+02  0.21343869465E+03 -0.19378288256E+03  0.30202509509E+03  0.00000000000E+00 0. -1.
         -1    1    6    6    0  503 -0.42063615248E+02  0.37617445134E+03 -0.37446761596E+03  0.53244958538E+03  0.00000000000E+00 0.  1.
<mgrwt>
<rscale>  0 0.16889719E+04</rscale>
<asrwt>0</asrwt>
<pdfrwt beam="1">  1        1 0.15976339E+00 0.16889719E+04</pdfrwt>
<pdfrwt beam="2">  1       -1 0.10565276E+00 0.16889719E+04</pdfrwt>
<totfact> 0.11291782E+01</totfact>
</mgrwt>
</event>
<event>
12    3  0.4769008E-008  0.1220312E+04  0.7818608E-02  0.9095261E-01
          2   -1    0    0  501    0  0.00000000000E+00  0.00000000000E+00  0.15748750523E+04  0.15748750523E+04  0.00000000000E+00 0. -1.
         -2   -1    0    0    0  501 -0.00000000000E+00 -0.00000000000E+00 -0.23639345426E+03  0.23639345426E+03  0.00000000000E+00 0.  1.
         23    2    1    2    0    0  0.29416170871E+02 -0.22169365915E+03  0.91887757220E+02  0.25861935750E+03  0.91799904846E+02 0.  0.
        254    2    1    2    0    0 -0.29416170871E+02  0.22169365915E+03  0.12465938408E+04  0.15526491490E+04  0.89817024359E+03 0.  0.
         23    2    4    4    0    0  0.26843509284E+03  0.45508026853E+03  0.70318646272E+03  0.88486208325E+03  0.96717398371E+02 0.  0.
         23    2    4    4    0    0 -0.29785126371E+03 -0.23338660937E+03  0.54340737807E+03  0.66778706578E+03  0.86390404297E+02 0.  0.
          3    1    3    3  502    0  0.40144215944E+02 -0.15563107911E+03  0.22635390721E+02  0.16231128049E+03  0.00000000000E+00 0. -1.
         -3    1    3    3    0  502 -0.10728045073E+02 -0.66062580040E+02  0.69252366499E+02  0.96308077015E+02  0.00000000000E+00 0.  1.
         13    1    5    5    0    0  0.24248501649E+03  0.41599769011E+03  0.67808252170E+03  0.83165435587E+03  0.00000000000E+00 0.  1.
        -13    1    5    5    0    0  0.25950076352E+02  0.39082578417E+02  0.25103941022E+02  0.53207727382E+02  0.00000000000E+00 0. -1.
          3    1    6    6  503    0 -0.38484247049E+02 -0.18886657709E+02  0.11664406251E+03  0.12427220297E+03  0.00000000000E+00 0. -1.
         -3    1    6    6    0  503 -0.25936701666E+03 -0.21449995166E+03  0.42676331556E+03  0.54351486282E+03  0.00000000000E+00 0.  1.
<mgrwt>
<rscale>  0 0.12203117E+04</rscale>
<asrwt>0</asrwt>
<pdfrwt beam="1">  1        2 0.24228846E+00 0.12203117E+04</pdfrwt>
<pdfrwt beam="2">  1       -2 0.36368225E-01 0.12203117E+04</pdfrwt>
<totfact> 0.80749061E+01</totfact>
</mgrwt>
</event>
<event>
12    3  0.4769008E-008  0.1727248E+04  0.7818608E-02  0.8745975E-01
         -1   -1    0    0    0  501 -0.00000000000E+00  0.00000000000E+00  0.13469080827E+04  0.13469080827E+04  0.00000000000E+00 0.  1.
          1   -1    0    0  501    0  0.00000000000E+00 -0.00000000000E+00 -0.55374676302E+03  0.55374676302E+03  0.00000000000E+00 0. -1.
         23    2    1    2    0    0 -0.37138249406E+02 -0.16816163586E+03 -0.38097364610E+03  0.42780315344E+03  0.90647855605E+02 0.  0.
        254    2    1    2    0    0  0.37138249406E+02  0.16816163586E+03  0.11741349658E+04  0.14728516923E+04  0.87237698515E+03 0.  0.
         23    2    4    4    0    0  0.35308801540E+03  0.94008415803E+02  0.16564832369E+03  0.40955742703E+03  0.82396541389E+02 0.  0.
         23    2    4    4    0    0 -0.31594976599E+03  0.74153220053E+02  0.10084866421E+04  0.10632942652E+04  0.90699683281E+02 0.  0.
          1    1    3    3  502    0 -0.38518865304E+02 -0.17830051692E+03 -0.37145465799E+03  0.41382766976E+03  0.00000000000E+00 0. -1.
         -1    1    3    3    0  502  0.13806158981E+01  0.10138881060E+02 -0.95189881167E+01  0.13975483683E+02  0.00000000000E+00 0.  1.
         13    1    5    5    0    0  0.95377395459E+02  0.60804833219E+02  0.33057657204E+02  0.11784262390E+03  0.00000000000E+00 0.  1.
        -13    1    5    5    0    0  0.25771061994E+03  0.33203582584E+02  0.13259066649E+03  0.29171480313E+03  0.00000000000E+00 0. -1.
          4    1    6    6  503    0 -0.28871617420E+03  0.38816500563E+02  0.90074375172E+03  0.94668001786E+03  0.00000000000E+00 0. -1.
         -4    1    6    6    0  503 -0.27233591798E+02  0.35336719490E+02  0.10774289036E+03  0.11661424737E+03  0.00000000000E+00 0.  1.
<mgrwt>
<rscale>  0 0.17272475E+04</rscale>
<asrwt>0</asrwt>
<pdfrwt beam="1">  1        1 0.85191810E-01 0.17272475E+04</pdfrwt>
<pdfrwt beam="2">  1       -1 0.20721663E+00 0.17272475E+04</pdfrwt>
<totfact> 0.48975811E+00</totfact>
</mgrwt>
</event>
<event>
12    3  0.4769008E-008  0.2056238E+04  0.7818608E-02  0.8580770E-01
          1   -1    0    0  501    0  0.00000000000E+00  0.00000000000E+00  0.54312330344E+03  0.54312330344E+03  0.00000000000E+00 0. -1.
         -1   -1    0    0    0  501 -0.00000000000E+00 -0.00000000000E+00 -0.19462038475E+04  0.19462038475E+04  0.00000000000E+00 0.  1.
         23    2    1    2    0    0  0.28822331784E+03  0.37788112565E+03 -0.13915463519E+04  0.14732506622E+04  0.90550749144E+02 0.  0.
        254    2    1    2    0    0 -0.28822331784E+03 -0.37788112565E+03 -0.11534192158E+02  0.10160764887E+04  0.89800421338E+03 0.  0.
         23    2    4    4    0    0  0.20937820797E+03  0.15493247043E+03  0.46015198994E+02  0.27944618815E+03  0.90163568959E+02 0.  0.
         23    2    4    4    0    0 -0.49760152581E+03 -0.53281359608E+03 -0.57549391151E+02  0.73663030056E+03  0.88400569185E+02 0.  0.
          1    1    3    3  502    0  0.63024093123E+02  0.14008192171E+03 -0.37472168543E+03  0.40498311401E+03  0.00000000000E+00 0. -1.
         -1    1    3    3    0  502  0.22519922472E+03  0.23779920394E+03 -0.10168246665E+04  0.10682675482E+04  0.00000000000E+00 0.  1.
         13    1    5    5    0    0  0.44816231156E+02 -0.38299116063E+01 -0.47109408582E+01  0.45225609578E+02  0.00000000000E+00 0. -1.
        -13    1    5    5    0    0  0.16456197681E+03  0.15876238204E+03  0.50726139852E+02  0.23422057857E+03  0.00000000000E+00 0.  1.
          1    1    6    6  503    0 -0.40352506400E+02 -0.61028015592E+02  0.17856876099E+02  0.75310102137E+02  0.00000000000E+00 0. -1.
         -1    1    6    6    0  503 -0.45724901941E+03 -0.47178558049E+03 -0.75406267251E+02  0.66132019843E+03  0.00000000000E+00 0.  1.
<mgrwt>
<rscale>  0 0.20562380E+04</rscale>
<asrwt>0</asrwt>
<pdfrwt beam="1">  1        1 0.83557432E-01 0.20562380E+04</pdfrwt>
<pdfrwt beam="2">  1       -1 0.29941597E+00 0.20562380E+04</pdfrwt>
<totfact> 0.12151036E+00</totfact>
</mgrwt>
</event>
<event>
12    3  0.4769008E-008  0.1681509E+04  0.7818608E-02  0.8771981E-01
         -2   -1    0    0    0  501 -0.00000000000E+00  0.00000000000E+00  0.44219676960E+03  0.44219676960E+03  0.00000000000E+00 0.  1.
          2   -1    0    0  501    0  0.00000000000E+00 -0.00000000000E+00 -0.15985369662E+04  0.15985369662E+04  0.00000000000E+00 0. -1.
         23    2    1    2    0    0  0.56811738255E+03  0.17869241510E+03 -0.49740808910E+03  0.78135793102E+03  0.91744589460E+02 0.  0.
        254    2    1    2    0    0 -0.56811738255E+03 -0.17869241510E+03 -0.65893210752E+03  0.12593758048E+04  0.89283120233E+03 0.  0.
         23    2    4    4    0    0 -0.70712791440E+03  0.64946335927E+02 -0.25647361137E+03  0.76063185673E+03  0.92380702945E+02 0.  0.
         23    2    4    4    0    0  0.13901053185E+03 -0.24363875103E+03 -0.40245849615E+03  0.49874394808E+03  0.89938399206E+02 0.  0.
          4    1    3    3  502    0  0.49929606054E+03  0.14198994025E+03 -0.46495455825E+03  0.69687907160E+03  0.00000000000E+00 0. -1.
         -4    1    3    3    0  502  0.68821322013E+02  0.36702474854E+02 -0.32453530853E+02  0.84478859420E+02  0.00000000000E+00 0.  1.
         13    1    5    5    0    0 -0.25125967975E+03  0.55870284990E+02 -0.12470842960E+03  0.28601592233E+03  0.00000000000E+00 0. -1.
        -13    1    5    5    0    0 -0.45586823465E+03  0.90760509373E+01 -0.13176518177E+03  0.47461593440E+03  0.00000000000E+00 0.  1.
          3    1    6    6  503    0  0.25481537684E+02 -0.52036661603E+02 -0.31196006520E+02  0.65805119378E+02  0.00000000000E+00 0. -1.
         -3    1    6    6    0  503  0.11352899417E+03 -0.19160208943E+03 -0.37126248963E+03  0.43293882870E+03  0.00000000000E+00 0.  1.
<mgrwt>
<rscale>  0 0.16815087E+04</rscale>
<asrwt>0</asrwt>
<pdfrwt beam="1">  1        2 0.24592876E+00 0.16815087E+04</pdfrwt>
<pdfrwt beam="2">  1       -2 0.68030272E-01 0.16815087E+04</pdfrwt>
<totfact> 0.21060400E+01</totfact>
</mgrwt>
</event>
<event>
12    3  0.4769008E-008  0.1966934E+04  0.7818608E-02  0.8622238E-01
         -2   -1    0    0    0  501 -0.00000000000E+00  0.00000000000E+00  0.11216981925E+04  0.11216981925E+04  0.00000000000E+00 0. -1.
          2   -1    0    0  501    0  0.00000000000E+00 -0.00000000000E+00 -0.86227063932E+03  0.86227063932E+03  0.00000000000E+00 0.  1.
         23    2    1    2    0    0  0.32631942829E+03  0.20908642644E+03 -0.56930682595E+03  0.69504370092E+03  0.93669531450E+02 0.  0.
        254    2    1    2    0    0 -0.32631942829E+03 -0.20908642644E+03  0.82873437918E+03  0.12889251309E+04  0.90792390594E+03 0.  0.
         23    2    4    4    0    0 -0.17063595665E+03  0.21085239277E+03  0.77848479231E+03  0.82924059197E+03  0.89588092243E+02 0.  0.
         23    2    4    4    0    0 -0.15568347163E+03 -0.41993881920E+03  0.50249586864E+02  0.45968453898E+03  0.90547772939E+02 0.  0.
          4    1    3    3  502    0  0.10490239416E+03  0.83088130963E+02 -0.27471447143E+03  0.30557517998E+03  0.00000000000E+00 0. -1.
         -4    1    3    3    0  502  0.22141703412E+03  0.12599829547E+03 -0.29459235452E+03  0.38946852094E+03  0.00000000000E+00 0.  1.
         13    1    5    5    0    0 -0.11908282706E+03  0.16768871877E+03  0.67660572491E+03  0.70717433005E+03  0.00000000000E+00 0. -1.
        -13    1    5    5    0    0 -0.51553129596E+02  0.43163674000E+02  0.10187906740E+03  0.12206626192E+03  0.00000000000E+00 0.  1.
          3    1    6    6  503    0 -0.16750040688E+03 -0.39347227942E+03  0.51127399213E+02  0.43068646592E+03  0.00000000000E+00 0. -1.
         -3    1    6    6    0  503  0.11816935245E+02 -0.26466539778E+02 -0.87781234935E+00  0.28998073056E+02  0.00000000000E+00 0.  1.
<mgrwt>
<rscale>  0 0.19669341E+04</rscale>
<asrwt>0</asrwt>
<pdfrwt beam="1">  1        2 0.13265702E+00 0.19669341E+04</pdfrwt>
<pdfrwt beam="2">  1       -2 0.17256895E+00 0.19669341E+04</pdfrwt>
<totfact> 0.59226811E+00</totfact>
</mgrwt>
</event>
<event>
12    3  0.4769008E-008  0.2005459E+04  0.7818608E-02  0.8604073E-01
         -2   -1    0    0    0  501 -0.00000000000E+00  0.00000000000E+00  0.48649150257E+04  0.48649150257E+04  0.00000000000E+00 0.  1.
          2   -1    0    0  501    0  0.00000000000E+00 -0.00000000000E+00 -0.20667701143E+03  0.20667701143E+03  0.00000000000E+00 0. -1.
         23    2    1    2    0    0  0.20969327575E+03  0.19001732846E+03 -0.21583718400E+02  0.29821351061E+03  0.91583764950E+02 0.  0.
        254    2    1    2    0    0 -0.20969327575E+03 -0.19001732846E+03  0.46798217327E+04  0.47733785265E+04  0.89684628157E+03 0.  0.
         23    2    4    4    0    0 -0.43158321745E+03 -0.37241301910E+03  0.21666000052E+04  0.22421652204E+04  0.90519405764E+02 0.  0.
         23    2    4    4    0    0  0.22188994171E+03  0.18239569064E+03  0.25132217275E+04  0.25312133061E+04  0.90851610951E+02 0.  0.
          4    1    3    3  502    0  0.14662787395E+03  0.13410735433E+03 -0.57110521061E+02  0.20675136643E+03  0.00000000000E+00 0. -1.
         -4    1    3    3    0  502  0.63065401801E+02  0.55909974128E+02  0.35526802661E+02  0.91462144183E+02  0.00000000000E+00 0.  1.
         13    1    5    5    0    0 -0.20251289463E+03 -0.15615580705E+03  0.80713315569E+03  0.84667587634E+03  0.00000000000E+00 0.  1.
        -13    1    5    5    0    0 -0.22907032282E+03 -0.21625721205E+03  0.13594668495E+04  0.13954893441E+04  0.00000000000E+00 0. -1.
          1    1    6    6  503    0  0.16475447272E+03  0.11354647898E+03  0.13752578586E+04  0.13897377511E+04  0.00000000000E+00 0. -1.
         -1    1    6    6    0  503  0.57135468988E+02  0.68849211667E+02  0.11379638689E+04  0.11414755550E+04  0.00000000000E+00 0.  1.
<mgrwt>
<rscale>  0 0.20054586E+04</rscale>
<asrwt>0</asrwt>
<pdfrwt beam="1">  1        2 0.31796467E-01 0.20054586E+04</pdfrwt>
<pdfrwt beam="2">  1       -2 0.74844838E+00 0.20054586E+04</pdfrwt>
<totfact> 0.22683844E-02</totfact>
</mgrwt>
</event>
<event>
12    3  0.4769008E-008  0.2742206E+04  0.7818608E-02  0.8321439E-01
          1   -1    0    0  501    0  0.00000000000E+00  0.00000000000E+00  0.15944604930E+04  0.15944604930E+04  0.00000000000E+00 0. -1.
         -1   -1    0    0    0  501 -0.00000000000E+00 -0.00000000000E+00 -0.11790339798E+04  0.11790339798E+04  0.00000000000E+00 0.  1.
         23    2    1    2    0    0 -0.24133993912E+03  0.89727405774E+03 -0.62109681884E+03  0.11212921089E+04  0.90493282909E+02 0.  0.
        254    2    1    2    0    0  0.24133993912E+03 -0.89727405774E+03  0.10365233320E+04  0.16522023638E+04  0.88996984898E+03 0.  0.
         23    2    4    4    0    0  0.17167447488E+03 -0.56934218357E+03  0.11396697177E+04  0.12887882186E+04  0.92224507349E+02 0.  0.
         23    2    4    4    0    0  0.69665464240E+02 -0.32793187418E+03 -0.10314638563E+03  0.36341414516E+03  0.95068780512E+02 0.  0.
          2    1    3    3  502    0 -0.96694938857E+02  0.29262481066E+03 -0.15992568318E+03  0.34721090875E+03  0.00000000000E+00 0. -1.
         -2    1    3    3    0  502 -0.14464500027E+03  0.60464924708E+03 -0.46117113566E+03  0.77408120018E+03  0.00000000000E+00 0.  1.
         13    1    5    5    0    0  0.73303330513E+02 -0.38210693948E+03  0.69891287826E+03  0.79991143438E+03  0.00000000000E+00 0. -1.
        -13    1    5    5    0    0  0.98371144371E+02 -0.18723524408E+03  0.44075683941E+03  0.48887678423E+03  0.00000000000E+00 0.  1.
          2    1    6    6  503    0  0.92960675802E+02 -0.23662365065E+03 -0.74234789255E+02  0.26484569702E+03  0.00000000000E+00 0. -1.
         -2    1    6    6    0  503 -0.23295211562E+02 -0.91308223521E+02 -0.28911596373E+02  0.98568448142E+02  0.00000000000E+00 0.  1.
<mgrwt>
<rscale>  0 0.27422058E+04</rscale>
<asrwt>0</asrwt>
<pdfrwt beam="1">  1        1 0.24530161E+00 0.27422058E+04</pdfrwt>
<pdfrwt beam="2">  1       -1 0.18138984E+00 0.27422058E+04</pdfrwt>
<totfact> 0.99612990E-01</totfact>
</mgrwt>
</event>
<event>
12    3  0.4769008E-008  0.1578897E+04  0.7818608E-02  0.8833619E-01
         -2   -1    0    0    0  501 -0.00000000000E+00  0.00000000000E+00  0.11513383594E+04  0.11513383594E+04  0.00000000000E+00 0. -1.
          2   -1    0    0  501    0  0.00000000000E+00 -0.00000000000E+00 -0.54130789522E+03  0.54130789522E+03  0.00000000000E+00 0.  1.
         23    2    1    2    0    0  0.15368140233E+03 -0.46399038627E+03  0.13660667669E+02  0.50226545340E+03  0.11479947677E+03 0.  0.
        254    2    1    2    0    0 -0.15368140233E+03  0.46399038627E+03  0.59636979648E+03  0.11903808012E+04  0.90688723981E+03 0.  0.
         23    2    4    4    0    0 -0.68346895356E+02  0.69992514571E+03  0.58758545141E+03  0.92133316913E+03  0.95034931126E+02 0.  0.
         23    2    4    4    0    0 -0.85334506972E+02 -0.23593475944E+03  0.87843450757E+01  0.26904763206E+03  0.96758848732E+02 0.  0.
          4    1    3    3  502    0  0.30403525870E+02 -0.16087292966E+02  0.15439586108E+02  0.37703530332E+02  0.00000000000E+00 0. -1.
         -4    1    3    3    0  502  0.12327787646E+03 -0.44790309330E+03 -0.17789184396E+01  0.46456192307E+03  0.00000000000E+00 0.  1.
         13    1    5    5    0    0 -0.51364066490E+02  0.62580387626E+03  0.55705201642E+03  0.83939008087E+03  0.00000000000E+00 0. -1.
        -13    1    5    5    0    0 -0.16982828866E+02  0.74121269454E+02  0.30533434985E+02  0.81943088262E+02  0.00000000000E+00 0.  1.
          4    1    6    6  503    0 -0.15784560130E+02 -0.94605229464E+02 -0.40337548029E+02  0.10405008199E+03  0.00000000000E+00 0.  1.
         -4    1    6    6    0  503 -0.69549946842E+02 -0.14132952998E+03  0.49121893105E+02  0.16499755008E+03  0.00000000000E+00 0. -1.
<mgrwt>
<rscale>  0 0.15788965E+04</rscale>
<asrwt>0</asrwt>
<pdfrwt beam="1">  1        2 0.83278138E-01 0.15788965E+04</pdfrwt>
<pdfrwt beam="2">  1       -2 0.17712898E+00 0.15788965E+04</pdfrwt>
<totfact> 0.10219301E+01</totfact>
</mgrwt>
</event>
<event>
12    3  0.4769008E-008  0.1195833E+04  0.7818608E-02  0.9116511E-01
         -1   -1    0    0    0  501 -0.00000000000E+00  0.00000000000E+00  0.24042163327E+03  0.24042163327E+03  0.00000000000E+00 0.  1.
          1   -1    0    0  501    0  0.00000000000E+00 -0.00000000000E+00 -0.14869891746E+04  0.14869891746E+04  0.00000000000E+00 0. -1.
         23    2    1    2    0    0  0.15367698063E+03 -0.11543241786E+03 -0.56821799431E+03  0.60689385291E+03  0.92234495560E+02 0.  0.
        254    2    1    2    0    0 -0.15367698063E+03  0.11543241786E+03 -0.67834954698E+03  0.11205169549E+04  0.87089544775E+03 0.  0.
         23    2    4    4    0    0 -0.26423960496E+03 -0.31586732167E+03 -0.43087966683E+03  0.60296374331E+03  0.91177051515E+02 0.  0.
         23    2    4    4    0    0  0.11056262433E+03  0.43129973953E+03 -0.24746988015E+03  0.51755321161E+03  0.91522817109E+02 0.  0.
          3    1    3    3  502    0  0.14963714473E+03 -0.66115370103E+02 -0.42780632176E+03  0.45801830333E+03  0.00000000000E+00 0. -1.
         -3    1    3    3    0  502  0.40398358956E+01 -0.49317047760E+02 -0.14041167255E+03  0.14887554958E+03  0.00000000000E+00 0.  1.
         13    1    5    5    0    0 -0.20187106840E+03 -0.27108948404E+03 -0.38964079032E+03  0.51581138229E+03  0.00000000000E+00 0. -1.
        -13    1    5    5    0    0 -0.62368536557E+02 -0.44777837627E+02 -0.41238876511E+02  0.87152361017E+02  0.00000000000E+00 0.  1.
          1    1    6    6  503    0  0.12550564661E+03  0.40435406649E+03 -0.22532854806E+03  0.47961112683E+03  0.00000000000E+00 0. -1.
         -1    1    6    6    0  503 -0.14943022276E+02  0.26945673047E+02 -0.22141332090E+02  0.37942084779E+02  0.00000000000E+00 0.  1.
<mgrwt>
<rscale>  0 0.11958334E+04</rscale>
<asrwt>0</asrwt>
<pdfrwt beam="1">  1        1 0.22876756E+00 0.11958334E+04</pdfrwt>
<pdfrwt beam="2">  1       -1 0.36987944E-01 0.11958334E+04</pdfrwt>
<totfact> 0.46436382E+01</totfact>
</mgrwt>
</event>
<event>
12    3  0.4769008E-008  0.3217455E+04  0.7818608E-02  0.8184223E-01
          2   -1    0    0  501    0  0.00000000000E+00  0.00000000000E+00  0.11791449119E+04  0.11791449119E+04  0.00000000000E+00 0. -1.
         -2   -1    0    0    0  501 -0.00000000000E+00 -0.00000000000E+00 -0.21948139215E+04  0.21948139215E+04  0.00000000000E+00 0.  1.
         23    2    1    2    0    0  0.46267829098E+03  0.13710094855E+04 -0.11234864805E+03  0.14541845937E+04  0.91062634660E+02 0.  0.
        254    2    1    2    0    0 -0.46267829098E+03 -0.13710094855E+04 -0.90332036161E+03  0.19197742397E+04  0.88079920839E+03 0.  0.
         23    2    4    4    0    0 -0.71163502579E+03 -0.10551415633E+04 -0.74454672276E+03  0.14775901406E+04  0.95784512355E+02 0.  0.
         23    2    4    4    0    0  0.24895673482E+03 -0.31586792222E+03 -0.15877363885E+03  0.44218409909E+03  0.92551115578E+02 0.  0.
          4    1    3    3  502    0  0.22010372109E+03  0.62353914779E+03 -0.67959480940E+01  0.66128125769E+03  0.00000000000E+00 0. -1.
         -4    1    3    3    0  502  0.24257456988E+03  0.74747033773E+03 -0.10555269996E+03  0.79290333598E+03  0.00000000000E+00 0.  1.
         13    1    5    5    0    0 -0.31783673046E+03 -0.45431470493E+03 -0.37847071563E+03  0.67131372765E+03  0.00000000000E+00 0.  1.
        -13    1    5    5    0    0 -0.39379829533E+03 -0.60082685837E+03 -0.36607600714E+03  0.80627641299E+03  0.00000000000E+00 0. -1.
          4    1    6    6  503    0  0.15919733804E+03 -0.15501886912E+03 -0.12488506761E+03  0.25489394330E+03  0.00000000000E+00 0. -1.
         -4    1    6    6    0  503  0.89759396777E+02 -0.16084905310E+03 -0.33888571244E+02  0.18729015578E+03  0.00000000000E+00 0.  1.
<mgrwt>
<rscale>  0 0.32174547E+04</rscale>
<asrwt>0</asrwt>
<pdfrwt beam="1">  1        2 0.18140691E+00 0.32174547E+04</pdfrwt>
<pdfrwt beam="2">  1       -2 0.33766368E+00 0.32174547E+04</pdfrwt>
<totfact> 0.30473989E-01</totfact>
</mgrwt>
</event>
<event>
12    3  0.4769008E-008  0.5082510E+04  0.7818608E-02  0.7815904E-01
         -2   -1    0    0    0  501 -0.00000000000E+00  0.00000000000E+00  0.23481121451E+04  0.23481121451E+04  0.00000000000E+00 0.  1.
          2   -1    0    0  501    0  0.00000000000E+00 -0.00000000000E+00 -0.27502842322E+04  0.27502842322E+04  0.00000000000E+00 0. -1.
         23    2    1    2    0    0  0.12881521669E+04 -0.20389857282E+03  0.18983535652E+04  0.23052443799E+04  0.97441056353E+02 0.  0.
        254    2    1    2    0    0 -0.12881521669E+04  0.20389857282E+03 -0.23005256523E+04  0.27931519973E+04  0.89909352673E+03 0.  0.
         23    2    4    4    0    0 -0.94002725314E+03  0.15250152535E+03 -0.79342290855E+03  0.12427866782E+04  0.89949229230E+02 0.  0.
         23    2    4    4    0    0 -0.34812491378E+03  0.51397047473E+02 -0.15071027438E+04  0.15503653191E+04  0.91876712081E+02 0.  0.
          4    1    3    3  502    0  0.51806869774E+03 -0.36754682793E+02  0.72500792383E+03  0.89184223487E+03  0.00000000000E+00 0. -1.
         -4    1    3    3    0  502  0.77008346918E+03 -0.16714389003E+03  0.11733456414E+04  0.14134021450E+04  0.00000000000E+00 0.  1.
         13    1    5    5    0    0 -0.52630046921E+03  0.76195981622E+02 -0.38575645318E+03  0.65696731477E+03  0.00000000000E+00 0. -1.
        -13    1    5    5    0    0 -0.41372678393E+03  0.76305543725E+02 -0.40766645537E+03  0.58581936344E+03  0.00000000000E+00 0.  1.
          3    1    6    6  503    0 -0.64210596218E+02 -0.13396512509E+02 -0.17716856186E+03  0.18892105898E+03  0.00000000000E+00 0. -1.
         -3    1    6    6    0  503 -0.28391431756E+03  0.64793559982E+02 -0.13299341819E+04  0.13614442601E+04  0.00000000000E+00 0.  1.
<mgrwt>
<rscale>  0 0.50825095E+04</rscale>
<asrwt>0</asrwt>
<pdfrwt beam="1">  1        2 0.42312065E+00 0.50825095E+04</pdfrwt>
<pdfrwt beam="2">  1       -2 0.36124802E+00 0.50825095E+04</pdfrwt>
<totfact> 0.23663858E-02</totfact>
</mgrwt>
</event>
<event>
12    3  0.4769008E-008  0.1158539E+04  0.7818608E-02  0.9149942E-01
          1   -1    0    0  501    0  0.00000000000E+00  0.00000000000E+00  0.14659519464E+04  0.14659519464E+04  0.00000000000E+00 0. -1.
         -1   -1    0    0    0  501 -0.00000000000E+00 -0.00000000000E+00 -0.22889787980E+03  0.22889787980E+03  0.00000000000E+00 0.  1.
         23    2    1    2    0    0 -0.90061911003E+02  0.16701088207E+03  0.11086040427E+03  0.23823034487E+03  0.91977635536E+02 0.  0.
        254    2    1    2    0    0  0.90061911003E+02 -0.16701088207E+03  0.11261936624E+04  0.14566194813E+04  0.90411523920E+03 0.  0.
         23    2    4    4    0    0 -0.27435802598E+03  0.75223507654E+02  0.64443150871E+02  0.30464235549E+03  0.87881411810E+02 0.  0.
         23    2    4    4    0    0  0.36441993698E+03 -0.24223438972E+03  0.10617505115E+04  0.11519771259E+04  0.90872216981E+02 0.  0.
          1    1    3    3  502    0 -0.13287810104E+02  0.17783604237E+02 -0.16413303753E+02  0.27608314275E+02  0.00000000000E+00 0. -1.
         -1    1    3    3    0  502 -0.76774100899E+02  0.14922727783E+03  0.12727370802E+03  0.21062203059E+03  0.00000000000E+00 0.  1.
         13    1    5    5    0    0 -0.25959547970E+03  0.89409903841E+02  0.70162633874E+02  0.28338443708E+03  0.00000000000E+00 0.  1.
        -13    1    5    5    0    0 -0.14762546277E+02 -0.14186396187E+02 -0.57194830035E+01  0.21257918411E+02  0.00000000000E+00 0. -1.
          1    1    6    6  503    0  0.93570740574E+02 -0.89922707652E+02  0.40785303503E+03  0.42800195681E+03  0.00000000000E+00 0. -1.
         -1    1    6    6    0  503  0.27084919641E+03 -0.15231168207E+03  0.65389747645E+03  0.72397516905E+03  0.00000000000E+00 0.  1.
<mgrwt>
<rscale>  0 0.11585392E+04</rscale>
<asrwt>0</asrwt>
<pdfrwt beam="1">  1        1 0.22553106E+00 0.11585392E+04</pdfrwt>
<pdfrwt beam="2">  1       -1 0.35215059E-01 0.11585392E+04</pdfrwt>
<totfact> 0.52609724E+01</totfact>
</mgrwt>
</event>
<event>
12    3  0.4769008E-008  0.1478624E+04  0.7818608E-02  0.8898794E-01
         -1   -1    0    0    0  501 -0.00000000000E+00  0.00000000000E+00  0.16835533374E+04  0.16835533374E+04  0.00000000000E+00 0.  1.
          1   -1    0    0  501    0  0.00000000000E+00 -0.00000000000E+00 -0.32465979962E+03  0.32465979962E+03  0.00000000000E+00 0. -1.
         23    2    1    2    0    0 -0.30055371544E+01  0.18735119078E+03  0.99383202907E+03  0.10150660764E+04  0.86876552951E+02 0.  0.
        254    2    1    2    0    0  0.30055371544E+01 -0.18735119078E+03  0.36506150872E+03  0.99314706066E+03  0.90441233793E+03 0.  0.
         23    2    4    4    0    0  0.19401106660E+03  0.30416672465E+03  0.62874020752E+02  0.37757231368E+03  0.91923986109E+02 0.  0.
         23    2    4    4    0    0 -0.19100552944E+03 -0.49151791543E+03  0.30218748797E+03  0.61557474698E+03  0.97683252234E+02 0.  0.
          3    1    3    3  502    0  0.32772192462E+02  0.45263025807E+02  0.37395053440E+03  0.37810284353E+03  0.00000000000E+00 0. -1.
         -3    1    3    3    0  502 -0.35777729617E+02  0.14208816498E+03  0.61988149467E+03  0.63696323284E+03  0.00000000000E+00 0.  1.
         13    1    5    5    0    0  0.36653477369E+02  0.51641949546E+02 -0.23820362721E+02  0.67659279011E+02  0.00000000000E+00 0. -1.
        -13    1    5    5    0    0  0.15735758923E+03  0.25252477511E+03  0.86694383473E+02  0.30991303467E+03  0.00000000000E+00 0.  1.
          2    1    6    6  503    0 -0.12282682632E+03 -0.20304645629E+03  0.10459341175E+03  0.25933390534E+03  0.00000000000E+00 0. -1.
         -2    1    6    6    0  503 -0.68178703126E+02 -0.28847145914E+03  0.19759407622E+03  0.35624084164E+03  0.00000000000E+00 0.  1.
<mgrwt>
<rscale>  0 0.14786238E+04</rscale>
<asrwt>0</asrwt>
<pdfrwt beam="1">  1        1 0.49947662E-01 0.14786238E+04</pdfrwt>
<pdfrwt beam="2">  1       -1 0.25900820E+00 0.14786238E+04</pdfrwt>
<totfact> 0.46701491E+00</totfact>
</mgrwt>
</event>
<event>
12    3  0.4769008E-008  0.1559379E+04  0.7818608E-02  0.8845899E-01
         -1   -1    0    0    0  501 -0.00000000000E+00  0.00000000000E+00  0.92335568339E+03  0.92335568339E+03  0.00000000000E+00 0.  1.
          1   -1    0    0  501    0  0.00000000000E+00 -0.00000000000E+00 -0.65837662878E+03  0.65837662878E+03  0.00000000000E+00 0. -1.
         23    2    1    2    0    0 -0.32480344878E+03  0.73499192810E+02  0.47363319020E+03  0.58636369046E+03  0.92706887282E+02 0.  0.
        254    2    1    2    0    0  0.32480344878E+03 -0.73499192810E+02 -0.20865413559E+03  0.99536862171E+03  0.91450682507E+03 0.  0.
         23    2    4    4    0    0 -0.22286816510E+03 -0.24807559090E+03  0.64928086663E+02  0.35215241946E+03  0.92649621066E+02 0.  0.
         23    2    4    4    0    0  0.54767161388E+03  0.17457639809E+03 -0.27358222225E+03  0.64321620224E+03  0.91971381864E+02 0.  0.
          3    1    3    3  502    0 -0.22210085107E+02  0.15623363696E+02  0.84965887623E+01  0.28452932964E+02  0.00000000000E+00 0. -1.
         -3    1    3    3    0  502 -0.30259336367E+03  0.57875829114E+02  0.46513660144E+03  0.55791075749E+03  0.00000000000E+00 0.  1.
         13    1    5    5    0    0 -0.10247402809E+03 -0.17485143525E+03  0.17284377867E+02  0.20340280372E+03  0.00000000000E+00 0.  1.
        -13    1    5    5    0    0 -0.12039413701E+03 -0.73224155641E+02  0.47643708796E+02  0.14874961574E+03  0.00000000000E+00 0. -1.
          3    1    6    6  503    0  0.23109654839E+03  0.62930364028E+02 -0.16328233863E+03  0.28987405455E+03  0.00000000000E+00 0. -1.
         -3    1    6    6    0  503  0.31657506548E+03  0.11164603406E+03 -0.11029988363E+03  0.35334214769E+03  0.00000000000E+00 0.  1.
<mgrwt>
<rscale>  0 0.15593791E+04</rscale>
<asrwt>0</asrwt>
<pdfrwt beam="1">  1        1 0.10128871E+00 0.15593791E+04</pdfrwt>
<pdfrwt beam="2">  1       -1 0.14205472E+00 0.15593791E+04</pdfrwt>
<totfact> 0.11606859E+01</totfact>
</mgrwt>
</event>
<event>
12    3  0.4769008E-008  0.1295769E+04  0.7818608E-02  0.9032927E-01
          1   -1    0    0  501    0  0.00000000000E+00  0.00000000000E+00  0.10020743857E+04  0.10020743857E+04  0.00000000000E+00 0. -1.
         -1   -1    0    0    0  501 -0.00000000000E+00 -0.00000000000E+00 -0.41888516702E+03  0.41888516702E+03  0.00000000000E+00 0.  1.
         23    2    1    2    0    0  0.25706768634E+03 -0.16944752983E+03  0.26016879346E+03  0.41307129999E+03  0.90243210605E+02 0.  0.
        254    2    1    2    0    0 -0.25706768634E+03  0.16944752983E+03  0.32302042526E+03  0.10078882528E+04  0.90371470842E+03 0.  0.
         23    2    4    4    0    0  0.20267809813E+03  0.32046596056E+03 -0.45072688587E+02  0.39291959819E+03  0.92614361990E+02 0.  0.
         23    2    4    4    0    0 -0.45974578447E+03 -0.15101843073E+03  0.36809311385E+03  0.61496865458E+03  0.92310090985E+02 0.  0.
          3    1    3    3  502    0  0.24086628406E+03 -0.12668248685E+03  0.20119610052E+03  0.33844481106E+03  0.00000000000E+00 0. -1.
         -3    1    3    3    0  502  0.16201402277E+02 -0.42765042977E+02  0.58972692941E+02  0.74626488925E+02  0.00000000000E+00 0.  1.
         13    1    5    5    0    0  0.12164141760E+03  0.21936103314E+03 -0.71197308237E+02  0.26073924529E+03  0.00000000000E+00 0. -1.
        -13    1    5    5    0    0  0.81036680537E+02  0.10110492742E+03  0.26124619651E+02  0.13218035290E+03  0.00000000000E+00 0.  1.
          3    1    6    6  503    0 -0.24318624019E+03 -0.11770138253E+03  0.16733693809E+03  0.31779681200E+03  0.00000000000E+00 0.  1.
         -3    1    6    6    0  503 -0.21655954428E+03 -0.33317048204E+02  0.20075617576E+03  0.29717184258E+03  0.00000000000E+00 0. -1.
<mgrwt>
<rscale>  0 0.12957686E+04</rscale>
<asrwt>0</asrwt>
<pdfrwt beam="1">  1        1 0.15416529E+00 0.12957686E+04</pdfrwt>
<pdfrwt beam="2">  1       -1 0.64443872E-01 0.12957686E+04</pdfrwt>
<totfact> 0.36178486E+01</totfact>
</mgrwt>
</event>
<event>
12    3  0.4769008E-008  0.1215725E+04  0.7818608E-02  0.9099203E-01
         -2   -1    0    0    0  501 -0.00000000000E+00  0.00000000000E+00  0.38893818738E+04  0.38893818738E+04  0.00000000000E+00 0.  1.
          2   -1    0    0  501    0  0.00000000000E+00 -0.00000000000E+00 -0.95001430692E+02  0.95001430692E+02  0.00000000000E+00 0. -1.
         23    2    1    2    0    0  0.19457102043E+02  0.16274042837E+03  0.13396679187E+04  0.13529133107E+04  0.93815073209E+02 0.  0.
        254    2    1    2    0    0 -0.19457102043E+02 -0.16274042837E+03  0.24547125244E+04  0.26314699938E+04  0.93389385105E+03 0.  0.
         23    2    4    4    0    0 -0.10366922505E+03 -0.41901047878E+03  0.22077576788E+04  0.22514633437E+04  0.92607398303E+02 0.  0.
         23    2    4    4    0    0  0.84212123010E+02  0.25627005041E+03  0.24695484561E+03  0.38000665011E+03  0.10321016401E+03 0.  0.
          3    1    3    3  502    0  0.20156508311E+02  0.52115420818E+02  0.19313954430E+03  0.20106015390E+03  0.00000000000E+00 0. -1.
         -3    1    3    3    0  502 -0.69940626811E+00  0.11062500755E+03  0.11465283744E+04  0.11518531568E+04  0.00000000000E+00 0.  1.
         13    1    5    5    0    0 -0.90879099979E+01 -0.72039374463E+02  0.57513548743E+03  0.57970086294E+03  0.00000000000E+00 0.  1.
        -13    1    5    5    0    0 -0.94581315055E+02 -0.34697110432E+03  0.16326221914E+04  0.16717624808E+04  0.00000000000E+00 0. -1.
          1    1    6    6  503    0  0.94833430373E+02  0.22821534894E+03  0.24783349771E+03  0.34999581083E+03  0.00000000000E+00 0. -1.
         -1    1    6    6    0  503 -0.10621307363E+02  0.28054701477E+02 -0.87865210033E+00  0.30010839284E+02  0.00000000000E+00 0.  1.
<mgrwt>
<rscale>  0 0.12157250E+04</rscale>
<asrwt>0</asrwt>
<pdfrwt beam="1">  1        2 0.14615608E-01 0.12157250E+04</pdfrwt>
<pdfrwt beam="2">  1       -2 0.59836632E+00 0.12157250E+04</pdfrwt>
<totfact> 0.20801174E-01</totfact>
</mgrwt>
</event>
<event>
12    3  0.4769008E-008  0.1123443E+04  0.7818608E-02  0.9182639E-01
          1   -1    0    0  501    0  0.00000000000E+00  0.00000000000E+00  0.92107064425E+03  0.92107064425E+03  0.00000000000E+00 0. -1.
         -1   -1    0    0    0  501 -0.00000000000E+00 -0.00000000000E+00 -0.34256973883E+03  0.34256973883E+03  0.00000000000E+00 0.  1.
         23    2    1    2    0    0 -0.86180072556E+02  0.55964270974E+02  0.26019870286E+03  0.30151973720E+03  0.11248014232E+03 0.  0.
        254    2    1    2    0    0  0.86180072556E+02 -0.55964270974E+02  0.31830220256E+03  0.96212064588E+03  0.90210910678E+03 0.  0.
         23    2    4    4    0    0  0.33290165601E+02  0.35887262492E+03 -0.77124104377E+02  0.37896180484E+03  0.88125626270E+02 0.  0.
         23    2    4    4    0    0  0.52889906956E+02 -0.41483689589E+03  0.39542630693E+03  0.58315884104E+03  0.93942946600E+02 0.  0.
          3    1    3    3  502    0 -0.65159667998E+02 -0.22783844156E+02  0.96432935226E+02  0.11859256673E+03  0.00000000000E+00 0. -1.
         -3    1    3    3    0  502 -0.21020404558E+02  0.78748115130E+02  0.16376576764E+03  0.18292717046E+03  0.00000000000E+00 0.  1.
         13    1    5    5    0    0  0.63697034441E+02  0.23485113198E+03 -0.50841283569E+02  0.24859043124E+03  0.00000000000E+00 0. -1.
        -13    1    5    5    0    0 -0.30406868840E+02  0.12402149294E+03 -0.26282820808E+02  0.13037137360E+03  0.00000000000E+00 0.  1.
          2    1    6    6  503    0  0.66951990548E+02 -0.32317855993E+03  0.34565010068E+03  0.47791311213E+03  0.00000000000E+00 0. -1.
         -2    1    6    6    0  503 -0.14062083592E+02 -0.91658335963E+02  0.49776206248E+02  0.10524572892E+03  0.00000000000E+00 0.  1.
<mgrwt>
<rscale>  0 0.11234428E+04</rscale>
<asrwt>0</asrwt>
<pdfrwt beam="1">  1        1 0.14170317E+00 0.11234428E+04</pdfrwt>
<pdfrwt beam="2">  1       -1 0.52703037E-01 0.11234428E+04</pdfrwt>
<totfact> 0.63127810E+01</totfact>
</mgrwt>
</event>
<event>
12    3  0.4769008E-008  0.1493123E+04  0.7818608E-02  0.8889039E-01
          2   -1    0    0  501    0  0.00000000000E+00  0.00000000000E+00  0.94148576079E+03  0.94148576079E+03  0.00000000000E+00 0. -1.
         -2   -1    0    0    0  501 -0.00000000000E+00 -0.00000000000E+00 -0.59199410016E+03  0.59199410016E+03  0.00000000000E+00 0.  1.
         23    2    1    2    0    0 -0.79358894293E+02  0.38955406431E+03  0.36831741200E+03  0.54940327003E+03  0.90199966811E+02 0.  0.
        254    2    1    2    0    0  0.79358894293E+02 -0.38955406431E+03 -0.18825751371E+02  0.98407659092E+03  0.90000118042E+03 0.  0.
         23    2    4    4    0    0 -0.11422004179E+03 -0.74748156763E+02 -0.40807907774E+03  0.43999835213E+03  0.91850483414E+02 0.  0.
         23    2    4    4    0    0  0.19357893608E+03 -0.31480590754E+03  0.38925332636E+03  0.54407823879E+03  0.89036025992E+02 0.  0.
          3    1    3    3  502    0 -0.63838904244E+02  0.16124247586E+03  0.11530187977E+03  0.20825240741E+03  0.00000000000E+00 0. -1.
         -3    1    3    3    0  502 -0.15519990049E+02  0.22831158845E+03  0.25301553223E+03  0.34115086261E+03  0.00000000000E+00 0.  1.
         13    1    5    5    0    0 -0.91276256346E+02 -0.76455412475E+02 -0.39698481511E+03  0.41445594277E+03  0.00000000000E+00 0.  1.
        -13    1    5    5    0    0 -0.22943785442E+02  0.17072557128E+01 -0.11094262623E+02  0.25542409355E+02  0.00000000000E+00 0. -1.
          3    1    6    6  503    0  0.88949356433E+02 -0.68888452925E+02  0.10438323257E+03  0.15347138560E+03  0.00000000000E+00 0. -1.
         -3    1    6    6    0  503  0.10462957965E+03 -0.24591745462E+03  0.28487009379E+03  0.39060685319E+03  0.00000000000E+00 0.  1.
<mgrwt>
<rscale>  0 0.14931229E+04</rscale>
<asrwt>0</asrwt>
<pdfrwt beam="1">  1        2 0.14484396E+00 0.14931229E+04</pdfrwt>
<pdfrwt beam="2">  1       -2 0.91076016E-01 0.14931229E+04</pdfrwt>
<totfact> 0.27343480E+01</totfact>
</mgrwt>
</event>
<event>
12    3  0.4769008E-008  0.3386190E+04  0.7818608E-02  0.8141304E-01
          2   -1    0    0  501    0  0.00000000000E+00  0.00000000000E+00  0.10269051127E+04  0.10269051127E+04  0.00000000000E+00 0. -1.
         -2   -1    0    0    0  501 -0.00000000000E+00 -0.00000000000E+00 -0.27914662966E+04  0.27914662966E+04  0.00000000000E+00 0.  1.
         23    2    1    2    0    0  0.69891981486E+03 -0.13657308377E+04 -0.12381253793E+04  0.19732816093E+04  0.84712609634E+02 0.  0.
        254    2    1    2    0    0 -0.69891981486E+03  0.13657308377E+04 -0.52643580465E+03  0.18450898001E+04  0.87949535831E+03 0.  0.
         23    2    4    4    0    0 -0.53793861470E+03  0.68173663889E+03 -0.69568172135E+03  0.11162491177E+04  0.88860774892E+02 0.  0.
         23    2    4    4    0    0 -0.16098120016E+03  0.68399419879E+03  0.16924591670E+03  0.72884068238E+03  0.93816572062E+02 0.  0.
          4    1    3    3  502    0  0.97611651757E+02 -0.23414344768E+03 -0.23680385876E+03  0.34702630473E+03  0.00000000000E+00 0. -1.
         -4    1    3    3    0  502  0.60130816310E+03 -0.11315873900E+04 -0.10013215205E+04  0.16262553046E+04  0.00000000000E+00 0.  1.
         13    1    5    5    0    0 -0.39350509496E+03  0.45228652713E+03 -0.44069448221E+03  0.74405711409E+03  0.00000000000E+00 0.  1.
        -13    1    5    5    0    0 -0.14443351974E+03  0.22945011176E+03 -0.25498723914E+03  0.37219200359E+03  0.00000000000E+00 0. -1.
          3    1    6    6  503    0 -0.74682139865E+02  0.21113326147E+03  0.91495438587E+02  0.24192166376E+03  0.00000000000E+00 0. -1.
         -3    1    6    6    0  503 -0.86299060293E+02  0.47286093731E+03  0.77750478110E+02  0.48691901862E+03  0.00000000000E+00 0.  1.
<mgrwt>
<rscale>  0 0.33861902E+04</rscale>
<asrwt>0</asrwt>
<pdfrwt beam="1">  1        2 0.15798540E+00 0.33861902E+04</pdfrwt>
<pdfrwt beam="2">  1       -2 0.42945635E+00 0.33861902E+04</pdfrwt>
<totfact> 0.95219398E-02</totfact>
</mgrwt>
</event>
<event>
12    3  0.4769008E-008  0.1339959E+04  0.7818608E-02  0.8998464E-01
         -3   -1    0    0    0  501 -0.00000000000E+00  0.00000000000E+00  0.33194749002E+03  0.33194749002E+03  0.00000000000E+00 0.  1.
          3   -1    0    0  501    0  0.00000000000E+00 -0.00000000000E+00 -0.13522391403E+04  0.13522391403E+04  0.00000000000E+00 0. -1.
         23    2    1    2    0    0  0.53259825754E+02  0.32245230726E+03 -0.45570458422E+03  0.57043216193E+03  0.10447049245E+03 0.  0.
        254    2    1    2    0    0 -0.53259825754E+02 -0.32245230726E+03 -0.56458706609E+03  0.11137544684E+04  0.90270613228E+03 0.  0.
         23    2    4    4    0    0  0.11365422898E+03  0.19092888993E+03 -0.50960489400E+03  0.56323310703E+03  0.90350761410E+02 0.  0.
         23    2    4    4    0    0 -0.16691405473E+03 -0.51338119719E+03 -0.54982172089E+02  0.55052136140E+03  0.92898734178E+02 0.  0.
          2    1    3    3  502    0 -0.80862848414E+01  0.57302981619E+02 -0.15191811911E+03  0.16256732335E+03  0.00000000000E+00 0. -1.
         -2    1    3    3    0  502  0.61346110595E+02  0.26514932564E+03 -0.30378646510E+03  0.40786483858E+03  0.00000000000E+00 0.  1.
         13    1    5    5    0    0 -0.78269940607E+01  0.10479262138E+02 -0.54863327399E+01  0.14183674345E+02  0.00000000000E+00 0.  1.
        -13    1    5    5    0    0  0.12148122304E+03  0.18044962779E+03 -0.50411856126E+03  0.54904943269E+03  0.00000000000E+00 0. -1.
          2    1    6    6  503    0 -0.49810118089E+02 -0.10608186039E+03  0.23471707845E+02  0.11952125349E+03  0.00000000000E+00 0. -1.
         -2    1    6    6    0  503 -0.11710393664E+03 -0.40729933681E+03 -0.78453879934E+02  0.43100010791E+03  0.00000000000E+00 0.  1.
<mgrwt>
<rscale>  0 0.13399588E+04</rscale>
<asrwt>0</asrwt>
<pdfrwt beam="1">  1        3 0.20803679E+00 0.13399588E+04</pdfrwt>
<pdfrwt beam="2">  1       -3 0.51068845E-01 0.13399588E+04</pdfrwt>
<totfact> 0.12785209E+00</totfact>
</mgrwt>
</event>
<event>
12    3  0.4769008E-008  0.1209221E+04  0.7818608E-02  0.9104824E-01
          1   -1    0    0  501    0  0.00000000000E+00  0.00000000000E+00  0.47206875120E+03  0.47206875120E+03  0.00000000000E+00 0. -1.
         -1   -1    0    0    0  501 -0.00000000000E+00 -0.00000000000E+00 -0.77436532111E+03  0.77436532111E+03  0.00000000000E+00 0.  1.
         23    2    1    2    0    0 -0.11590903104E+03 -0.10112312659E+03  0.14880046185E+03  0.22437443796E+03  0.67390806161E+02 0.  0.
        254    2    1    2    0    0  0.11590903104E+03  0.10112312659E+03 -0.45109703175E+03  0.10220596343E+04  0.90413305100E+03 0.  0.
         23    2    4    4    0    0 -0.19415774069E+03  0.24221829095E+03 -0.56511974927E+03  0.65204257622E+03  0.97119830369E+02 0.  0.
         23    2    4    4    0    0  0.31006677173E+03 -0.14109516436E+03  0.11402271752E+03  0.37001705813E+03  0.88669018622E+02 0.  0.
          3    1    3    3  502    0 -0.99089425315E+02 -0.10647224850E+03  0.11204333652E+03  0.18359946397E+03  0.00000000000E+00 0. -1.
         -3    1    3    3    0  502 -0.16819605727E+02  0.53491219067E+01  0.36757125326E+02  0.40774973994E+02  0.00000000000E+00 0.  1.
         13    1    5    5    0    0 -0.13301334335E+02  0.41848799788E+01 -0.87330756601E+02  0.88436981880E+02  0.00000000000E+00 0.  1.
        -13    1    5    5    0    0 -0.18085640635E+03  0.23803341097E+03 -0.47778899267E+03  0.56360559434E+03  0.00000000000E+00 0. -1.
          2    1    6    6  503    0  0.96160454365E+02 -0.57332838332E+02 -0.34372406281E+01  0.11200759777E+03  0.00000000000E+00 0. -1.
         -2    1    6    6    0  503  0.21390631736E+03 -0.83762326027E+02  0.11745995814E+03  0.25800946036E+03  0.00000000000E+00 0.  1.
<mgrwt>
<rscale>  0 0.12092207E+04</rscale>
<asrwt>0</asrwt>
<pdfrwt beam="1">  1        1 0.72625963E-01 0.12092207E+04</pdfrwt>
<pdfrwt beam="2">  1       -1 0.11913312E+00 0.12092207E+04</pdfrwt>
<totfact> 0.29911355E+01</totfact>
</mgrwt>
</event>
<event>
12    3  0.4769008E-008  0.2204680E+04  0.7818608E-02  0.8516483E-01
          2   -1    0    0  501    0  0.00000000000E+00  0.00000000000E+00  0.12198853550E+04  0.12198853550E+04  0.00000000000E+00 0. -1.
         -2   -1    0    0    0  501 -0.00000000000E+00 -0.00000000000E+00 -0.99612095548E+03  0.99612095548E+03  0.00000000000E+00 0.  1.
         23    2    1    2    0    0 -0.44567168284E+03 -0.54658431975E+03 -0.49602591869E+03  0.86700166700E+03  0.90953345699E+02 0.  0.
        254    2    1    2    0    0  0.44567168284E+03  0.54658431975E+03  0.71979031824E+03  0.13490046435E+04  0.89684879355E+03 0.  0.
         23    2    4    4    0    0 -0.15382167854E+03  0.49025775261E+03  0.41561578206E+03  0.66745020303E+03  0.93485413015E+02 0.  0.
         23    2    4    4    0    0  0.59949336138E+03  0.56326567139E+02  0.30417453618E+03  0.68155444047E+03  0.97104759768E+02 0.  0.
          4    1    3    3  502    0 -0.11328949614E+03 -0.16016701154E+03 -0.92472736195E+02  0.21688519650E+03  0.00000000000E+00 0. -1.
         -4    1    3    3    0  502 -0.33238218670E+03 -0.38641730821E+03 -0.40355318250E+03  0.65011647050E+03  0.00000000000E+00 0.  1.
         13    1    5    5    0    0 -0.73731102294E+02  0.14106425300E+03  0.87474289997E+02  0.18162365025E+03  0.00000000000E+00 0.  1.
        -13    1    5    5    0    0 -0.80090576245E+02  0.34919349961E+03  0.32814149206E+03  0.48582655278E+03  0.00000000000E+00 0. -1.
          3    1    6    6  503    0  0.34694426941E+02 -0.16023273972E+02  0.56474712010E+01  0.38630849078E+02  0.00000000000E+00 0. -1.
         -3    1    6    6    0  503  0.56479893443E+03  0.72349841111E+02  0.29852706498E+03  0.64292359139E+03  0.00000000000E+00 0.  1.
<mgrwt>
<rscale>  0 0.22046799E+04</rscale>
<asrwt>0</asrwt>
<pdfrwt beam="1">  1        2 0.18767467E+00 0.22046799E+04</pdfrwt>
<pdfrwt beam="2">  1       -2 0.15324938E+00 0.22046799E+04</pdfrwt>
<totfact> 0.47659653E+00</totfact>
</mgrwt>
</event>
<event>
12    3  0.4769008E-008  0.2603806E+04  0.7818608E-02  0.8366910E-01
         -1   -1    0    0    0  501 -0.00000000000E+00  0.00000000000E+00  0.46180189642E+03  0.46180189642E+03  0.00000000000E+00 0.  1.
          1   -1    0    0  501    0  0.00000000000E+00 -0.00000000000E+00 -0.36702997055E+04  0.36702997055E+04  0.00000000000E+00 0. -1.
         23    2    1    2    0    0 -0.42611282222E+03  0.83022462416E+03 -0.36310750004E+03  0.10053340894E+04  0.89467932813E+02 0.  0.
        254    2    1    2    0    0  0.42611282222E+03 -0.83022462416E+03 -0.28453903090E+04  0.31267675125E+04  0.89976886059E+03 0.  0.
         23    2    4    4    0    0 -0.83984496288E+02  0.47111183892E+02 -0.33146778880E+02  0.13561178994E+03  0.89548809911E+02 0.  0.
         23    2    4    4    0    0  0.51009731851E+03 -0.87733580805E+03 -0.28122435302E+04  0.29911557225E+04  0.91550472953E+02 0.  0.
          1    1    3    3  502    0 -0.12293994736E+01  0.40883938010E+02 -0.12360808364E+02  0.42729350495E+02  0.00000000000E+00 0. -1.
         -1    1    3    3    0  502 -0.42488342275E+03  0.78934068615E+03 -0.35074669168E+03  0.96260473895E+03  0.00000000000E+00 0.  1.
         13    1    5    5    0    0 -0.28328302742E+02 -0.25259520664E+02 -0.21373884809E+02  0.43558914958E+02  0.00000000000E+00 0. -1.
        -13    1    5    5    0    0 -0.55656193546E+02  0.72370704556E+02 -0.11772894070E+02  0.92052874984E+02  0.00000000000E+00 0.  1.
          4    1    6    6  503    0  0.26908381059E+03 -0.39941981478E+03 -0.14284689854E+04  0.15074700421E+04  0.00000000000E+00 0. -1.
         -4    1    6    6    0  503  0.24101350792E+03 -0.47791599327E+03 -0.13837745447E+04  0.14836856804E+04  0.00000000000E+00 0.  1.
<mgrwt>
<rscale>  0 0.26038060E+04</rscale>
<asrwt>0</asrwt>
<pdfrwt beam="1">  1        1 0.56466146E+00 0.26038060E+04</pdfrwt>
<pdfrwt beam="2">  1       -1 0.71046450E-01 0.26038060E+04</pdfrwt>
<totfact> 0.32171973E-01</totfact>
</mgrwt>
</event>
<event>
12    3  0.4769008E-008  0.1768043E+04  0.7818608E-02  0.8723481E-01
         -1   -1    0    0    0  501 -0.00000000000E+00  0.00000000000E+00  0.72650634797E+03  0.72650634797E+03  0.00000000000E+00 0.  1.
          1   -1    0    0  501    0  0.00000000000E+00 -0.00000000000E+00 -0.10756878409E+04  0.10756878409E+04  0.00000000000E+00 0. -1.
         23    2    1    2    0    0 -0.27765564909E+03 -0.37089367025E+03  0.34279762008E+03  0.58347519950E+03  0.90985306477E+02 0.  0.
        254    2    1    2    0    0  0.27765564909E+03  0.37089367025E+03 -0.69197911304E+03  0.12187189894E+04  0.88982363877E+03 0.  0.
         23    2    4    4    0    0  0.27952824267E+03 -0.21327366417E+03 -0.95169231271E+02  0.37866918407E+03  0.10349625168E+03 0.  0.
         23    2    4    4    0    0 -0.18725935761E+01  0.58416733442E+03 -0.59680988177E+03  0.84004980532E+03  0.90811118439E+02 0.  0.
          3    1    3    3  502    0 -0.24297925879E+02 -0.14417047968E+02  0.49168644678E+02  0.56707989681E+02  0.00000000000E+00 0. -1.
         -3    1    3    3    0  502 -0.25335772321E+03 -0.35647662228E+03  0.29362897540E+03  0.52676720982E+03  0.00000000000E+00 0.  1.
         13    1    5    5    0    0  0.51632108913E+01 -0.30737600482E+02 -0.28959134846E+02  0.42545156259E+02  0.00000000000E+00 0. -1.
        -13    1    5    5    0    0  0.27436503177E+03 -0.18253606368E+03 -0.66210096426E+02  0.33612402781E+03  0.00000000000E+00 0.  1.
          4    1    6    6  503    0  0.13101569886E+02  0.83298119708E+02 -0.13161498849E+03  0.15630973442E+03  0.00000000000E+00 0. -1.
         -4    1    6    6    0  503 -0.14974163463E+02  0.50086921471E+03 -0.46519489328E+03  0.68374007090E+03  0.00000000000E+00 0.  1.
<mgrwt>
<rscale>  0 0.17680430E+04</rscale>
<asrwt>0</asrwt>
<pdfrwt beam="1">  1        1 0.16549044E+00 0.17680430E+04</pdfrwt>
<pdfrwt beam="2">  1       -1 0.11177021E+00 0.17680430E+04</pdfrwt>
<totfact> 0.91980420E+00</totfact>
</mgrwt>
</event>
<event>
12    3  0.4769008E-008  0.2494610E+04  0.7818608E-02  0.8404908E-01
         -2   -1    0    0    0  501 -0.00000000000E+00  0.00000000000E+00  0.77476472353E+03  0.77476472353E+03  0.00000000000E+00 0. -1.
          2   -1    0    0  501    0  0.00000000000E+00 -0.00000000000E+00 -0.20080537702E+04  0.20080537702E+04  0.00000000000E+00 0.  1.
         23    2    1    2    0    0 -0.72399815629E+03 -0.79092596773E+03 -0.75136359596E+03  0.13123626827E+04  0.89506094278E+02 0.  0.
        254    2    1    2    0    0  0.72399815629E+03  0.79092596773E+03 -0.48192545077E+03  0.14704558111E+04  0.88331813942E+03 0.  0.
         23    2    4    4    0    0  0.73922720322E+03  0.47799449955E+03 -0.65223065980E+03  0.10993007039E+04  0.90119944703E+02 0.  0.
         23    2    4    4    0    0 -0.15229046930E+02  0.31293146818E+03  0.17030520903E+03  0.37115510716E+03  0.10292823566E+03 0.  0.
          2    1    3    3  502    0 -0.43181942961E+03 -0.45088110178E+03 -0.48797027292E+03  0.79238675846E+03  0.00000000000E+00 0. -1.
         -2    1    3    3    0  502 -0.29217872668E+03 -0.34004486595E+03 -0.26339332304E+03  0.51997592426E+03  0.00000000000E+00 0.  1.
         13    1    5    5    0    0  0.65070403596E+03  0.39076628864E+03 -0.53655766421E+03  0.92952039342E+03  0.00000000000E+00 0. -1.
        -13    1    5    5    0    0  0.88523167265E+02  0.87228210911E+02 -0.11567299558E+03  0.16978031049E+03  0.00000000000E+00 0.  1.
          1    1    6    6  503    0 -0.35570686468E+00  0.28626940318E+03  0.11604590707E+03  0.30889634227E+03  0.00000000000E+00 0. -1.
         -1    1    6    6    0  503 -0.14873340065E+02  0.26662065005E+02  0.54259301965E+02  0.62258764883E+02  0.00000000000E+00 0.  1.
<mgrwt>
<rscale>  0 0.24946096E+04</rscale>
<asrwt>0</asrwt>
<pdfrwt beam="1">  1        2 0.30893135E+00 0.24946096E+04</pdfrwt>
<pdfrwt beam="2">  1       -2 0.11919457E+00 0.24946096E+04</pdfrwt>
<totfact> 0.31859320E+00</totfact>
</mgrwt>
</event>
<event>
12    3  0.4769008E-008  0.2206444E+04  0.7818608E-02  0.8515751E-01
         -2   -1    0    0    0  501 -0.00000000000E+00  0.00000000000E+00  0.81184763935E+03  0.81184763935E+03  0.00000000000E+00 0.  1.
          2   -1    0    0  501    0  0.00000000000E+00 -0.00000000000E+00 -0.14991718831E+04  0.14991718831E+04  0.00000000000E+00 0. -1.
         23    2    1    2    0    0 -0.58459469649E+02  0.76359558577E+03  0.23193248711E+03  0.80438952866E+03  0.82183374523E+02 0.  0.
        254    2    1    2    0    0  0.58459469649E+02 -0.76359558577E+03 -0.91925673086E+03  0.15066299938E+04  0.91564473062E+03 0.  0.
         23    2    4    4    0    0  0.37611726979E+03 -0.46537629519E+03 -0.16051292717E+03  0.62697153681E+03  0.96382630281E+02 0.  0.
         23    2    4    4    0    0 -0.31765780014E+03 -0.29821929058E+03 -0.75874380369E+03  0.87965845697E+03  0.90915444322E+02 0.  0.
          1    1    3    3  502    0  0.87290780768E+01  0.14903641910E+03  0.72375008382E+02  0.16591019517E+03  0.00000000000E+00 0. -1.
         -1    1    3    3    0  502 -0.67188547726E+02  0.61455916667E+03  0.15955747873E+03  0.63847933350E+03  0.00000000000E+00 0.  1.
         13    1    5    5    0    0  0.30889778536E+03 -0.41833311880E+03 -0.16275783443E+03  0.54489499241E+03  0.00000000000E+00 0. -1.
        -13    1    5    5    0    0  0.67219484430E+02 -0.47043176397E+02  0.22449072608E+01  0.82076544403E+02  0.00000000000E+00 0.  1.
          3    1    6    6  503    0 -0.21982433050E+03 -0.20613602420E+03 -0.60199021248E+03  0.67320651562E+03  0.00000000000E+00 0. -1.
         -3    1    6    6    0  503 -0.97833469646E+02 -0.92083266378E+02 -0.15675359121E+03  0.20645194135E+03  0.00000000000E+00 0.  1.
<mgrwt>
<rscale>  0 0.22064443E+04</rscale>
<asrwt>0</asrwt>
<pdfrwt beam="1">  1        2 0.23064182E+00 0.22064443E+04</pdfrwt>
<pdfrwt beam="2">  1       -2 0.12489964E+00 0.22064443E+04</pdfrwt>
<totfact> 0.55785240E+00</totfact>
</mgrwt>
</event>
<event>
12    3  0.4769008E-008  0.1440139E+04  0.7818608E-02  0.8925266E-01
         -2   -1    0    0    0  501 -0.00000000000E+00  0.00000000000E+00  0.20924882073E+03  0.20924882073E+03  0.00000000000E+00 0.  1.
          2   -1    0    0  501    0  0.00000000000E+00 -0.00000000000E+00 -0.24779118371E+04  0.24779118371E+04  0.00000000000E+00 0. -1.
         23    2    1    2    0    0 -0.24375658897E+03  0.17833861177E+03 -0.12015350653E+03  0.33812484146E+03  0.93110730686E+02 0.  0.
        254    2    1    2    0    0  0.24375658897E+03 -0.17833861177E+03 -0.21485095098E+04  0.23490358164E+04  0.90036338088E+03 0.  0.
         23    2    4    4    0    0  0.35100784590E+03 -0.40502343912E+03 -0.19270553957E+04  0.20022876770E+04  0.91449163005E+02 0.  0.
         23    2    4    4    0    0 -0.10725125693E+03  0.22668482735E+03 -0.22145411417E+03  0.34674813937E+03  0.91123566710E+02 0.  0.
          4    1    3    3  502    0 -0.14779439631E+02  0.40208809152E+02  0.45183522496E+01  0.43076625637E+02  0.00000000000E+00 0. -1.
         -4    1    3    3    0  502 -0.22897714934E+03  0.13812980262E+03 -0.12467185878E+03  0.29504821583E+03  0.00000000000E+00 0.  1.
         13    1    5    5    0    0 -0.45849610424E+01 -0.10148045777E+02 -0.62713820762E+02  0.63694803677E+02  0.00000000000E+00 0. -1.
        -13    1    5    5    0    0  0.35559280694E+03 -0.39487539334E+03 -0.18643415749E+04  0.19385928733E+04  0.00000000000E+00 0.  1.
          3    1    6    6  503    0 -0.61904944104E+02  0.39738713324E+02 -0.74254770649E+02  0.10452348255E+03  0.00000000000E+00 0. -1.
         -3    1    6    6    0  503 -0.45346312823E+02  0.18694611402E+03 -0.14719934352E+03  0.24222465681E+03  0.00000000000E+00 0.  1.
<mgrwt>
<rscale>  0 0.14401391E+04</rscale>
<asrwt>0</asrwt>
<pdfrwt beam="1">  1        2 0.38121721E+00 0.14401391E+04</pdfrwt>
<pdfrwt beam="2">  1       -2 0.32192126E-01 0.14401391E+04</pdfrwt>
<totfact> 0.31349460E+01</totfact>
</mgrwt>
</event>
<event>
12    3  0.4769008E-008  0.1935828E+04  0.7818608E-02  0.8637225E-01
         -1   -1    0    0    0  501 -0.00000000000E+00  0.00000000000E+00  0.46612760350E+03  0.46612760350E+03  0.00000000000E+00 0.  1.
          1   -1    0    0  501    0  0.00000000000E+00 -0.00000000000E+00 -0.20098738872E+04  0.20098738872E+04  0.00000000000E+00 0. -1.
         23    2    1    2    0    0 -0.58451747086E+03 -0.44077081986E+03 -0.37216554572E+03  0.82622723467E+03  0.90579581091E+02 0.  0.
        254    2    1    2    0    0  0.58451747086E+03  0.44077081986E+03 -0.11715807380E+04  0.16497742561E+04  0.90178383270E+03 0.  0.
         23    2    4    4    0    0  0.52554141850E+03 -0.12553732932E+03 -0.77839972506E+03  0.95179286677E+03  0.89722492415E+02 0.  0.
         23    2    4    4    0    0  0.58976052360E+02  0.56630814917E+03 -0.39318101296E+03  0.69798138930E+03  0.91671240218E+02 0.  0.
          1    1    3    3  502    0 -0.56299869321E+02 -0.13706947962E+02 -0.37261566806E+02  0.68891073942E+02  0.00000000000E+00 0. -1.
         -1    1    3    3    0  502 -0.52821760154E+03 -0.42706387189E+03 -0.33490397891E+03  0.75733616073E+03  0.00000000000E+00 0.  1.
         13    1    5    5    0    0  0.38635165000E+03 -0.11964935393E+03 -0.52627671604E+03  0.66373996956E+03  0.00000000000E+00 0.  1.
        -13    1    5    5    0    0  0.13918976851E+03 -0.58879753871E+01 -0.25212300902E+03  0.28805289720E+03  0.00000000000E+00 0. -1.
          3    1    6    6  503    0  0.71404302313E+02  0.36731781140E+03 -0.22124867676E+03  0.43470901294E+03  0.00000000000E+00 0. -1.
         -3    1    6    6    0  503 -0.12428249953E+02  0.19899033777E+03 -0.17193233620E+03  0.26327237636E+03  0.00000000000E+00 0.  1.
<mgrwt>
<rscale>  0 0.19358282E+04</rscale>
<asrwt>0</asrwt>
<pdfrwt beam="1">  1        1 0.30921136E+00 0.19358282E+04</pdfrwt>
<pdfrwt beam="2">  1       -1 0.71711940E-01 0.19358282E+04</pdfrwt>
<totfact> 0.53723947E+00</totfact>
</mgrwt>
</event>
<event>
12    3  0.4769008E-008  0.3192673E+04  0.7818608E-02  0.8190755E-01
          2   -1    0    0  501    0  0.00000000000E+00  0.00000000000E+00  0.23331391266E+04  0.23331391266E+04  0.00000000000E+00 0. -1.
         -2   -1    0    0    0  501 -0.00000000000E+00 -0.00000000000E+00 -0.10922155666E+04  0.10922155666E+04  0.00000000000E+00 0.  1.
         23    2    1    2    0    0 -0.10996070185E+04  0.47211815513E+03 -0.34176069908E+03  0.12480740882E+04  0.94113796045E+02 0.  0.
        254    2    1    2    0    0  0.10996070185E+04 -0.47211815513E+03  0.15826842591E+04  0.21772806050E+04  0.89645424946E+03 0.  0.
         23    2    4    4    0    0  0.10469768865E+04 -0.63486748085E+03  0.15555191085E+04  0.19817335791E+04  0.91711300097E+02 0.  0.
         23    2    4    4    0    0  0.52630132026E+02  0.16274932571E+03  0.27165150570E+02  0.19554702588E+03  0.90793282288E+02 0.  0.
          1    1    3    3  502    0 -0.53856162570E+03  0.19048900959E+03 -0.19239646217E+03  0.60278610311E+03  0.00000000000E+00 0. -1.
         -1    1    3    3    0  502 -0.56104539281E+03  0.28162914555E+03 -0.14936423691E+03  0.64528798508E+03  0.00000000000E+00 0.  1.
         13    1    5    5    0    0  0.79654961574E+03 -0.48239665988E+03  0.12440135256E+04  0.15539522128E+04  0.00000000000E+00 0.  1.
        -13    1    5    5    0    0  0.25042727074E+03 -0.15247082097E+03  0.31150558295E+03  0.42778136634E+03  0.00000000000E+00 0. -1.
          3    1    6    6  503    0  0.75522703298E+02  0.14281193843E+03  0.32326153421E+02  0.16475408543E+03  0.00000000000E+00 0. -1.
         -3    1    6    6    0  503 -0.22892571272E+02  0.19937387283E+02 -0.51610028514E+01  0.30792940450E+02  0.00000000000E+00 0.  1.
<mgrwt>
<rscale>  0 0.31926734E+04</rscale>
<asrwt>0</asrwt>
<pdfrwt beam="1">  1        2 0.35894448E+00 0.31926734E+04</pdfrwt>
<pdfrwt beam="2">  1       -2 0.16803316E+00 0.31926734E+04</pdfrwt>
<totfact> 0.80515627E-01</totfact>
</mgrwt>
</event>
<event>
12    3  0.4769008E-008  0.1330607E+04  0.7818608E-02  0.9005639E-01
         -3   -1    0    0    0  501 -0.00000000000E+00  0.00000000000E+00  0.41434586338E+03  0.41434586338E+03  0.00000000000E+00 0.  1.
          3   -1    0    0  501    0  0.00000000000E+00 -0.00000000000E+00 -0.10682595582E+04  0.10682595582E+04  0.00000000000E+00 0. -1.
         23    2    1    2    0    0  0.17020983987E+02  0.32447793171E+03 -0.30976094514E+02  0.33904583984E+03  0.91743779172E+02 0.  0.
        254    2    1    2    0    0 -0.17020983987E+02 -0.32447793171E+03 -0.62293760033E+03  0.11435595818E+04  0.90227580101E+03 0.  0.
         23    2    4    4    0    0  0.31948853492E+03 -0.46286618560E+03 -0.27695298916E+03  0.63335296540E+03  0.90083244095E+02 0.  0.
         23    2    4    4    0    0 -0.33650951891E+03  0.13838825389E+03 -0.34598461118E+03  0.51020661637E+03  0.90639257981E+02 0.  0.
          3    1    3    3  502    0  0.32781394361E+02  0.27029455828E+03 -0.54899985822E+02  0.27775488564E+03  0.00000000000E+00 0. -1.
         -3    1    3    3    0  502 -0.15760410374E+02  0.54183373427E+02  0.23923891307E+02  0.61290954197E+02  0.00000000000E+00 0.  1.
         13    1    5    5    0    0  0.20219838516E+03 -0.27157055675E+03 -0.11874251793E+03  0.35879595847E+03  0.00000000000E+00 0. -1.
        -13    1    5    5    0    0  0.11729014976E+03 -0.19129562885E+03 -0.15821047123E+03  0.27455700693E+03  0.00000000000E+00 0.  1.
          4    1    6    6  503    0 -0.21978789935E+03  0.73898011121E+02 -0.27300967699E+03  0.35819257458E+03  0.00000000000E+00 0. -1.
         -4    1    6    6    0  503 -0.11672161955E+03  0.64490242767E+02 -0.72974934184E+02  0.15201404179E+03  0.00000000000E+00 0.  1.
<mgrwt>
<rscale>  0 0.13306073E+04</rscale>
<asrwt>0</asrwt>
<pdfrwt beam="1">  1        3 0.16434762E+00 0.13306073E+04</pdfrwt>
<pdfrwt beam="2">  1       -3 0.63745518E-01 0.13306073E+04</pdfrwt>
<totfact> 0.15569194E+00</totfact>
</mgrwt>
</event>
<event>
12    3  0.4769008E-008  0.1864404E+04  0.7818608E-02  0.8672780E-01
         -2   -1    0    0    0  501 -0.00000000000E+00  0.00000000000E+00  0.81132606706E+03  0.81132606706E+03  0.00000000000E+00 0.  1.
          2   -1    0    0  501    0  0.00000000000E+00 -0.00000000000E+00 -0.10710871154E+04  0.10710871154E+04  0.00000000000E+00 0. -1.
         23    2    1    2    0    0  0.12267377668E+03  0.48145818940E+03 -0.61286679363E+03  0.79416825887E+03  0.90811194422E+02 0.  0.
        254    2    1    2    0    0 -0.12267377668E+03 -0.48145818940E+03  0.35310574532E+03  0.10882449236E+04  0.90152232510E+03 0.  0.
         23    2    4    4    0    0  0.17972321232E+03 -0.49701677712E+03 -0.90046967437E+02  0.54381754865E+03  0.91120579918E+02 0.  0.
         23    2    4    4    0    0 -0.30239698900E+03  0.15558587720E+02  0.44315271276E+03  0.54442737492E+03  0.91273386732E+02 0.  0.
          1    1    3    3  502    0  0.16883485437E+02  0.32699102054E+02 -0.88982809030E+02  0.96292386295E+02  0.00000000000E+00 0.  1.
         -1    1    3    3    0  502  0.10579029125E+03  0.44875908735E+03 -0.52388398460E+03  0.69787587258E+03  0.00000000000E+00 0. -1.
         13    1    5    5    0    0  0.79987943933E+02 -0.24247638760E+03  0.20560460097E+01  0.25533722221E+03  0.00000000000E+00 0. -1.
        -13    1    5    5    0    0  0.99735268385E+02 -0.25454038952E+03 -0.92103013446E+02  0.28848032644E+03  0.00000000000E+00 0.  1.
          3    1    6    6  503    0 -0.17602272507E+03  0.10171519604E+02  0.17744419332E+03  0.25014775892E+03  0.00000000000E+00 0. -1.
         -3    1    6    6    0  503 -0.12637426394E+03  0.53870681161E+01  0.26570851944E+03  0.29427961600E+03  0.00000000000E+00 0.  1.
<mgrwt>
<rscale>  0 0.18644044E+04</rscale>
<asrwt>0</asrwt>
<pdfrwt beam="1">  1        2 0.16478263E+00 0.18644044E+04</pdfrwt>
<pdfrwt beam="2">  1       -2 0.12481940E+00 0.18644044E+04</pdfrwt>
<totfact> 0.10263664E+01</totfact>
</mgrwt>
</event>
<event>
12    3  0.4769008E-008  0.1378261E+04  0.7818608E-02  0.8969706E-01
         -1   -1    0    0    0  501 -0.00000000000E+00  0.00000000000E+00  0.39752827316E+03  0.39752827316E+03  0.00000000000E+00 0.  1.
          1   -1    0    0  501    0  0.00000000000E+00 -0.00000000000E+00 -0.11946347515E+04  0.11946347515E+04  0.00000000000E+00 0. -1.
         23    2    1    2    0    0  0.16098539477E+02  0.57904779987E+02 -0.68394040236E+03  0.69322313281E+03  0.95769052195E+02 0.  0.
        254    2    1    2    0    0 -0.16098539477E+02 -0.57904779987E+02 -0.11316607600E+03  0.89893989188E+03  0.88976077793E+03 0.  0.
         23    2    4    4    0    0  0.40723274574E+03  0.10322061424E+03 -0.71059838555E+02  0.43485583691E+03  0.86931546807E+02 0.  0.
         23    2    4    4    0    0 -0.42333128522E+03 -0.16112539422E+03 -0.42106237444E+02  0.46408405497E+03  0.91816693136E+02 0.  0.
          2    1    3    3  502    0 -0.38300280301E+02  0.36048917766E+02 -0.38628271164E+03  0.38984711010E+03  0.00000000000E+00 0. -1.
         -2    1    3    3    0  502  0.54398819778E+02  0.21855862221E+02 -0.29765769072E+03  0.30337602271E+03  0.00000000000E+00 0.  1.
         13    1    5    5    0    0  0.23227383421E+03  0.44220526103E+02  0.15549377087E+01  0.23645085497E+03  0.00000000000E+00 0. -1.
        -13    1    5    5    0    0  0.17495891154E+03  0.59000088133E+02 -0.72614776263E+02  0.19840498194E+03  0.00000000000E+00 0.  1.
          4    1    6    6  503    0 -0.39897848053E+03 -0.12591118631E+03 -0.46929076813E+02  0.42099856652E+03  0.00000000000E+00 0. -1.
         -4    1    6    6    0  503 -0.24352804687E+02 -0.35214207914E+02  0.48228393684E+01  0.43085488446E+02  0.00000000000E+00 0.  1.
<mgrwt>
<rscale>  0 0.13782614E+04</rscale>
<asrwt>0</asrwt>
<pdfrwt beam="1">  1        1 0.18378995E+00 0.13782614E+04</pdfrwt>
<pdfrwt beam="2">  1       -1 0.61158199E-01 0.13782614E+04</pdfrwt>
<totfact> 0.28556305E+01</totfact>
</mgrwt>
</event>
<event>
12    3  0.4769008E-008  0.1430250E+04  0.7818608E-02  0.8932208E-01
         -2   -1    0    0    0  501 -0.00000000000E+00  0.00000000000E+00  0.25048102998E+03  0.25048102998E+03  0.00000000000E+00 0.  1.
          2   -1    0    0  501    0  0.00000000000E+00 -0.00000000000E+00 -0.20416870014E+04  0.20416870014E+04  0.00000000000E+00 0. -1.
         23    2    1    2    0    0 -0.30297933122E+03  0.97178166834E+02 -0.98919153157E+03  0.10431494254E+04  0.91764733139E+02 0.  0.
        254    2    1    2    0    0  0.30297933122E+03 -0.97178166834E+02 -0.80201443990E+03  0.12490186061E+04  0.90309481521E+03 0.  0.
         23    2    4    4    0    0 -0.30877171229E+03  0.38684610249E+02 -0.28664020189E+03  0.43260159617E+03  0.90250021038E+02 0.  0.
         23    2    4    4    0    0  0.61175104350E+03 -0.13586277708E+03 -0.51537423801E+03  0.81641700990E+03  0.90708849739E+02 0.  0.
          2    1    3    3  502    0 -0.28109683807E+03  0.62816673986E+02 -0.90282647709E+03  0.94765870156E+03  0.00000000000E+00 0. -1.
         -2    1    3    3    0  502 -0.21882493143E+02  0.34361492848E+02 -0.86365054474E+02  0.95490723797E+02  0.00000000000E+00 0.  1.
         13    1    5    5    0    0 -0.22654946676E+03 -0.91792412473E+01 -0.22379479891E+03  0.31857970962E+03  0.00000000000E+00 0.  1.
        -13    1    5    5    0    0 -0.82222245524E+02  0.47863851496E+02 -0.62845402976E+02  0.11402188656E+03  0.00000000000E+00 0. -1.
          2    1    6    6  503    0  0.50964815189E+03 -0.90431556587E+02 -0.38747594490E+03  0.64657305313E+03  0.00000000000E+00 0.  1.
         -2    1    6    6    0  503  0.10210289161E+03 -0.45431220496E+02 -0.12789829311E+03  0.16984395677E+03  0.00000000000E+00 0. -1.
<mgrwt>
<rscale>  0 0.14302501E+04</rscale>
<asrwt>0</asrwt>
<pdfrwt beam="1">  1        2 0.31410570E+00 0.14302501E+04</pdfrwt>
<pdfrwt beam="2">  1       -2 0.38535542E-01 0.14302501E+04</pdfrwt>
<totfact> 0.39154530E+01</totfact>
</mgrwt>
</event>
<event>
12    3  0.4769008E-008  0.1069430E+04  0.7818608E-02  0.9235511E-01
         -2   -1    0    0    0  501 -0.00000000000E+00  0.00000000000E+00  0.83508371565E+02  0.83508371565E+02  0.00000000000E+00 0.  1.
          2   -1    0    0  501    0  0.00000000000E+00 -0.00000000000E+00 -0.34238501167E+04  0.34238501167E+04  0.00000000000E+00 0. -1.
         23    2    1    2    0    0  0.36119438706E+01  0.43307545870E+02 -0.88413252448E+03  0.89009703869E+03  0.93240698053E+02 0.  0.
        254    2    1    2    0    0 -0.36119438706E+01 -0.43307545870E+02 -0.24562092207E+04  0.26172614496E+04  0.90288713034E+03 0.  0.
         23    2    4    4    0    0 -0.21799650871E+03  0.19209553301E+03 -0.21322296968E+04  0.21540750974E+04  0.95983715410E+02 0.  0.
         23    2    4    4    0    0  0.21438456484E+03 -0.23540307888E+03 -0.32397952386E+03  0.46318635220E+03  0.90573251019E+02 0.  0.
          3    1    3    3  502    0  0.41860676281E+01  0.33542812272E+02 -0.87778668045E+03  0.87843730556E+03  0.00000000000E+00 0. -1.
         -3    1    3    3    0  502 -0.57412375750E+00  0.97647335982E+01 -0.63458440333E+01  0.11659733137E+02  0.00000000000E+00 0.  1.
         13    1    5    5    0    0 -0.86143605319E+02  0.22256863015E+02 -0.51742958887E+03  0.52502330246E+03  0.00000000000E+00 0. -1.
        -13    1    5    5    0    0 -0.13185290339E+03  0.16983866999E+03 -0.16148001079E+04  0.16290517949E+04  0.00000000000E+00 0.  1.
          2    1    6    6  503    0  0.15998308494E+03 -0.15725405432E+03 -0.27864903847E+03  0.35772714701E+03  0.00000000000E+00 0. -1.
         -2    1    6    6    0  503  0.54401479892E+02 -0.78149024561E+02 -0.45330485394E+02  0.10545920519E+03  0.00000000000E+00 0.  1.
<mgrwt>
<rscale>  0 0.10694300E+04</rscale>
<asrwt>0</asrwt>
<pdfrwt beam="1">  1        2 0.52674603E+00 0.10694300E+04</pdfrwt>
<pdfrwt beam="2">  1       -2 0.12847445E-01 0.10694300E+04</pdfrwt>
<totfact> 0.42938069E+01</totfact>
</mgrwt>
</event>
<event>
12    3  0.4769008E-008  0.1892440E+04  0.7818608E-02  0.8658629E-01
          2   -1    0    0  501    0  0.00000000000E+00  0.00000000000E+00  0.36975904712E+04  0.36975904712E+04  0.00000000000E+00 0. -1.
         -2   -1    0    0    0  501 -0.00000000000E+00 -0.00000000000E+00 -0.24213934357E+03  0.24213934357E+03  0.00000000000E+00 0.  1.
         23    2    1    2    0    0  0.59433520438E+03  0.40723133274E+03  0.17129395860E+04  0.18604558343E+04  0.89789712721E+02 0.  0.
        254    2    1    2    0    0 -0.59433520438E+03 -0.40723133274E+03  0.17425115417E+04  0.20792739805E+04  0.87633447936E+03 0.  0.
         23    2    4    4    0    0  0.85167844631E+02  0.18905379820E+03  0.32766131344E+03  0.39772124176E+03  0.88461005253E+02 0.  0.
         23    2    4    4    0    0 -0.67950304901E+03 -0.59628513094E+03  0.14148502282E+04  0.16815527388E+04  0.92401806943E+02 0.  0.
          4    1    3    3  502    0  0.26369178551E+03  0.18155521378E+03  0.87694791713E+03  0.93355948003E+03  0.00000000000E+00 0. -1.
         -4    1    3    3    0  502  0.33064341887E+03  0.22567611896E+03  0.83599166886E+03  0.92689635425E+03  0.00000000000E+00 0.  1.
         13    1    5    5    0    0  0.71357769129E+02  0.19690396426E+03  0.30119273831E+03  0.36685169751E+03  0.00000000000E+00 0.  1.
        -13    1    5    5    0    0  0.13810075502E+02 -0.78501660655E+01  0.26468575129E+02  0.30869544247E+02  0.00000000000E+00 0. -1.
          3    1    6    6  503    0 -0.21217965322E+03 -0.13795900640E+03  0.43228036226E+03  0.50091836090E+03  0.00000000000E+00 0. -1.
         -3    1    6    6    0  503 -0.46732339580E+03 -0.45832612455E+03  0.98256986598E+03  0.11806343779E+04  0.00000000000E+00 0.  1.
<mgrwt>
<rscale>  0 0.18924398E+04</rscale>
<asrwt>0</asrwt>
<pdfrwt beam="1">  1        2 0.56886003E+00 0.18924398E+04</pdfrwt>
<pdfrwt beam="2">  1       -2 0.37252209E-01 0.18924398E+04</pdfrwt>
<totfact> 0.37650442E+00</totfact>
</mgrwt>
</event>
<event>
12    3  0.4769008E-008  0.3142129E+04  0.7818608E-02  0.8204270E-01
         -2   -1    0    0    0  501 -0.00000000000E+00  0.00000000000E+00  0.88610674262E+03  0.88610674262E+03  0.00000000000E+00 0.  1.
          2   -1    0    0  501    0  0.00000000000E+00 -0.00000000000E+00 -0.27854933559E+04  0.27854933559E+04  0.00000000000E+00 0. -1.
         23    2    1    2    0    0  0.93276222628E+03 -0.10986788533E+04 -0.10353583037E+04  0.17768905903E+04  0.90734554825E+02 0.  0.
        254    2    1    2    0    0 -0.93276222628E+03  0.10986788533E+04 -0.86402830957E+03  0.18947095082E+04  0.87535056247E+03 0.  0.
         23    2    4    4    0    0 -0.10554256132E+04  0.10677622234E+04 -0.87241710010E+03  0.17388438912E+04  0.91799185427E+02 0.  0.
         23    2    4    4    0    0  0.12266338694E+03  0.30916629866E+02  0.83887905305E+01  0.15586561702E+03  0.90672897082E+02 0.  0.
          2    1    3    3  502    0  0.86362460684E+03 -0.10276647892E+04 -0.98970413711E+03  0.16677699660E+04  0.00000000000E+00 0. -1.
         -2    1    3    3    0  502  0.69137619442E+02 -0.71014064137E+02 -0.45654166594E+02  0.10912062433E+03  0.00000000000E+00 0.  1.
         13    1    5    5    0    0 -0.10309672562E+04  0.10546479524E+04 -0.84467509572E+03  0.16996034256E+04  0.00000000000E+00 0.  1.
        -13    1    5    5    0    0 -0.24458357070E+02  0.13114271023E+02 -0.27742004383E+02  0.39240465622E+02  0.00000000000E+00 0. -1.
          3    1    6    6  503    0  0.13037756278E+02  0.43388883193E+02  0.21334679137E+01  0.45355594570E+02  0.00000000000E+00 0. -1.
         -3    1    6    6    0  503  0.10962563067E+03 -0.12472253327E+02  0.62553226167E+01  0.11051002245E+03  0.00000000000E+00 0.  1.
<mgrwt>
<rscale>  0 0.31421295E+04</rscale>
<asrwt>0</asrwt>
<pdfrwt beam="1">  1        2 0.42853743E+00 0.31421295E+04</pdfrwt>
<pdfrwt beam="2">  1       -2 0.13632412E+00 0.31421295E+04</pdfrwt>
<totfact> 0.76782011E-01</totfact>
</mgrwt>
</event>
<event>
12    3  0.4769008E-008  0.1582038E+04  0.7818608E-02  0.8831659E-01
          1   -1    0    0  501    0  0.00000000000E+00  0.00000000000E+00  0.23829354000E+04  0.23829354000E+04  0.00000000000E+00 0. -1.
         -1   -1    0    0    0  501 -0.00000000000E+00 -0.00000000000E+00 -0.26258009875E+03  0.26258009875E+03  0.00000000000E+00 0.  1.
         23    2    1    2    0    0 -0.28588711320E+03  0.49524283353E+01  0.14896474361E+04  0.15194272590E+04  0.88621348641E+02 0.  0.
        254    2    1    2    0    0  0.28588711320E+03 -0.49524283353E+01  0.63070786510E+03  0.11260882397E+04  0.88799005878E+03 0.  0.
         23    2    4    4    0    0  0.59241257815E+03 -0.71280042969E+02  0.44901544409E+03  0.75237962079E+03  0.91797153992E+02 0.  0.
         23    2    4    4    0    0 -0.30652546495E+03  0.66327614634E+02  0.18169242101E+03  0.37370861892E+03  0.91042753019E+02 0.  0.
          2    1    3    3  502    0 -0.84729051683E+02 -0.33622487461E+02  0.57033455861E+03  0.57757336556E+03  0.00000000000E+00 0.  1.
         -2    1    3    3    0  502 -0.20115806151E+03  0.38574915796E+02  0.91931287754E+03  0.94185389347E+03  0.00000000000E+00 0. -1.
         13    1    5    5    0    0  0.14199570621E+03  0.18474634672E+02  0.86669468591E+02  0.16737888007E+03  0.00000000000E+00 0.  1.
        -13    1    5    5    0    0  0.45041687194E+03 -0.89754677641E+02  0.36234597550E+03  0.58500074072E+03  0.00000000000E+00 0. -1.
          1    1    6    6  503    0 -0.30535317663E+03  0.50818914498E+02  0.17995240634E+03  0.35805864477E+03  0.00000000000E+00 0. -1.
         -1    1    6    6    0  503 -0.11722883200E+01  0.15508700136E+02  0.17400146737E+01  0.15649974150E+02  0.00000000000E+00 0.  1.
<mgrwt>
<rscale>  0 0.15820384E+04</rscale>
<asrwt>0</asrwt>
<pdfrwt beam="1">  1        1 0.36660543E+00 0.15820384E+04</pdfrwt>
<pdfrwt beam="2">  1       -1 0.40396940E-01 0.15820384E+04</pdfrwt>
<totfact> 0.93975511E+00</totfact>
</mgrwt>
</event>
<event>
12    3  0.4769008E-008  0.2054243E+04  0.7818608E-02  0.8581672E-01
          2   -1    0    0  501    0  0.00000000000E+00  0.00000000000E+00  0.41422516668E+04  0.41422516668E+04  0.00000000000E+00 0. -1.
         -2   -1    0    0    0  501 -0.00000000000E+00 -0.00000000000E+00 -0.25468715567E+03  0.25468715567E+03  0.00000000000E+00 0.  1.
         23    2    1    2    0    0  0.53367044328E+03 -0.50808506048E+03  0.77010265217E+03  0.10701889096E+04  0.96393135555E+02 0.  0.
        254    2    1    2    0    0 -0.53367044328E+03  0.50808506048E+03  0.31174618590E+04  0.33267499129E+04  0.89763131085E+03 0.  0.
         23    2    4    4    0    0 -0.54020466968E+03  0.66592418154E+01  0.22913798470E+04  0.23560691376E+04  0.93673620545E+02 0.  0.
         23    2    4    4    0    0  0.65342264011E+01  0.50142581867E+03  0.82608201195E+03  0.97068077530E+03  0.91318833473E+02 0.  0.
          2    1    3    3  502    0  0.28681341363E+03 -0.21595767556E+03  0.33736653279E+03  0.49266198282E+03  0.00000000000E+00 0. -1.
         -2    1    3    3    0  502  0.24685702966E+03 -0.29212738493E+03  0.43273611938E+03  0.57752692676E+03  0.00000000000E+00 0.  1.
         13    1    5    5    0    0 -0.32853037820E+03  0.42517907422E+02  0.14946174028E+04  0.15308890105E+04  0.00000000000E+00 0. -1.
        -13    1    5    5    0    0 -0.21167429148E+03 -0.35858665606E+02  0.79676244424E+03  0.82518012708E+03  0.00000000000E+00 0.  1.
          4    1    6    6  503    0  0.67927165221E+01  0.10909883491E+03  0.11575768499E+03  0.15921224328E+03  0.00000000000E+00 0. -1.
         -4    1    6    6    0  503 -0.25849012103E+00  0.39232698376E+03  0.71032432695E+03  0.81146853202E+03  0.00000000000E+00 0.  1.
<mgrwt>
<rscale>  0 0.20542427E+04</rscale>
<asrwt>0</asrwt>
<pdfrwt beam="1">  1        2 0.63726944E+00 0.20542427E+04</pdfrwt>
<pdfrwt beam="2">  1       -2 0.39182643E-01 0.20542427E+04</pdfrwt>
<totfact> 0.15014440E+00</totfact>
</mgrwt>
</event>
<event>
12    3  0.4769008E-008  0.2423490E+04  0.7818608E-02  0.8430761E-01
         -1   -1    0    0    0  501 -0.00000000000E+00  0.00000000000E+00  0.49542844289E+03  0.49542844289E+03  0.00000000000E+00 0.  1.
          1   -1    0    0  501    0  0.00000000000E+00 -0.00000000000E+00 -0.29637498926E+04  0.29637498926E+04  0.00000000000E+00 0. -1.
         23    2    1    2    0    0  0.78082422469E+03  0.60135415779E+03 -0.13278623802E+04  0.16561578356E+04  0.91252302613E+02 0.  0.
        254    2    1    2    0    0 -0.78082422469E+03 -0.60135415779E+03 -0.11404590696E+04  0.18030204999E+04  0.98940524603E+03 0.  0.
         23    2    4    4    0    0  0.14832834343E+03 -0.27634145036E+03 -0.58209578207E+03  0.66762410197E+03  0.92306811147E+02 0.  0.
         23    2    4    4    0    0 -0.92915256812E+03 -0.32501270743E+03 -0.55836328750E+03  0.11353963980E+04  0.91638773693E+02 0.  0.
          1    1    3    3  502    0  0.43331945503E+03  0.34725586426E+03 -0.67373025592E+03  0.87307779901E+03  0.00000000000E+00 0. -1.
         -1    1    3    3    0  502  0.34750476966E+03  0.25409829353E+03 -0.65413212426E+03  0.78308003658E+03  0.00000000000E+00 0.  1.
         13    1    5    5    0    0  0.14480893771E+03 -0.22834876445E+03 -0.42862816785E+03  0.50678880506E+03  0.00000000000E+00 0.  1.
        -13    1    5    5    0    0  0.35194057147E+01 -0.47992685917E+02 -0.15346761422E+03  0.16083529691E+03  0.00000000000E+00 0. -1.
          3    1    6    6  503    0 -0.24722812382E+03 -0.49876806979E+02 -0.16589590941E+03  0.30187893905E+03  0.00000000000E+00 0. -1.
         -3    1    6    6    0  503 -0.68192444430E+03 -0.27513590045E+03 -0.39246737809E+03  0.83351745892E+03  0.00000000000E+00 0.  1.
<mgrwt>
<rscale>  0 0.24234900E+04</rscale>
<asrwt>0</asrwt>
<pdfrwt beam="1">  1        1 0.45596152E+00 0.24234900E+04</pdfrwt>
<pdfrwt beam="2">  1       -1 0.76219761E-01 0.24234900E+04</pdfrwt>
<totfact> 0.98198623E-01</totfact>
</mgrwt>
</event>
<event>
12    3  0.4769008E-008  0.2734130E+04  0.7818608E-02  0.8324015E-01
         -2   -1    0    0    0  501 -0.00000000000E+00  0.00000000000E+00  0.16172737758E+04  0.16172737758E+04  0.00000000000E+00 0.  1.
          2   -1    0    0  501    0  0.00000000000E+00 -0.00000000000E+00 -0.11555663365E+04  0.11555663365E+04  0.00000000000E+00 0. -1.
         23    2    1    2    0    0  0.46453126484E+03  0.10272882936E+04 -0.24172862355E+03  0.11565883943E+04  0.90296468143E+02 0.  0.
        254    2    1    2    0    0 -0.46453126484E+03 -0.10272882936E+04  0.70343606294E+03  0.16162517180E+04  0.91996564444E+03 0.  0.
         23    2    4    4    0    0  0.20069454512E+03 -0.12873937916E+03  0.36346405218E+03  0.44424998165E+03  0.91650427072E+02 0.  0.
         23    2    4    4    0    0 -0.66522580996E+03 -0.89854891448E+03  0.33997201076E+03  0.11720017363E+04  0.89953165012E+02 0.  0.
          3    1    3    3  502    0  0.28198089543E+03  0.68062967555E+03 -0.12082938971E+03  0.74657198048E+03  0.00000000000E+00 0. -1.
         -3    1    3    3    0  502  0.18255036941E+03  0.34665861809E+03 -0.12089923384E+03  0.41001641383E+03  0.00000000000E+00 0.  1.
         13    1    5    5    0    0  0.20347968330E+03 -0.11579632183E+03  0.30605536201E+03  0.38533447066E+03  0.00000000000E+00 0.  1.
        -13    1    5    5    0    0 -0.27851381837E+01 -0.12943057329E+02  0.57408690177E+02  0.58915510993E+02  0.00000000000E+00 0. -1.
          2    1    6    6  503    0 -0.28426275338E+03 -0.45064025170E+03  0.13960570138E+03  0.55079188563E+03  0.00000000000E+00 0.  1.
         -2    1    6    6    0  503 -0.38096305658E+03 -0.44790866278E+03  0.20036630937E+03  0.62120985070E+03  0.00000000000E+00 0. -1.
<mgrwt>
<rscale>  0 0.27341303E+04</rscale>
<asrwt>0</asrwt>
<pdfrwt beam="1">  1        2 0.17777944E+00 0.27341303E+04</pdfrwt>
<pdfrwt beam="2">  1       -2 0.24881135E+00 0.27341303E+04</pdfrwt>
<totfact> 0.11517577E+00</totfact>
</mgrwt>
</event>
<event>
12    3  0.4769008E-008  0.1517600E+04  0.7818608E-02  0.8872833E-01
          1   -1    0    0  501    0  0.00000000000E+00  0.00000000000E+00  0.34956210867E+03  0.34956210867E+03  0.00000000000E+00 0. -1.
         -1   -1    0    0    0  501 -0.00000000000E+00 -0.00000000000E+00 -0.16471395121E+04  0.16471395121E+04  0.00000000000E+00 0.  1.
         23    2    1    2    0    0  0.27067664950E+03  0.34461399665E+03 -0.69094339488E+03  0.82323857346E+03  0.91073149815E+02 0.  0.
        254    2    1    2    0    0 -0.27067664950E+03 -0.34461399665E+03 -0.60663400855E+03  0.11734630473E+04  0.90387280512E+03 0.  0.
         23    2    4    4    0    0  0.19310543013E+03  0.18101420674E+03 -0.27695350427E+03  0.39394585307E+03  0.91838126237E+02 0.  0.
         23    2    4    4    0    0 -0.46378207964E+03 -0.52562820340E+03 -0.32968050428E+03  0.77951719426E+03  0.87057427276E+02 0.  0.
          4    1    3    3  502    0  0.81053180651E+02  0.52770259818E+02 -0.11456079014E+03  0.14992829303E+03  0.00000000000E+00 0. -1.
         -4    1    3    3    0  502  0.18962346885E+03  0.29184373683E+03 -0.57638260475E+03  0.67331028042E+03  0.00000000000E+00 0.  1.
         13    1    5    5    0    0  0.51239870747E+02  0.70422095121E+02 -0.15113116520E+03  0.17442885349E+03  0.00000000000E+00 0.  1.
        -13    1    5    5    0    0  0.14186555939E+03  0.11059211162E+03 -0.12582233907E+03  0.21951699957E+03  0.00000000000E+00 0. -1.
          2    1    6    6  503    0 -0.45453176068E+03 -0.51143400192E+03 -0.33490062215E+03  0.76178887266E+03  0.00000000000E+00 0. -1.
         -2    1    6    6    0  503 -0.92503189582E+01 -0.14194201475E+02  0.52201178657E+01  0.17728321604E+02  0.00000000000E+00 0.  1.
<mgrwt>
<rscale>  0 0.15176002E+04</rscale>
<asrwt>0</asrwt>
<pdfrwt beam="1">  1        1 0.53778785E-01 0.15176002E+04</pdfrwt>
<pdfrwt beam="2">  1       -1 0.25340608E+00 0.15176002E+04</pdfrwt>
<totfact> 0.45931740E+00</totfact>
</mgrwt>
</event>
<event>
12    3  0.4769008E-008  0.1432168E+04  0.7818608E-02  0.8930858E-01
         -3   -1    0    0    0  501 -0.00000000000E+00  0.00000000000E+00  0.95246275110E+03  0.95246275110E+03  0.00000000000E+00 0.  1.
          3   -1    0    0  501    0  0.00000000000E+00 -0.00000000000E+00 -0.53836862897E+03  0.53836862897E+03  0.00000000000E+00 0. -1.
         23    2    1    2    0    0  0.31500935728E+03 -0.41600646830E+01  0.42277188300E+03  0.53505131307E+03  0.91080410875E+02 0.  0.
        254    2    1    2    0    0 -0.31500935728E+03  0.41600646830E+01 -0.86777608681E+01  0.95578006699E+03  0.90232590100E+03 0.  0.
         23    2    4    4    0    0  0.52198128137E+02  0.38796466890E+03  0.77174410254E+02  0.40983619706E+03  0.93640749276E+02 0.  0.
         23    2    4    4    0    0 -0.36720748542E+03 -0.38380460421E+03 -0.85852171122E+02  0.54594386994E+03  0.92394817345E+02 0.  0.
          3    1    3    3  502    0  0.37426807230E+02 -0.52772319892E+01  0.11275675439E+03  0.11892308749E+03  0.00000000000E+00 0. -1.
         -3    1    3    3    0  502  0.27758255005E+03  0.11171673061E+01  0.31001512861E+03  0.41612822558E+03  0.00000000000E+00 0.  1.
         13    1    5    5    0    0  0.40984999466E+02  0.19162339642E+03  0.83658424799E+02  0.21306813060E+03  0.00000000000E+00 0. -1.
        -13    1    5    5    0    0  0.11213128671E+02  0.19634127248E+03 -0.64840145448E+01  0.19676806646E+03  0.00000000000E+00 0.  1.
          4    1    6    6  503    0 -0.21467332002E+03 -0.25118914822E+03 -0.11646448786E+02  0.33063009887E+03  0.00000000000E+00 0. -1.
         -4    1    6    6    0  503 -0.15253416540E+03 -0.13261545600E+03 -0.74205722336E+02  0.21531377107E+03  0.00000000000E+00 0.  1.
<mgrwt>
<rscale>  0 0.14321677E+04</rscale>
<asrwt>0</asrwt>
<pdfrwt beam="1">  1        3 0.82825943E-01 0.14321677E+04</pdfrwt>
<pdfrwt beam="2">  1       -3 0.14653273E+00 0.14321677E+04</pdfrwt>
<totfact> 0.11734742E+00</totfact>
</mgrwt>
</event>
<event>
12    3  0.4769008E-008  0.1709433E+04  0.7818608E-02  0.8756002E-01
         -1   -1    0    0    0  501 -0.00000000000E+00  0.00000000000E+00  0.29181302658E+03  0.29181302658E+03  0.00000000000E+00 0.  1.
          1   -1    0    0  501    0  0.00000000000E+00 -0.00000000000E+00 -0.25034547844E+04  0.25034547844E+04  0.00000000000E+00 0. -1.
         23    2    1    2    0    0 -0.69893530134E+02 -0.36581410023E+03 -0.26806087574E+01  0.37908106255E+03  0.70641381940E+02 0.  0.
        254    2    1    2    0    0  0.69893530134E+02  0.36581410023E+03 -0.22089611490E+04  0.24161867484E+04  0.90539714142E+03 0.  0.
         23    2    4    4    0    0  0.27778614649E+03  0.55780681214E+03 -0.18231640724E+04  0.19288803929E+04  0.91316768318E+02 0.  0.
         23    2    4    4    0    0 -0.20789261636E+03 -0.19199271191E+03 -0.38579707660E+03  0.48730635552E+03  0.92453006686E+02 0.  0.
          4    1    3    3  502    0 -0.62623500064E+02 -0.14701974922E+03  0.69693924335E+01  0.15995337399E+03  0.00000000000E+00 0. -1.
         -4    1    3    3    0  502 -0.72700300699E+01 -0.21879435101E+03 -0.96500011909E+01  0.21912768856E+03  0.00000000000E+00 0.  1.
         13    1    5    5    0    0  0.40131983024E+02  0.12937297120E+03 -0.49632965362E+03  0.51448135710E+03  0.00000000000E+00 0.  1.
        -13    1    5    5    0    0  0.23765416347E+03  0.42843384094E+03 -0.13268344188E+04  0.14143990358E+04  0.00000000000E+00 0. -1.
          1    1    6    6  503    0 -0.21511930285E+03 -0.16898886874E+03 -0.35246208893E+03  0.44616485333E+03  0.00000000000E+00 0. -1.
         -1    1    6    6    0  503  0.72266864940E+01 -0.23003843178E+02 -0.33334987675E+02  0.41141502184E+02  0.00000000000E+00 0.  1.
<mgrwt>
<rscale>  0 0.17094335E+04</rscale>
<asrwt>0</asrwt>
<pdfrwt beam="1">  1        1 0.38514690E+00 0.17094335E+04</pdfrwt>
<pdfrwt beam="2">  1       -1 0.44894311E-01 0.17094335E+04</pdfrwt>
<totfact> 0.63110815E+00</totfact>
</mgrwt>
</event>
<event>
12    3  0.4769008E-008  0.1536218E+04  0.7818608E-02  0.8860719E-01
         -2   -1    0    0    0  501 -0.00000000000E+00  0.00000000000E+00  0.16166015935E+03  0.16166015935E+03  0.00000000000E+00 0.  1.
          2   -1    0    0  501    0  0.00000000000E+00 -0.00000000000E+00 -0.36495798588E+04  0.36495798588E+04  0.00000000000E+00 0. -1.
         23    2    1    2    0    0  0.34230633802E+03  0.30572359745E+03 -0.10302195304E+04  0.11315679513E+04  0.91941288287E+02 0.  0.
        254    2    1    2    0    0 -0.34230633802E+03 -0.30572359745E+03 -0.24577001690E+04  0.26796720668E+04  0.96421559719E+03 0.  0.
         23    2    4    4    0    0  0.17927737745E+03  0.22418181255E+03 -0.93947040741E+03  0.98664703744E+03  0.92031880019E+02 0.  0.
         23    2    4    4    0    0 -0.52158371547E+03 -0.52990541000E+03 -0.15182297616E+04  0.16930250294E+04  0.91993615630E+02 0.  0.
          3    1    3    3  502    0 -0.49147507146E+01  0.11802888428E+02 -0.36310758970E+02  0.38495898052E+02  0.00000000000E+00 0. -1.
         -3    1    3    3    0  502  0.34722108874E+03  0.29392070902E+03 -0.99390877145E+03  0.10930720533E+04  0.00000000000E+00 0.  1.
         13    1    5    5    0    0  0.18028370385E+03  0.19530436772E+03 -0.76640219210E+03  0.81118329000E+03  0.00000000000E+00 0. -1.
        -13    1    5    5    0    0 -0.10063264028E+01  0.28877444837E+02 -0.17306821532E+03  0.17546374744E+03  0.00000000000E+00 0.  1.
          1    1    6    6  503    0 -0.24610797835E+03 -0.20797523885E+03 -0.73521472290E+03  0.80272257085E+03  0.00000000000E+00 0. -1.
         -1    1    6    6    0  503 -0.27547573712E+03 -0.32193017115E+03 -0.78301503868E+03  0.89030245852E+03  0.00000000000E+00 0.  1.
<mgrwt>
<rscale>  0 0.15362183E+04</rscale>
<asrwt>0</asrwt>
<pdfrwt beam="1">  1        2 0.56147378E+00 0.15362183E+04</pdfrwt>
<pdfrwt beam="2">  1       -2 0.24870796E-01 0.15362183E+04</pdfrwt>
<totfact> 0.90100074E+00</totfact>
</mgrwt>
</event>
<event>
12    3  0.4769008E-008  0.1299843E+04  0.7818608E-02  0.9029690E-01
          1   -1    0    0  501    0  0.00000000000E+00  0.00000000000E+00  0.27348626531E+04  0.27348626531E+04  0.00000000000E+00 0. -1.
         -1   -1    0    0    0  501 -0.00000000000E+00 -0.00000000000E+00 -0.15444945818E+03  0.15444945818E+03  0.00000000000E+00 0.  1.
         23    2    1    2    0    0  0.24504723668E+03  0.64801870410E+02  0.11321544718E+04  0.11638525492E+04  0.92366539826E+02 0.  0.
        254    2    1    2    0    0 -0.24504723668E+03 -0.64801870410E+02  0.14482587231E+04  0.17254595621E+04  0.90305589008E+03 0.  0.
         23    2    4    4    0    0  0.21298033190E+03 -0.11904496197E+03  0.70729913859E+02  0.26990657226E+03  0.91183947551E+02 0.  0.
         23    2    4    4    0    0 -0.45802756857E+03  0.54243091561E+02  0.13775288093E+04  0.14555529898E+04  0.91199337770E+02 0.  0.
          4    1    3    3  502    0  0.17615975581E+03  0.57368830993E+02  0.96970145015E+03  0.98724077345E+03  0.00000000000E+00 0. -1.
         -4    1    3    3    0  502  0.68887480868E+02  0.74330394172E+01  0.16245302165E+03  0.17661177577E+03  0.00000000000E+00 0.  1.
         13    1    5    5    0    0  0.16327430641E+03 -0.11924573654E+03  0.83243293892E+02  0.21864924147E+03  0.00000000000E+00 0.  1.
        -13    1    5    5    0    0  0.49706025487E+02  0.20077457333E+00 -0.12513380034E+02  0.51257330793E+02  0.00000000000E+00 0. -1.
          3    1    6    6  503    0 -0.79250271276E+02  0.87704264024E+01  0.14684758453E+03  0.16709799209E+03  0.00000000000E+00 0. -1.
         -3    1    6    6    0  503 -0.37877729730E+03  0.45472665159E+02  0.12306812247E+04  0.12884549977E+04  0.00000000000E+00 0.  1.
<mgrwt>
<rscale>  0 0.12998432E+04</rscale>
<asrwt>0</asrwt>
<pdfrwt beam="1">  1        1 0.42074806E+00 0.12998432E+04</pdfrwt>
<pdfrwt beam="2">  1       -1 0.23761457E-01 0.12998432E+04</pdfrwt>
<totfact> 0.14018120E+01</totfact>
</mgrwt>
</event>
<event>
12    3  0.4769008E-008  0.1338562E+04  0.7818608E-02  0.8999532E-01
         -1   -1    0    0    0  501 -0.00000000000E+00  0.00000000000E+00  0.20931637721E+03  0.20931637721E+03  0.00000000000E+00 0.  1.
          1   -1    0    0  501    0  0.00000000000E+00 -0.00000000000E+00 -0.21399984929E+04  0.21399984929E+04  0.00000000000E+00 0. -1.
         23    2    1    2    0    0 -0.51011962470E+02  0.33282919404E+03 -0.71897253716E+03  0.79854481525E+03  0.85876772481E+02 0.  0.
        254    2    1    2    0    0  0.51011962470E+02 -0.33282919404E+03 -0.12117095785E+04  0.15507700549E+04  0.90734236516E+03 0.  0.
         23    2    4    4    0    0  0.29544449291E+03 -0.45801343558E+03 -0.11179621858E+04  0.12470462990E+04  0.90671204301E+02 0.  0.
         23    2    4    4    0    0 -0.24443253044E+03  0.12518424154E+03 -0.93747392733E+02  0.30372375591E+03  0.89672682540E+02 0.  0.
          3    1    3    3  502    0 -0.70304544918E+02  0.26393165345E+03 -0.60763120082E+03  0.66619691003E+03  0.00000000000E+00 0. -1.
         -3    1    3    3    0  502  0.19292582448E+02  0.68897540594E+02 -0.11134133634E+03  0.13234790522E+03  0.00000000000E+00 0.  1.
         13    1    5    5    0    0  0.25930435333E+03 -0.44112407902E+03 -0.10165422075E+04  0.11380629422E+04  0.00000000000E+00 0. -1.
        -13    1    5    5    0    0  0.36140139576E+02 -0.16889356556E+02 -0.10141997827E+03  0.10898335674E+03  0.00000000000E+00 0.  1.
          3    1    6    6  503    0 -0.12743199500E+03  0.45978789794E+02 -0.24330942879E+01  0.13549495345E+03  0.00000000000E+00 0. -1.
         -3    1    6    6    0  503 -0.11700053543E+03  0.79205451743E+02 -0.91314298445E+02  0.16822880246E+03  0.00000000000E+00 0.  1.
<mgrwt>
<rscale>  0 0.13385615E+04</rscale>
<asrwt>0</asrwt>
<pdfrwt beam="1">  1        1 0.32923054E+00 0.13385615E+04</pdfrwt>
<pdfrwt beam="2">  1       -1 0.32202519E-01 0.13385615E+04</pdfrwt>
<totfact> 0.21151834E+01</totfact>
</mgrwt>
</event>
<event>
12    3  0.4769008E-008  0.1354412E+04  0.7818608E-02  0.8987495E-01
          2   -1    0    0  501    0  0.00000000000E+00  0.00000000000E+00  0.64448328241E+03  0.64448328241E+03  0.00000000000E+00 0. -1.
         -2   -1    0    0    0  501 -0.00000000000E+00 -0.00000000000E+00 -0.71158981126E+03  0.71158981126E+03  0.00000000000E+00 0.  1.
         23    2    1    2    0    0 -0.97064489684E+02  0.43739496733E+02  0.34243474265E+03  0.36989507627E+03  0.90698157312E+02 0.  0.
        254    2    1    2    0    0  0.97064489684E+02 -0.43739496733E+02 -0.40954127150E+03  0.98617801740E+03  0.89077964178E+03 0.  0.
         23    2    4    4    0    0 -0.36282746538E+03  0.11806301718E+03 -0.24959585808E+03  0.46525127009E+03  0.92617526915E+02 0.  0.
         23    2    4    4    0    0  0.45989195506E+03 -0.16180251391E+03 -0.15994541342E+03  0.52092674731E+03  0.90008204896E+02 0.  0.
          1    1    3    3  502    0 -0.10821242935E+03  0.15867033052E+02  0.28052345533E+03  0.30108985635E+03  0.00000000000E+00 0. -1.
         -1    1    3    3    0  502  0.11147939669E+02  0.27872463681E+02  0.61911287321E+02  0.68805219920E+02  0.00000000000E+00 0.  1.
         13    1    5    5    0    0 -0.15304610089E+03  0.49906026089E+02 -0.16062697281E+03  0.22740876155E+03  0.00000000000E+00 0.  1.
        -13    1    5    5    0    0 -0.20978136449E+03  0.68156991092E+02 -0.88968885273E+02  0.23784250854E+03  0.00000000000E+00 0. -1.
          3    1    6    6  503    0  0.37029139215E+03 -0.12322979103E+03 -0.16394149136E+03  0.42329435277E+03  0.00000000000E+00 0. -1.
         -3    1    6    6    0  503  0.89600562910E+02 -0.38572722885E+02  0.39960779368E+01  0.97632394540E+02  0.00000000000E+00 0.  1.
<mgrwt>
<rscale>  0 0.13544117E+04</rscale>
<asrwt>0</asrwt>
<pdfrwt beam="1">  1        2 0.99151275E-01 0.13544117E+04</pdfrwt>
<pdfrwt beam="2">  1       -2 0.10947536E+00 0.13544117E+04</pdfrwt>
<totfact> 0.29493407E+01</totfact>
</mgrwt>
</event>
<event>
12    3  0.4769008E-008  0.3255944E+04  0.7818608E-02  0.8174197E-01
         -1   -1    0    0    0  501 -0.00000000000E+00  0.00000000000E+00  0.21414702644E+04  0.21414702644E+04  0.00000000000E+00 0.  1.
          1   -1    0    0  501    0  0.00000000000E+00 -0.00000000000E+00 -0.12376044843E+04  0.12376044843E+04  0.00000000000E+00 0. -1.
         23    2    1    2    0    0 -0.44055217811E+03  0.24267139354E+02 -0.10705346154E+04  0.11621251785E+04  0.99072963452E+02 0.  0.
        254    2    1    2    0    0  0.44055217811E+03 -0.24267139354E+02  0.19744003956E+04  0.22169495702E+04  0.90660540429E+03 0.  0.
         23    2    4    4    0    0 -0.20236495877E+03 -0.22107883201E+03  0.45061795950E+03  0.54887487085E+03  0.91540438721E+02 0.  0.
         23    2    4    4    0    0  0.64291713688E+03  0.19681169266E+03  0.15237824361E+04  0.16680746994E+04  0.92103218724E+02 0.  0.
          4    1    3    3  502    0 -0.60720364507E+02 -0.12897590072E+02 -0.84827257376E+02  0.10511410034E+03  0.00000000000E+00 0.  1.
         -4    1    3    3    0  502 -0.37983181361E+03  0.37164729426E+02 -0.98570735800E+03  0.10570110782E+04  0.00000000000E+00 0. -1.
         13    1    5    5    0    0 -0.19808677422E+03 -0.21668464495E+03  0.45488953174E+03  0.54140104503E+03  0.00000000000E+00 0. -1.
        -13    1    5    5    0    0 -0.42781845436E+01 -0.43941870647E+01 -0.42715722351E+01  0.74738258147E+01  0.00000000000E+00 0.  1.
          3    1    6    6  503    0  0.32825352508E+03  0.56960204273E+02  0.79777307247E+03  0.86454422487E+03  0.00000000000E+00 0. -1.
         -3    1    6    6    0  503  0.31466361180E+03  0.13985148838E+03  0.72600936360E+03  0.80353047448E+03  0.00000000000E+00 0.  1.
<mgrwt>
<rscale>  0 0.32559442E+04</rscale>
<asrwt>0</asrwt>
<pdfrwt beam="1">  1        1 0.19040069E+00 0.32559442E+04</pdfrwt>
<pdfrwt beam="2">  1       -1 0.32945696E+00 0.32559442E+04</pdfrwt>
<totfact> 0.17725218E-01</totfact>
</mgrwt>
</event>
<event>
12    3  0.4769008E-008  0.1313576E+04  0.7818608E-02  0.9018868E-01
         -2   -1    0    0    0  501 -0.00000000000E+00  0.00000000000E+00  0.37478229685E+03  0.37478229685E+03  0.00000000000E+00 0.  1.
          2   -1    0    0  501    0  0.00000000000E+00 -0.00000000000E+00 -0.11509900827E+04  0.11509900827E+04  0.00000000000E+00 0. -1.
         23    2    1    2    0    0 -0.12173681773E+03  0.23376597187E+03  0.35252802238E+02  0.28487025347E+03  0.10218570769E+03 0.  0.
        254    2    1    2    0    0  0.12173681773E+03 -0.23376597187E+03 -0.81146058812E+03  0.12409021261E+04  0.90105683401E+03 0.  0.
         23    2    4    4    0    0  0.45314840197E+03 -0.34590771375E+03 -0.50951748478E+03  0.77011665875E+03  0.92065086448E+02 0.  0.
         23    2    4    4    0    0 -0.33141158424E+03  0.11214174188E+03 -0.30194310334E+03  0.47078546736E+03  0.89777002535E+02 0.  0.
          4    1    3    3  502    0 -0.16702591149E+01  0.15789684669E+02  0.32305068589E+02  0.35996129847E+02  0.00000000000E+00 0. -1.
         -4    1    3    3    0  502 -0.12006655861E+03  0.21797628720E+03  0.29477336498E+01  0.24887412363E+03  0.00000000000E+00 0.  1.
         13    1    5    5    0    0  0.22764502948E+03 -0.18482948791E+03 -0.20154138017E+03  0.35581333164E+03  0.00000000000E+00 0. -1.
        -13    1    5    5    0    0  0.22550337248E+03 -0.16107822584E+03 -0.30797610461E+03  0.41430332711E+03  0.00000000000E+00 0.  1.
          1    1    6    6  503    0 -0.31462364294E+02  0.42528353749E+02 -0.36822279698E+02  0.64454802162E+02  0.00000000000E+00 0. -1.
         -1    1    6    6    0  503 -0.29994921995E+03  0.69613388135E+02 -0.26512082364E+03  0.40633066520E+03  0.00000000000E+00 0.  1.
<mgrwt>
<rscale>  0 0.13135764E+04</rscale>
<asrwt>0</asrwt>
<pdfrwt beam="1">  1        2 0.17707540E+00 0.13135764E+04</pdfrwt>
<pdfrwt beam="2">  1       -2 0.57658815E-01 0.13135764E+04</pdfrwt>
<totfact> 0.55920394E+01</totfact>
</mgrwt>
</event>
<event>
12    3  0.4769008E-008  0.2284103E+04  0.7818608E-02  0.8484216E-01
          2   -1    0    0  501    0  0.00000000000E+00  0.00000000000E+00  0.20890658293E+04  0.20890658293E+04  0.00000000000E+00 0. -1.
         -2   -1    0    0    0  501 -0.00000000000E+00 -0.00000000000E+00 -0.62433719808E+03  0.62433719808E+03  0.00000000000E+00 0.  1.
         23    2    1    2    0    0  0.30626542285E+03  0.90038855878E+03  0.79370222673E+03  0.12419369289E+04  0.89140588570E+02 0.  0.
        254    2    1    2    0    0 -0.30626542285E+03 -0.90038855878E+03  0.67102640453E+03  0.14714660986E+04  0.90024328802E+03 0.  0.
         23    2    4    4    0    0 -0.38212266344E+03 -0.59724580190E+03 -0.12495019278E+02  0.71468826705E+03  0.88898345015E+02 0.  0.
         23    2    4    4    0    0  0.75857240591E+02 -0.30314275688E+03  0.68352142381E+03  0.75677783151E+03  0.88663958073E+02 0.  0.
          4    1    3    3  502    0  0.13168551552E+03  0.45328128424E+03  0.44445657603E+03  0.64834145758E+03  0.00000000000E+00 0. -1.
         -4    1    3    3    0  502  0.17457990733E+03  0.44710727454E+03  0.34924565070E+03  0.59359547128E+03  0.00000000000E+00 0.  1.
         13    1    5    5    0    0 -0.19488980473E+03 -0.22338950206E+03 -0.39013646392E+01  0.29647955454E+03  0.00000000000E+00 0.  1.
        -13    1    5    5    0    0 -0.18723285871E+03 -0.37385629984E+03 -0.85936546392E+01  0.41820871250E+03  0.00000000000E+00 0. -1.
          1    1    6    6  503    0 -0.22342181029E+01  0.50147871146E+01  0.24251601573E+02  0.24865236761E+02  0.00000000000E+00 0. -1.
         -1    1    6    6    0  503  0.78091458694E+02 -0.30815754400E+03  0.65926982224E+03  0.73191259475E+03  0.00000000000E+00 0.  1.
<mgrwt>
<rscale>  0 0.22841029E+04</rscale>
<asrwt>0</asrwt>
<pdfrwt beam="1">  1        2 0.32139474E+00 0.22841029E+04</pdfrwt>
<pdfrwt beam="2">  1       -2 0.96051878E-01 0.22841029E+04</pdfrwt>
<totfact> 0.49129583E+00</totfact>
</mgrwt>
</event>
<event>
12    3  0.4769008E-008  0.1602707E+04  0.7818608E-02  0.8818887E-01
         -2   -1    0    0    0  501 -0.00000000000E+00  0.00000000000E+00  0.40615302129E+03  0.40615302129E+03  0.00000000000E+00 0. -1.
          2   -1    0    0  501    0  0.00000000000E+00 -0.00000000000E+00 -0.15810971592E+04  0.15810971592E+04  0.00000000000E+00 0.  1.
         23    2    1    2    0    0 -0.33606083571E+02  0.22506258127E+03 -0.10134700341E+04  0.10429710372E+04  0.94257838206E+02 0.  0.
        254    2    1    2    0    0  0.33606083571E+02 -0.22506258127E+03 -0.16147410375E+03  0.94427914325E+03  0.90211234326E+03 0.  0.
         23    2    4    4    0    0 -0.39512269557E+03  0.26995882437E+02 -0.16303556877E+03  0.43768561640E+03  0.90207427083E+02 0.  0.
         23    2    4    4    0    0  0.42872877914E+03 -0.25205846370E+03  0.15614650132E+01  0.50659352685E+03  0.96398797119E+02 0.  0.
          2    1    3    3  502    0 -0.31187827166E+02  0.36320838786E+02 -0.10955983878E+03  0.11956271227E+03  0.00000000000E+00 0. -1.
         -2    1    3    3    0  502 -0.24182564051E+01  0.18874174248E+03 -0.90391019536E+03  0.92340832496E+03  0.00000000000E+00 0.  1.
         13    1    5    5    0    0 -0.28078841294E+03  0.35416651514E+02 -0.73997684050E+02  0.29252714282E+03  0.00000000000E+00 0. -1.
        -13    1    5    5    0    0 -0.11433428263E+03 -0.84207690780E+01 -0.89037884717E+02  0.14515847358E+03  0.00000000000E+00 0.  1.
          2    1    6    6  503    0  0.31690711160E+03 -0.19249119190E+03  0.43045186031E+02  0.37327719510E+03  0.00000000000E+00 0.  1.
         -2    1    6    6    0  503  0.11182166754E+03 -0.59567271801E+02 -0.41483721018E+02  0.13331633175E+03  0.00000000000E+00 0. -1.
<mgrwt>
<rscale>  0 0.16027069E+04</rscale>
<asrwt>0</asrwt>
<pdfrwt beam="1">  1        2 0.24324571E+00 0.16027069E+04</pdfrwt>
<pdfrwt beam="2">  1       -2 0.62485081E-01 0.16027069E+04</pdfrwt>
<totfact> 0.26025966E+01</totfact>
</mgrwt>
</event>
<event>
12    3  0.4769008E-008  0.3904819E+04  0.7818608E-02  0.8024028E-01
          1   -1    0    0  501    0  0.00000000000E+00  0.00000000000E+00  0.30028563107E+04  0.30028563107E+04  0.00000000000E+00 0. -1.
         -1   -1    0    0    0  501 -0.00000000000E+00 -0.00000000000E+00 -0.12694253356E+04  0.12694253356E+04  0.00000000000E+00 0.  1.
         23    2    1    2    0    0 -0.28874734629E+03 -0.12873680624E+02 -0.11736744845E+04  0.12118310321E+04  0.86497937090E+02 0.  0.
        254    2    1    2    0    0  0.28874734629E+03  0.12873680624E+02  0.29071054596E+04  0.30604506142E+04  0.91189640148E+03 0.  0.
         23    2    4    4    0    0  0.28923417595E+03  0.36691181169E+03  0.87949824663E+03  0.10001343996E+04  0.92037847289E+02 0.  0.
         23    2    4    4    0    0 -0.48682966764E+00 -0.35403813106E+03  0.20276072130E+04  0.20603162146E+04  0.91480373801E+02 0.  0.
          3    1    3    3  502    0 -0.10465898168E+03  0.26298072868E+02 -0.32175295908E+03  0.33936714302E+03  0.00000000000E+00 0. -1.
         -3    1    3    3    0  502 -0.18408836460E+03 -0.39171753492E+02 -0.85192152544E+03  0.87246388909E+03  0.00000000000E+00 0.  1.
         13    1    5    5    0    0  0.44547030517E+02  0.11530820213E+03  0.19444748563E+03  0.23041320291E+03  0.00000000000E+00 0. -1.
        -13    1    5    5    0    0  0.24468714544E+03  0.25160360956E+03  0.68505076100E+03  0.76972119669E+03  0.00000000000E+00 0.  1.
          3    1    6    6  503    0  0.28657643317E+02 -0.98718391185E+02  0.76027095944E+03  0.76718870759E+03  0.00000000000E+00 0. -1.
         -3    1    6    6    0  503 -0.29144472985E+02 -0.25531973988E+03  0.12673362536E+04  0.12931275070E+04  0.00000000000E+00 0.  1.
<mgrwt>
<rscale>  0 0.39048185E+04</rscale>
<asrwt>0</asrwt>
<pdfrwt beam="1">  1        1 0.46197789E+00 0.39048185E+04</pdfrwt>
<pdfrwt beam="2">  1       -1 0.19529621E+00 0.39048185E+04</pdfrwt>
<totfact> 0.76083845E-02</totfact>
</mgrwt>
</event>
<event>
12    3  0.4769008E-008  0.1650810E+04  0.7818608E-02  0.8789928E-01
          2   -1    0    0  501    0  0.00000000000E+00  0.00000000000E+00  0.23814571729E+04  0.23814571729E+04  0.00000000000E+00 0. -1.
         -2   -1    0    0    0  501 -0.00000000000E+00 -0.00000000000E+00 -0.28608242138E+03  0.28608242138E+03  0.00000000000E+00 0.  1.
         23    2    1    2    0    0  0.42437821977E+03 -0.21434908942E+03  0.22155733411E+03  0.53296710085E+03  0.94466251869E+02 0.  0.
        254    2    1    2    0    0 -0.42437821977E+03  0.21434908942E+03  0.18738174174E+04  0.21345724934E+04  0.90507768193E+03 0.  0.
         23    2    4    4    0    0 -0.38829622973E+02  0.35881229915E+03  0.23033440380E+03  0.43791067283E+03  0.91966375179E+02 0.  0.
         23    2    4    4    0    0 -0.38554859679E+03 -0.14446320973E+03  0.16434830136E+04  0.16966618206E+04  0.90042089950E+02 0.  0.
          3    1    3    3  502    0  0.90450260507E+01 -0.22538548775E+02 -0.81580697046E+00  0.24299469504E+02  0.00000000000E+00 0. -1.
         -3    1    3    3    0  502  0.41533319371E+03 -0.19181054065E+03  0.22237314108E+03  0.50866763134E+03  0.00000000000E+00 0.  1.
         13    1    5    5    0    0 -0.11624941059E+02  0.33633765204E+03  0.20077513228E+03  0.39187856432E+03  0.00000000000E+00 0.  1.
        -13    1    5    5    0    0 -0.27204681914E+02  0.22474647110E+02  0.29559271519E+02  0.46032108506E+02  0.00000000000E+00 0. -1.
          3    1    6    6  503    0 -0.12996718973E+03 -0.57457192978E+01  0.54930700347E+03  0.56450214150E+03  0.00000000000E+00 0. -1.
         -3    1    6    6    0  503 -0.25558140706E+03 -0.13871749043E+03  0.10941760101E+04  0.11321596791E+04  0.00000000000E+00 0.  1.
<mgrwt>
<rscale>  0 0.16508095E+04</rscale>
<asrwt>0</asrwt>
<pdfrwt beam="1">  1        2 0.36637801E+00 0.16508095E+04</pdfrwt>
<pdfrwt beam="2">  1       -2 0.44012682E-01 0.16508095E+04</pdfrwt>
<totfact> 0.19075493E+01</totfact>
</mgrwt>
</event>
<event>
12    3  0.4769008E-008  0.1876990E+04  0.7818608E-02  0.8666396E-01
         -4   -1    0    0    0  501 -0.00000000000E+00  0.00000000000E+00  0.57139281782E+03  0.57139281782E+03  0.00000000000E+00 0.  1.
          4   -1    0    0  501    0  0.00000000000E+00 -0.00000000000E+00 -0.15414484901E+04  0.15414484901E+04  0.00000000000E+00 0. -1.
         23    2    1    2    0    0  0.31488232925E+03  0.39484758713E+03  0.20207187847E+03  0.55125983010E+03  0.89436334203E+02 0.  0.
        254    2    1    2    0    0 -0.31488232925E+03 -0.39484758713E+03 -0.11721275508E+04  0.15615814778E+04  0.89977676027E+03 0.  0.
         23    2    4    4    0    0 -0.34460821307E+03 -0.60835195387E+03 -0.54237683332E+03  0.88951369738E+03  0.90637013540E+02 0.  0.
         23    2    4    4    0    0  0.29725883817E+02  0.21350436673E+03 -0.62975071746E+03  0.67206778046E+03  0.92851454556E+02 0.  0.
          2    1    3    3  502    0  0.60813353052E+02  0.45999364554E+02  0.38409964524E+01  0.76347617530E+02  0.00000000000E+00 0. -1.
         -2    1    3    3    0  502  0.25406897620E+03  0.34884822258E+03  0.19823088202E+03  0.47491221257E+03  0.00000000000E+00 0.  1.
         13    1    5    5    0    0 -0.17803220891E+02 -0.45100211267E+02 -0.69475144456E+02  0.84721776584E+02  0.00000000000E+00 0.  1.
        -13    1    5    5    0    0 -0.32680499217E+03 -0.56325174260E+03 -0.47290168886E+03  0.80479192080E+03  0.00000000000E+00 0. -1.
          2    1    6    6  503    0 -0.34450050743E+01  0.16653871171E+03 -0.36601125839E+03  0.40213337566E+03  0.00000000000E+00 0. -1.
         -2    1    6    6    0  503  0.33170888891E+02  0.46965655022E+02 -0.26373945907E+03  0.26993440480E+03  0.00000000000E+00 0.  1.
<mgrwt>
<rscale>  0 0.18769897E+04</rscale>
<asrwt>0</asrwt>
<pdfrwt beam="1">  1        4 0.23714591E+00 0.18769897E+04</pdfrwt>
<pdfrwt beam="2">  1       -4 0.87906590E-01 0.18769897E+04</pdfrwt>
<totfact> 0.15949025E-01</totfact>
</mgrwt>
</event>
<event>
12    3  0.4769008E-008  0.3445091E+04  0.7818608E-02  0.8126927E-01
          2   -1    0    0  501    0  0.00000000000E+00  0.00000000000E+00  0.15746100165E+04  0.15746100165E+04  0.00000000000E+00 0. -1.
         -2   -1    0    0    0  501 -0.00000000000E+00 -0.00000000000E+00 -0.18843796669E+04  0.18843796669E+04  0.00000000000E+00 0.  1.
         23    2    1    2    0    0 -0.47706812242E+03 -0.56269727425E+03  0.12831282004E+04  0.14829199494E+04  0.91713585371E+02 0.  0.
        254    2    1    2    0    0  0.47706812242E+03  0.56269727425E+03 -0.15928978508E+04  0.19760697340E+04  0.90736200861E+03 0.  0.
         23    2    4    4    0    0 -0.18912673461E+03  0.34650292739E+03 -0.30379542106E+03  0.50629378616E+03  0.90600991192E+02 0.  0.
         23    2    4    4    0    0  0.66619485703E+03  0.21619434686E+03 -0.12891024298E+04  0.14697759479E+04  0.88885765708E+02 0.  0.
          1    1    3    3  502    0 -0.44297765916E+03 -0.48073214840E+03  0.11524146330E+04  0.13249121070E+04  0.00000000000E+00 0. -1.
         -1    1    3    3    0  502 -0.34090463264E+02 -0.81965125855E+02  0.13071356741E+03  0.15800784236E+03  0.00000000000E+00 0.  1.
         13    1    5    5    0    0 -0.10811905855E+03  0.24549709507E+03 -0.15807970292E+03  0.31136433159E+03  0.00000000000E+00 0.  1.
        -13    1    5    5    0    0 -0.81007676063E+02  0.10100583232E+03 -0.14571571815E+03  0.19492945457E+03  0.00000000000E+00 0. -1.
          3    1    6    6  503    0  0.77224284523E+02  0.54479290500E+02 -0.19665460333E+03  0.21818482126E+03  0.00000000000E+00 0.  1.
         -3    1    6    6    0  503  0.58897057251E+03  0.16171505636E+03 -0.10924478264E+04  0.12515911266E+04  0.00000000000E+00 0. -1.
<mgrwt>
<rscale>  0 0.34450911E+04</rscale>
<asrwt>0</asrwt>
<pdfrwt beam="1">  1        2 0.24224769E+00 0.34450911E+04</pdfrwt>
<pdfrwt beam="2">  1       -2 0.28990456E+00 0.34450911E+04</pdfrwt>
<totfact> 0.34846721E-01</totfact>
</mgrwt>
</event>
<event>
12    3  0.4769008E-008  0.1412165E+04  0.7818608E-02  0.8945059E-01
         -2   -1    0    0    0  501 -0.00000000000E+00  0.00000000000E+00  0.41230105028E+03  0.41230105028E+03  0.00000000000E+00 0.  1.
          2   -1    0    0  501    0  0.00000000000E+00 -0.00000000000E+00 -0.12091957840E+04  0.12091957840E+04  0.00000000000E+00 0. -1.
         23    2    1    2    0    0  0.80278128329E+02  0.59445897710E+02 -0.77233220610E+03  0.78401226476E+03  0.90552758560E+02 0.  0.
        254    2    1    2    0    0 -0.80278128329E+02 -0.59445897710E+02 -0.24562527671E+02  0.83748456956E+03  0.83114300445E+03 0.  0.
         23    2    4    4    0    0 -0.26440706756E+03 -0.31207590866E+03 -0.20348435946E+03  0.46590489384E+03  0.91427651259E+02 0.  0.
         23    2    4    4    0    0  0.18412893923E+03  0.25263001095E+03  0.17892183179E+03  0.37157967573E+03  0.91285512703E+02 0.  0.
          4    1    3    3  502    0  0.24092159125E+02 -0.16603678793E+02 -0.35019425966E+03  0.35141447577E+03  0.00000000000E+00 0. -1.
         -4    1    3    3    0  502  0.56185969204E+02  0.76049576503E+02 -0.42213794644E+03  0.43259778900E+03  0.00000000000E+00 0.  1.
         13    1    5    5    0    0 -0.17283397946E+03 -0.13365733621E+03 -0.10132150072E+03  0.24083586628E+03  0.00000000000E+00 0.  1.
        -13    1    5    5    0    0 -0.91573088098E+02 -0.17841857245E+03 -0.10216285874E+03  0.22506902755E+03  0.00000000000E+00 0. -1.
          2    1    6    6  503    0  0.16477565471E+03  0.16661574222E+03  0.15232692081E+03  0.27949116756E+03  0.00000000000E+00 0. -1.
         -2    1    6    6    0  503  0.19353284524E+02  0.86014268732E+02  0.26594910977E+02  0.92088508171E+02  0.00000000000E+00 0.  1.
<mgrwt>
<rscale>  0 0.14121653E+04</rscale>
<asrwt>0</asrwt>
<pdfrwt beam="1">  1        2 0.18603012E+00 0.14121653E+04</pdfrwt>
<pdfrwt beam="2">  1       -2 0.63430932E-01 0.14121653E+04</pdfrwt>
<totfact> 0.41845640E+01</totfact>
</mgrwt>
</event>
<event>
12    3  0.4769008E-008  0.1200173E+04  0.7818608E-02  0.9112705E-01
         -2   -1    0    0    0  501 -0.00000000000E+00  0.00000000000E+00  0.31387852992E+03  0.31387852992E+03  0.00000000000E+00 0. -1.
          2   -1    0    0  501    0  0.00000000000E+00 -0.00000000000E+00 -0.11472716366E+04  0.11472716366E+04  0.00000000000E+00 0.  1.
         23    2    1    2    0    0  0.10996164948E+03  0.18984155145E+03 -0.33100381723E+03  0.40711036712E+03  0.89688042621E+02 0.  0.
        254    2    1    2    0    0 -0.10996164948E+03 -0.18984155145E+03 -0.50238928943E+03  0.10540397994E+04  0.90026302906E+03 0.  0.
         23    2    4    4    0    0  0.26445968334E+03 -0.92707460538E+02 -0.57626406643E+03  0.64715268995E+03  0.90513714409E+02 0.  0.
         23    2    4    4    0    0 -0.37442133282E+03 -0.97134090908E+02  0.73874777000E+02  0.40688710942E+03  0.10233900061E+03 0.  0.
          4    1    3    3  502    0  0.54599093748E+02  0.11285872644E+03 -0.26000312719E+03  0.28865165740E+03  0.00000000000E+00 0. -1.
         -4    1    3    3    0  502  0.55362555735E+02  0.76982825006E+02 -0.71000690032E+02  0.11845870972E+03  0.00000000000E+00 0.  1.
         13    1    5    5    0    0  0.87952267931E+02  0.11940548666E+02 -0.19234981273E+03  0.21184104558E+03  0.00000000000E+00 0.  1.
        -13    1    5    5    0    0  0.17650741541E+03 -0.10464800920E+03 -0.38391425370E+03  0.43531164437E+03  0.00000000000E+00 0. -1.
          2    1    6    6  503    0 -0.29654118051E+03 -0.35073287254E+02  0.72548686390E+02  0.30729484069E+03  0.00000000000E+00 0. -1.
         -2    1    6    6    0  503 -0.77880152311E+02 -0.62060803654E+02  0.13260906101E+01  0.99592268729E+02  0.00000000000E+00 0.  1.
<mgrwt>
<rscale>  0 0.12001732E+04</rscale>
<asrwt>0</asrwt>
<pdfrwt beam="1">  1        2 0.17650333E+00 0.12001732E+04</pdfrwt>
<pdfrwt beam="2">  1       -2 0.48289004E-01 0.12001732E+04</pdfrwt>
<totfact> 0.81665524E+01</totfact>
</mgrwt>
</event>
<event>
12    3  0.4769008E-008  0.1181133E+04  0.7818608E-02  0.9129533E-01
          2   -1    0    0  501    0  0.00000000000E+00  0.00000000000E+00  0.19582955871E+04  0.19582955871E+04  0.00000000000E+00 0. -1.
         -2   -1    0    0    0  501 -0.00000000000E+00 -0.00000000000E+00 -0.17809817523E+03  0.17809817523E+03  0.00000000000E+00 0.  1.
         23    2    1    2    0    0 -0.21030630701E+03 -0.13857092618E+03  0.62983350011E+03  0.68448026855E+03  0.91609802002E+02 0.  0.
        254    2    1    2    0    0  0.21030630701E+03  0.13857092618E+03  0.11503639118E+04  0.14519134938E+04  0.84928500493E+03 0.  0.
         23    2    4    4    0    0  0.63389405820E+02  0.33498008444E+03  0.96025087359E+02  0.36566351941E+03  0.90879691262E+02 0.  0.
         23    2    4    4    0    0  0.14691690119E+03 -0.19640915826E+03  0.10543388244E+04  0.10862499744E+04  0.90263596615E+02 0.  0.
          2    1    3    3  502    0 -0.21412692069E+03 -0.14553234290E+03  0.61968105800E+03  0.67159110673E+03  0.00000000000E+00 0. -1.
         -2    1    3    3    0  502  0.38206136787E+01  0.69614167207E+01  0.10152442109E+02  0.12889161820E+02  0.00000000000E+00 0.  1.
         13    1    5    5    0    0  0.11401656026E+02  0.26594915047E+03  0.78002564731E+02  0.27738664081E+03  0.00000000000E+00 0. -1.
        -13    1    5    5    0    0  0.51987749795E+02  0.69030933972E+02  0.18022522628E+02  0.88276878602E+02  0.00000000000E+00 0.  1.
          2    1    6    6  503    0  0.58554027845E+02 -0.26562194226E+02  0.17844410332E+03  0.18967451686E+03  0.00000000000E+00 0. -1.
         -2    1    6    6    0  503  0.88362873345E+02 -0.16984696404E+03  0.87589472110E+03  0.89657545752E+03  0.00000000000E+00 0.  1.
<mgrwt>
<rscale>  0 0.11811331E+04</rscale>
<asrwt>0</asrwt>
<pdfrwt beam="1">  1        2 0.30127623E+00 0.11811331E+04</pdfrwt>
<pdfrwt beam="2">  1       -2 0.27399720E-01 0.11811331E+04</pdfrwt>
<totfact> 0.84577234E+01</totfact>
</mgrwt>
</event>
<event>
12    3  0.4769008E-008  0.3449416E+04  0.7818608E-02  0.8125883E-01
         -2   -1    0    0    0  501 -0.00000000000E+00  0.00000000000E+00  0.18581523505E+04  0.18581523505E+04  0.00000000000E+00 0.  1.
          2   -1    0    0  501    0  0.00000000000E+00 -0.00000000000E+00 -0.16008473181E+04  0.16008473181E+04  0.00000000000E+00 0. -1.
         23    2    1    2    0    0  0.27192078487E+03  0.13772503481E+04 -0.66217838739E+03  0.15548192346E+04  0.90681867127E+02 0.  0.
        254    2    1    2    0    0 -0.27192078487E+03 -0.13772503481E+04  0.91948341981E+03  0.19041804339E+04  0.89982994566E+03 0.  0.
         23    2    4    4    0    0  0.31905934207E+03 -0.56015350825E+03  0.42875557866E+03  0.77844092689E+03  0.81043900839E+02 0.  0.
         23    2    4    4    0    0 -0.59098012694E+03 -0.81709683985E+03  0.49072784115E+03  0.11257395070E+04  0.97830810650E+02 0.  0.
          1    1    3    3  502    0  0.21378978524E+03  0.99560419612E+03 -0.52031930962E+03  0.11435322346E+04  0.00000000000E+00 0. -1.
         -1    1    3    3    0  502  0.58130999633E+02  0.38164615197E+03 -0.14185907777E+03  0.41128700001E+03  0.00000000000E+00 0.  1.
         13    1    5    5    0    0  0.24222589590E+03 -0.46999947178E+03  0.37579816706E+03  0.64868879325E+03  0.00000000000E+00 0.  1.
        -13    1    5    5    0    0  0.76833446170E+02 -0.90154036466E+02  0.52957411596E+02  0.12975213364E+03  0.00000000000E+00 0. -1.
          1    1    6    6  503    0 -0.43486235768E+03 -0.56612108498E+03  0.39018361971E+03  0.81353648356E+03  0.00000000000E+00 0. -1.
         -1    1    6    6    0  503 -0.15611776926E+03 -0.25097575487E+03  0.10054422144E+03  0.31220302349E+03  0.00000000000E+00 0.  1.
<mgrwt>
<rscale>  0 0.34494163E+04</rscale>
<asrwt>0</asrwt>
<pdfrwt beam="1">  1        2 0.24628420E+00 0.34494163E+04</pdfrwt>
<pdfrwt beam="2">  1       -2 0.28586959E+00 0.34494163E+04</pdfrwt>
<totfact> 0.35641653E-01</totfact>
</mgrwt>
</event>
<event>
12    3  0.4769008E-008  0.1908105E+04  0.7818608E-02  0.8650832E-01
          2   -1    0    0  501    0  0.00000000000E+00  0.00000000000E+00  0.10162239515E+04  0.10162239515E+04  0.00000000000E+00 0. -1.
         -2   -1    0    0    0  501 -0.00000000000E+00 -0.00000000000E+00 -0.89568502470E+03  0.89568502470E+03  0.00000000000E+00 0.  1.
         23    2    1    2    0    0 -0.72350014305E+03 -0.76573393730E+02 -0.98662048123E+02  0.73984382590E+03  0.91207156346E+02 0.  0.
        254    2    1    2    0    0  0.72350014305E+03  0.76573393730E+02  0.21920097494E+03  0.11720651503E+04  0.89239660888E+03 0.  0.
         23    2    4    4    0    0 -0.18541541508E+03 -0.36372833395E+02 -0.46098595343E+02  0.21408195934E+03  0.89465891073E+02 0.  0.
         23    2    4    4    0    0  0.90891555813E+03  0.11294622712E+03  0.26529957029E+03  0.95798319097E+03  0.91997772554E+02 0.  0.
          1    1    3    3  502    0 -0.20652122960E+03 -0.55887413887E+02 -0.47820475397E+01  0.21400301232E+03  0.00000000000E+00 0. -1.
         -1    1    3    3    0  502 -0.51697891345E+03 -0.20685979843E+02 -0.93880000583E+02  0.52584081358E+03  0.00000000000E+00 0.  1.
         13    1    5    5    0    0 -0.11396005425E+03  0.22129387468E+02 -0.33855180488E+02  0.12092467490E+03  0.00000000000E+00 0.  1.
        -13    1    5    5    0    0 -0.71455360830E+02 -0.58502220863E+02 -0.12243414855E+02  0.93157284442E+02  0.00000000000E+00 0. -1.
          4    1    6    6  503    0  0.78779952595E+03  0.69839543199E+02  0.21196873091E+03  0.81880180616E+03  0.00000000000E+00 0.  1.
         -4    1    6    6    0  503  0.12111603218E+03  0.43106683925E+02  0.53330839378E+02  0.13918138481E+03  0.00000000000E+00 0. -1.
<mgrwt>
<rscale>  0 0.19081054E+04</rscale>
<asrwt>0</asrwt>
<pdfrwt beam="1">  1        2 0.15634215E+00 0.19081054E+04</pdfrwt>
<pdfrwt beam="2">  1       -2 0.13779770E+00 0.19081054E+04</pdfrwt>
<totfact> 0.86139081E+00</totfact>
</mgrwt>
</event>
<event>
12    3  0.4769008E-008  0.2677397E+04  0.7818608E-02  0.8342376E-01
          2   -1    0    0  501    0  0.00000000000E+00  0.00000000000E+00  0.99102660405E+03  0.99102660405E+03  0.00000000000E+00 0.  1.
         -2   -1    0    0    0  501 -0.00000000000E+00 -0.00000000000E+00 -0.18083405698E+04  0.18083405698E+04  0.00000000000E+00 0. -1.
         23    2    1    2    0    0  0.11358242883E+04  0.10896324583E+03 -0.36509997091E+02  0.11453882740E+04  0.92798251387E+02 0.  0.
        254    2    1    2    0    0 -0.11358242883E+04 -0.10896324583E+03 -0.78080396871E+03  0.16539788999E+04  0.90775633350E+03 0.  0.
         23    2    4    4    0    0 -0.36617026249E+02 -0.31927238744E+03 -0.21267898935E+03  0.39540602268E+03  0.88531950533E+02 0.  0.
         23    2    4    4    0    0 -0.10992072620E+04  0.21030914162E+03 -0.56812497936E+03  0.12585728772E+04  0.93558298312E+02 0.  0.
          3    1    3    3  502    0  0.10843277491E+04  0.12288233817E+03 -0.39243379180E+02  0.10919737998E+04  0.00000000000E+00 0. -1.
         -3    1    3    3    0  502  0.51496539148E+02 -0.13919092346E+02  0.27333820889E+01  0.53414474196E+02  0.00000000000E+00 0.  1.
         13    1    5    5    0    0  0.60727847589E+01 -0.11000057161E+03 -0.29545673773E+02  0.11406117354E+03  0.00000000000E+00 0. -1.
        -13    1    5    5    0    0 -0.42689811008E+02 -0.20927181583E+03 -0.18313331558E+03  0.28134484914E+03  0.00000000000E+00 0.  1.
          4    1    6    6  503    0 -0.24077288013E+03  0.85869328455E+02 -0.13208490915E+03  0.28773519875E+03  0.00000000000E+00 0. -1.
         -4    1    6    6    0  503 -0.85843438191E+03  0.12443981316E+03 -0.43604007021E+03  0.97083767849E+03  0.00000000000E+00 0.  1.
<mgrwt>
<rscale>  0 0.26773970E+04</rscale>
<asrwt>0</asrwt>
<pdfrwt beam="1">  1        2 0.15246563E+00 0.26773970E+04</pdfrwt>
<pdfrwt beam="2">  1       -2 0.27820624E+00 0.26773970E+04</pdfrwt>
<totfact> 0.96890715E-01</totfact>
</mgrwt>
</event>
<event>
12    3  0.4769008E-008  0.1848419E+04  0.7818608E-02  0.8680966E-01
         -1   -1    0    0    0  501 -0.00000000000E+00  0.00000000000E+00  0.61398701370E+03  0.61398701370E+03  0.00000000000E+00 0.  1.
          1   -1    0    0  501    0  0.00000000000E+00 -0.00000000000E+00 -0.13911745950E+04  0.13911745950E+04  0.00000000000E+00 0. -1.
         23    2    1    2    0    0 -0.58661996102E+03 -0.37288491539E+03 -0.37784351561E+03  0.79630362125E+03  0.90374753883E+02 0.  0.
        254    2    1    2    0    0  0.58661996102E+03  0.37288491539E+03 -0.39934406574E+03  0.12088579875E+04  0.90481811005E+03 0.  0.
         23    2    4    4    0    0  0.13859777170E+03 -0.21501151842E+03 -0.37288248446E+03  0.46303605673E+03  0.99607967741E+02 0.  0.
         23    2    4    4    0    0  0.44802218932E+03  0.58789643381E+03 -0.26461581280E+02  0.74582193076E+03  0.95937678279E+02 0.  0.
          1    1    3    3  502    0 -0.99649146600E+02 -0.64368138351E+02 -0.27694019457E+02  0.12182022971E+03  0.00000000000E+00 0. -1.
         -1    1    3    3    0  502 -0.48697081442E+03 -0.30851677704E+03 -0.35014949615E+03  0.67448339154E+03  0.00000000000E+00 0.  1.
         13    1    5    5    0    0  0.14130396966E+03 -0.13833335201E+03 -0.27254900983E+03  0.33672821516E+03  0.00000000000E+00 0.  1.
        -13    1    5    5    0    0 -0.27061979630E+01 -0.76678166409E+02 -0.10033347463E+03  0.12630784157E+03  0.00000000000E+00 0. -1.
          3    1    6    6  503    0  0.20671654694E+03  0.21546406144E+03 -0.43386583708E+02  0.30172651225E+03  0.00000000000E+00 0. -1.
         -3    1    6    6    0  503  0.24130564238E+03  0.37243237237E+03  0.16925002428E+02  0.44409541851E+03  0.00000000000E+00 0.  1.
<mgrwt>
<rscale>  0 0.18484189E+04</rscale>
<asrwt>0</asrwt>
<pdfrwt beam="1">  1        1 0.21402686E+00 0.18484189E+04</pdfrwt>
<pdfrwt beam="2">  1       -1 0.94459541E-01 0.18484189E+04</pdfrwt>
<totfact> 0.79431609E+00</totfact>
</mgrwt>
</event>
<event>
12    3  0.4769008E-008  0.2243098E+04  0.7818608E-02  0.8500701E-01
          2   -1    0    0  501    0  0.00000000000E+00  0.00000000000E+00  0.21014304599E+04  0.21014304599E+04  0.00000000000E+00 0. -1.
         -2   -1    0    0    0  501 -0.00000000000E+00 -0.00000000000E+00 -0.59857882255E+03  0.59857882255E+03  0.00000000000E+00 0.  1.
         23    2    1    2    0    0  0.68334035852E+02 -0.75932605184E+03 -0.24806525050E+02  0.76833123900E+03  0.92043118596E+02 0.  0.
        254    2    1    2    0    0 -0.68334035852E+02  0.75932605184E+03  0.15276581624E+04  0.19316780435E+04  0.90354579792E+03 0.  0.
         23    2    4    4    0    0 -0.16502463511E+03 -0.14018937781E+03  0.14326757425E+03  0.27531716821E+03  0.91584679034E+02 0.  0.
         23    2    4    4    0    0  0.96690599262E+02  0.89951542964E+03  0.13843905882E+04  0.16563608753E+04  0.92287422293E+02 0.  0.
          1    1    3    3  502    0  0.11845737376E+02 -0.80684725545E+01  0.20272275919E+01  0.14475199309E+02  0.00000000000E+00 0. -1.
         -1    1    3    3    0  502  0.56488298476E+02 -0.75125757928E+03 -0.26833752642E+02  0.75385603969E+03  0.00000000000E+00 0.  1.
         13    1    5    5    0    0 -0.19488421577E+02 -0.49534854189E+01  0.53794198906E+02  0.57429534469E+02  0.00000000000E+00 0.  1.
        -13    1    5    5    0    0 -0.14553621354E+03 -0.13523589239E+03  0.89473375342E+02  0.21788763374E+03  0.00000000000E+00 0. -1.
          1    1    6    6  503    0  0.40576066261E+01  0.20111670549E+03  0.37294340139E+03  0.42373479210E+03  0.00000000000E+00 0. -1.
         -1    1    6    6    0  503  0.92632992635E+02  0.69839872416E+03  0.10114471868E+04  0.12326260832E+04  0.00000000000E+00 0.  1.
<mgrwt>
<rscale>  0 0.22430977E+04</rscale>
<asrwt>0</asrwt>
<pdfrwt beam="1">  1        2 0.32329699E+00 0.22430977E+04</pdfrwt>
<pdfrwt beam="2">  1       -2 0.92089051E-01 0.22430977E+04</pdfrwt>
<totfact> 0.53527365E+00</totfact>
</mgrwt>
</event>
<event>
12    3  0.4769008E-008  0.1060856E+04  0.7818608E-02  0.9244208E-01
         -2   -1    0    0    0  501 -0.00000000000E+00  0.00000000000E+00  0.29877119048E+03  0.29877119048E+03  0.00000000000E+00 0.  1.
          2   -1    0    0  501    0  0.00000000000E+00 -0.00000000000E+00 -0.94170258939E+03  0.94170258939E+03  0.00000000000E+00 0. -1.
         23    2    1    2    0    0  0.46865673893E+02  0.79146769710E+02 -0.18301752913E+03  0.22415345982E+03  0.91042600100E+02 0.  0.
        254    2    1    2    0    0 -0.46865673893E+02 -0.79146769710E+02 -0.45991386978E+03  0.10163203201E+04  0.90162388100E+03 0.  0.
         23    2    4    4    0    0  0.12446728765E+02 -0.39303632244E+03 -0.54046861605E+03  0.67384649136E+03  0.85617154590E+02 0.  0.
         23    2    4    4    0    0 -0.59312402658E+02  0.31388955273E+03  0.80554746277E+02  0.34247382869E+03  0.93566253361E+02 0.  0.
          3    1    3    3  502    0  0.54116884027E+02  0.54228621741E+02 -0.18279538863E+03  0.19820074333E+03  0.00000000000E+00 0. -1.
         -3    1    3    3    0  502 -0.72512101344E+01  0.24918147969E+02 -0.22214050415E+00  0.25952716487E+02  0.00000000000E+00 0.  1.
         13    1    5    5    0    0  0.17114830212E+02 -0.86358759726E+02 -0.18125092961E+03  0.20150099821E+03  0.00000000000E+00 0.  1.
        -13    1    5    5    0    0 -0.46681014467E+01 -0.30667756272E+03 -0.35921768645E+03  0.47234549315E+03  0.00000000000E+00 0. -1.
          4    1    6    6  503    0 -0.55558467807E+02  0.26127792745E+03  0.10145616965E+03  0.28573808475E+03  0.00000000000E+00 0.  1.
         -4    1    6    6    0  503 -0.37539348513E+01  0.52611625287E+02 -0.20901423370E+02  0.56735743946E+02  0.00000000000E+00 0. -1.
<mgrwt>
<rscale>  0 0.10608555E+04</rscale>
<asrwt>0</asrwt>
<pdfrwt beam="1">  1        2 0.14487732E+00 0.10608555E+04</pdfrwt>
<pdfrwt beam="2">  1       -2 0.45964800E-01 0.10608555E+04</pdfrwt>
<totfact> 0.12274645E+02</totfact>
</mgrwt>
</event>
<event>
12    3  0.4769008E-008  0.1487747E+04  0.7818608E-02  0.8892642E-01
          2   -1    0    0  501    0  0.00000000000E+00  0.00000000000E+00  0.10559021960E+04  0.10559021960E+04  0.00000000000E+00 0. -1.
         -2   -1    0    0    0  501 -0.00000000000E+00 -0.00000000000E+00 -0.52405178522E+03  0.52405178522E+03  0.00000000000E+00 0.  1.
         23    2    1    2    0    0 -0.39100206019E+03 -0.12208026705E+03  0.39437923131E+03  0.57592420475E+03  0.91474088437E+02 0.  0.
        254    2    1    2    0    0  0.39100206019E+03  0.12208026705E+03  0.13747117942E+03  0.10040297764E+04  0.90630638534E+03 0.  0.
         23    2    4    4    0    0  0.42685850232E+03  0.24011214633E+03  0.43985782839E+03  0.66500695208E+03  0.94325570751E+02 0.  0.
         23    2    4    4    0    0 -0.35856442126E+02 -0.11803187929E+03 -0.30238664897E+03  0.33902282435E+03  0.91003192186E+02 0.  0.
          1    1    3    3  502    0 -0.34083873509E+03 -0.10445350745E+03  0.37958043330E+03  0.52073302555E+03  0.00000000000E+00 0. -1.
         -1    1    3    3    0  502 -0.50163325101E+02 -0.17626759597E+02  0.14798798011E+02  0.55191179201E+02  0.00000000000E+00 0.  1.
         13    1    5    5    0    0  0.41811824525E+03  0.23488493308E+03  0.44442973272E+03  0.65384370160E+03  0.00000000000E+00 0. -1.
        -13    1    5    5    0    0  0.87402570695E+01  0.52272132565E+01 -0.45719043282E+01  0.11163250479E+02  0.00000000000E+00 0.  1.
          2    1    6    6  503    0 -0.51859129190E+02 -0.28200285066E+02 -0.15276046698E+03  0.16376930612E+03  0.00000000000E+00 0. -1.
         -2    1    6    6    0  503  0.16002687064E+02 -0.89831594221E+02 -0.14962618199E+03  0.17525351823E+03  0.00000000000E+00 0.  1.
<mgrwt>
<rscale>  0 0.14877465E+04</rscale>
<asrwt>0</asrwt>
<pdfrwt beam="1">  1        2 0.16244649E+00 0.14877465E+04</pdfrwt>
<pdfrwt beam="2">  1       -2 0.80623351E-01 0.14877465E+04</pdfrwt>
<totfact> 0.30494415E+01</totfact>
</mgrwt>
</event>
<event>
12    3  0.4850143E-008  0.1751950E+04  0.7818608E-02  0.8732277E-01
         -2   -1    0    0    0  501 -0.00000000000E+00  0.00000000000E+00  0.11885772277E+04  0.11885772277E+04  0.00000000000E+00 0.  1.
          2   -1    0    0  501    0  0.00000000000E+00 -0.00000000000E+00 -0.64558914915E+03  0.64558914915E+03  0.00000000000E+00 0. -1.
         23    2    1    2    0    0  0.19855443512E+03  0.78936501591E+02 -0.41558815492E+03  0.48069375879E+03  0.11268602506E+03 0.  0.
        254    2    1    2    0    0 -0.19855443512E+03 -0.78936501591E+02  0.95857623350E+03  0.13534726181E+04  0.93132427085E+03 0.  0.
         23    2    4    4    0    0  0.18071959184E+03 -0.38118828620E+03  0.61577260167E+03  0.75256780928E+03  0.96012135601E+02 0.  0.
         23    2    4    4    0    0 -0.37927402696E+03  0.30225178461E+03  0.34280363182E+03  0.60090480879E+03  0.91473113084E+02 0.  0.
          1    1    3    3  502    0  0.17289733148E+03  0.77897980425E+02 -0.25348525040E+03  0.31656966810E+03  0.00000000000E+00 0. -1.
         -1    1    3    3    0  502  0.25657103635E+02  0.10385211663E+01 -0.16210290452E+03  0.16412409070E+03  0.00000000000E+00 0.  1.
         13    1    5    5    0    0 -0.58219021599E+01 -0.12865471220E+01  0.25854436685E+02  0.26533029314E+02  0.00000000000E+00 0. -1.
        -13    1    5    5    0    0  0.18654149400E+03 -0.37990173907E+03  0.58991816499E+03  0.72603477997E+03  0.00000000000E+00 0.  1.
          1    1    6    6  503    0  0.18163662851E+01 -0.37913829386E+01  0.58963378290E+00  0.42451665535E+01  0.00000000000E+00 0. -1.
         -1    1    6    6    0  503 -0.38109039325E+03  0.30604316754E+03  0.34221399804E+03  0.59665964224E+03  0.00000000000E+00 0.  1.
<mgrwt>
<rscale>  0 0.17519504E+04</rscale>
<asrwt>0</asrwt>
<pdfrwt beam="1">  1        2 0.99321408E-01 0.17519504E+04</pdfrwt>
<pdfrwt beam="2">  1       -2 0.18285803E+00 0.17519504E+04</pdfrwt>
<totfact> 0.74404131E+00</totfact>
</mgrwt>
</event>
<event>
12    3  0.4769008E-008  0.1146067E+04  0.7818608E-02  0.9161420E-01
         -2   -1    0    0    0  501 -0.00000000000E+00  0.00000000000E+00  0.42037174189E+03  0.42037174189E+03  0.00000000000E+00 0.  1.
          2   -1    0    0  501    0  0.00000000000E+00 -0.00000000000E+00 -0.78113545206E+03  0.78113545206E+03  0.00000000000E+00 0. -1.
         23    2    1    2    0    0  0.10775217119E+03  0.15298992773E+03 -0.11431098749E+02  0.20767438427E+03  0.89339417280E+02 0.  0.
        254    2    1    2    0    0 -0.10775217119E+03 -0.15298992773E+03 -0.34933261142E+03  0.99383280968E+03  0.91140217896E+03 0.  0.
         23    2    4    4    0    0  0.31187545201E+03 -0.25355060261E+03 -0.36800338792E+03  0.55238491306E+03  0.90268449675E+02 0.  0.
         23    2    4    4    0    0 -0.41962762320E+03  0.10056067487E+03  0.18670776501E+02  0.44144789662E+03  0.91257087695E+02 0.  0.
          2    1    3    3  502    0  0.11955562482E+03  0.13064720973E+03 -0.25231940491E+02  0.17888234026E+03  0.00000000000E+00 0. -1.
         -2    1    3    3    0  502 -0.11803453632E+02  0.22342718005E+02  0.13800841742E+02  0.28792044010E+02  0.00000000000E+00 0.  1.
         13    1    5    5    0    0  0.14252641885E+03 -0.15947489942E+03 -0.23285593731E+03  0.31617702502E+03  0.00000000000E+00 0.  1.
        -13    1    5    5    0    0  0.16934903316E+03 -0.94075703188E+02 -0.13514745061E+03  0.23620788803E+03  0.00000000000E+00 0. -1.
          2    1    6    6  503    0 -0.27381766335E+03  0.78099720473E+02 -0.29478189424E+02  0.28625974700E+03  0.00000000000E+00 0. -1.
         -2    1    6    6    0  503 -0.14580995985E+03  0.22460954400E+02  0.48148965925E+02  0.15518814962E+03  0.00000000000E+00 0.  1.
<mgrwt>
<rscale>  0 0.11460668E+04</rscale>
<asrwt>0</asrwt>
<pdfrwt beam="1">  1        2 0.12017468E+00 0.11460668E+04</pdfrwt>
<pdfrwt beam="2">  1       -2 0.64672576E-01 0.11460668E+04</pdfrwt>
<totfact> 0.77725615E+01</totfact>
</mgrwt>
</event>
<event>
12    3  0.4769008E-008  0.1030054E+04  0.7818608E-02  0.9276183E-01
         -1   -1    0    0    0  501 -0.00000000000E+00  0.00000000000E+00  0.15166229264E+03  0.15166229264E+03  0.00000000000E+00 0.  1.
          1   -1    0    0  501    0  0.00000000000E+00 -0.00000000000E+00 -0.17489706419E+04  0.17489706419E+04  0.00000000000E+00 0. -1.
         23    2    1    2    0    0 -0.75969128436E+02 -0.78521584992E+01 -0.73111603744E+02  0.13047241114E+03  0.76451151717E+02 0.  0.
        254    2    1    2    0    0  0.75969128436E+02  0.78521584992E+01 -0.15241967455E+04  0.17701605234E+04  0.89691671556E+03 0.  0.
         23    2    4    4    0    0  0.31710342656E+03  0.13225978285E+03 -0.18517863664E+03  0.40085418571E+03  0.91354898272E+02 0.  0.
         23    2    4    4    0    0 -0.24113429812E+03 -0.12440762435E+03 -0.13390181089E+04  0.13693063377E+04  0.91691568769E+02 0.  0.
          1    1    3    3  502    0 -0.39592196516E+02  0.14477901484E+02 -0.76820939369E+02  0.87627669043E+02  0.00000000000E+00 0. -1.
         -1    1    3    3    0  502 -0.36376931920E+02 -0.22330059983E+02  0.37093356250E+01  0.42844742099E+02  0.00000000000E+00 0.  1.
         13    1    5    5    0    0  0.29165896886E+03  0.94548512508E+02 -0.14110314052E+03  0.33751217992E+03  0.00000000000E+00 0.  1.
        -13    1    5    5    0    0  0.25444457701E+02  0.37711270345E+02 -0.44075496123E+02  0.63342005788E+02  0.00000000000E+00 0. -1.
          3    1    6    6  503    0 -0.68571748030E+02  0.45368807836E+01 -0.40321163571E+03  0.40902602739E+03  0.00000000000E+00 0. -1.
         -3    1    6    6    0  503 -0.17256255009E+03 -0.12894450514E+03 -0.93580647315E+03  0.96028031027E+03  0.00000000000E+00 0.  1.
<mgrwt>
<rscale>  0 0.10300542E+04</rscale>
<asrwt>0</asrwt>
<pdfrwt beam="1">  1        1 0.26907239E+00 0.10300542E+04</pdfrwt>
<pdfrwt beam="2">  1       -1 0.23332662E-01 0.10300542E+04</pdfrwt>
<totfact> 0.69734321E+01</totfact>
</mgrwt>
</event>
<event>
12    3  0.4769008E-008  0.2473639E+04  0.7818608E-02  0.8412437E-01
          2   -1    0    0  501    0  0.00000000000E+00  0.00000000000E+00  0.10311206952E+04  0.10311206952E+04  0.00000000000E+00 0. -1.
         -2   -1    0    0    0  501 -0.00000000000E+00 -0.00000000000E+00 -0.14835534361E+04  0.14835534361E+04  0.00000000000E+00 0.  1.
         23    2    1    2    0    0 -0.84958536177E+03 -0.44085176596E+03 -0.49423852201E+03  0.10812266781E+04  0.92918493394E+02 0.  0.
        254    2    1    2    0    0  0.84958536177E+03  0.44085176596E+03  0.41805781084E+02  0.14334474532E+04  0.10662449584E+04 0.  0.
         23    2    4    4    0    0  0.34746006862E+02  0.21070864741E+03 -0.40803797043E+03  0.46961219238E+03  0.91843382049E+02 0.  0.
         23    2    4    4    0    0  0.81483935491E+03  0.23014311855E+03  0.44984375152E+03  0.96383526080E+03  0.98437695377E+02 0.  0.
          1    1    3    3  502    0 -0.64118760924E+03 -0.29750008821E+03 -0.39323774132E+03  0.80886573294E+03  0.00000000000E+00 0. -1.
         -1    1    3    3    0  502 -0.20839775253E+03 -0.14335167775E+03 -0.10100078069E+03  0.27236094521E+03  0.00000000000E+00 0.  1.
         13    1    5    5    0    0 -0.78983596488E+01 -0.10734547771E+01 -0.64719820883E-01  0.79712344687E+01  0.00000000000E+00 0. -1.
        -13    1    5    5    0    0  0.42644366511E+02  0.21178210219E+03 -0.40797325061E+03  0.46164095791E+03  0.00000000000E+00 0.  1.
          1    1    6    6  503    0  0.24428454022E+03  0.11645532253E+03  0.14628554611E+03  0.30763003711E+03  0.00000000000E+00 0. -1.
         -1    1    6    6    0  503  0.57055481469E+03  0.11368779602E+03  0.30355820541E+03  0.65620522369E+03  0.00000000000E+00 0.  1.
<mgrwt>
<rscale>  0 0.24736391E+04</rscale>
<asrwt>0</asrwt>
<pdfrwt beam="1">  1        2 0.15863395E+00 0.24736391E+04</pdfrwt>
<pdfrwt beam="2">  1       -2 0.22823899E+00 0.24736391E+04</pdfrwt>
<totfact> 0.18857706E+00</totfact>
</mgrwt>
</event>
<event>
12    3  0.4769008E-008  0.2273387E+04  0.7818608E-02  0.8488489E-01
         -2   -1    0    0    0  501 -0.00000000000E+00  0.00000000000E+00  0.73189771962E+03  0.73189771962E+03  0.00000000000E+00 0.  1.
          2   -1    0    0  501    0  0.00000000000E+00 -0.00000000000E+00 -0.17653727614E+04  0.17653727614E+04  0.00000000000E+00 0. -1.
         23    2    1    2    0    0 -0.82245041481E+02  0.75087947512E+03  0.20714325225E+03  0.78831637710E+03  0.89163616202E+02 0.  0.
        254    2    1    2    0    0  0.82245041481E+02 -0.75087947512E+03 -0.12406182940E+04  0.17089541039E+04  0.90044774687E+03 0.  0.
         23    2    4    4    0    0  0.45069686204E+03 -0.62316689312E+03 -0.83599058762E+03  0.11396625365E+04  0.92118382950E+02 0.  0.
         23    2    4    4    0    0 -0.36845182056E+03 -0.12771258200E+03 -0.40462770641E+03  0.56929156739E+03  0.91115642069E+02 0.  0.
          3    1    3    3  502    0 -0.27167551309E+02  0.44923467995E+02  0.13099865928E+02  0.54109151797E+02  0.00000000000E+00 0. -1.
         -3    1    3    3    0  502 -0.55077490172E+02  0.70595600712E+03  0.19404338632E+03  0.73420722531E+03  0.00000000000E+00 0.  1.
         13    1    5    5    0    0  0.67658855648E+00 -0.10552275271E+02 -0.29798415670E+02  0.31618884577E+02  0.00000000000E+00 0. -1.
        -13    1    5    5    0    0  0.45002027348E+03 -0.61261461785E+03 -0.80619217195E+03  0.11080436520E+04  0.00000000000E+00 0.  1.
          1    1    6    6  503    0 -0.14971964901E+03 -0.99806188202E+02 -0.17903158919E+03  0.25382978240E+03  0.00000000000E+00 0. -1.
         -1    1    6    6    0  503 -0.21873217155E+03 -0.27906393798E+02 -0.22559611722E+03  0.31546178499E+03  0.00000000000E+00 0.  1.
<mgrwt>
<rscale>  0 0.22733872E+04</rscale>
<asrwt>0</asrwt>
<pdfrwt beam="1">  1        2 0.27159581E+00 0.22733872E+04</pdfrwt>
<pdfrwt beam="2">  1       -2 0.11259965E+00 0.22733872E+04</pdfrwt>
<totfact> 0.50875701E+00</totfact>
</mgrwt>
</event>
<event>
12    3  0.4769008E-008  0.1578986E+04  0.7818608E-02  0.8833563E-01
         -2   -1    0    0    0  501 -0.00000000000E+00  0.00000000000E+00  0.28448105598E+03  0.28448105598E+03  0.00000000000E+00 0.  1.
          2   -1    0    0  501    0  0.00000000000E+00 -0.00000000000E+00 -0.21910039764E+04  0.21910039764E+04  0.00000000000E+00 0. -1.
         23    2    1    2    0    0 -0.32316323427E+03 -0.44536808417E+02  0.38132524368E+01  0.33891358617E+03  0.91814349139E+02 0.  0.
        254    2    1    2    0    0  0.32316323427E+03  0.44536808417E+02 -0.19103361729E+04  0.21365714462E+04  0.89951945402E+03 0.  0.
         23    2    4    4    0    0 -0.20264100698E+03  0.23669789869E+03 -0.35440109699E+03  0.48051334524E+03  0.90574082643E+02 0.  0.
         23    2    4    4    0    0  0.52580424125E+03 -0.19216109028E+03 -0.15559350759E+04  0.16560581010E+04  0.90545506537E+02 0.  0.
          4    1    3    3  502    0 -0.71340525100E+02 -0.33302908586E+02 -0.30667842848E+02  0.84493022355E+02  0.00000000000E+00 0. -1.
         -4    1    3    3    0  502 -0.25182270917E+03 -0.11233899832E+02  0.34481095285E+02  0.25442056381E+03  0.00000000000E+00 0.  1.
         13    1    5    5    0    0 -0.49313232244E+02  0.12091590162E+03 -0.11915953388E+03  0.17678078135E+03  0.00000000000E+00 0. -1.
        -13    1    5    5    0    0 -0.15332777474E+03  0.11578199707E+03 -0.23524156312E+03  0.30373256389E+03  0.00000000000E+00 0.  1.
          4    1    6    6  503    0  0.10632345807E+03 -0.46046353047E+02 -0.43907495183E+03  0.45410544777E+03  0.00000000000E+00 0. -1.
         -4    1    6    6    0  503  0.41948078318E+03 -0.14611473723E+03 -0.11168601241E+04  0.12019526532E+04  0.00000000000E+00 0.  1.
<mgrwt>
<rscale>  0 0.15789859E+04</rscale>
<asrwt>0</asrwt>
<pdfrwt beam="1">  1        2 0.33707753E+00 0.15789859E+04</pdfrwt>
<pdfrwt beam="2">  1       -2 0.43766317E-01 0.15789859E+04</pdfrwt>
<totfact> 0.24861132E+01</totfact>
</mgrwt>
</event>
<event>
12    3  0.4769008E-008  0.1300643E+04  0.7818608E-02  0.9029055E-01
         -2   -1    0    0    0  501 -0.00000000000E+00  0.00000000000E+00  0.11546709937E+03  0.11546709937E+03  0.00000000000E+00 0. -1.
          2   -1    0    0  501    0  0.00000000000E+00 -0.00000000000E+00 -0.36626737385E+04  0.36626737385E+04  0.00000000000E+00 0.  1.
         23    2    1    2    0    0  0.22376848307E+03 -0.14463037738E+03 -0.40615441713E+03  0.49790835021E+03  0.10936651490E+03 0.  0.
        254    2    1    2    0    0 -0.22376848307E+03  0.14463037738E+03 -0.31410522220E+04  0.32802324876E+04  0.90704235383E+03 0.  0.
         23    2    4    4    0    0 -0.20273004790E+03 -0.34595642405E+03 -0.18711096803E+04  0.19155991666E+04  0.87655072086E+02 0.  0.
         23    2    4    4    0    0 -0.21038435171E+02  0.49058680143E+03 -0.12699425417E+04  0.13646333210E+04  0.91389366153E+02 0.  0.
          1    1    3    3  502    0  0.16853486693E+03 -0.10803479500E+03 -0.20675956559E+03  0.28779339163E+03  0.00000000000E+00 0. -1.
         -1    1    3    3    0  502  0.55233616144E+02 -0.36595582380E+02 -0.19939485154E+03  0.21011495858E+03  0.00000000000E+00 0.  1.
         13    1    5    5    0    0 -0.76923974063E+02 -0.17039183382E+03 -0.68863343390E+03  0.71355916441E+03  0.00000000000E+00 0. -1.
        -13    1    5    5    0    0 -0.12580607383E+03 -0.17556459023E+03 -0.11824762464E+04  0.12020400022E+04  0.00000000000E+00 0.  1.
          1    1    6    6  503    0  0.37690034923E+01  0.86624369513E+00 -0.45381691788E+02  0.45546171244E+02  0.00000000000E+00 0. -1.
         -1    1    6    6    0  503 -0.24807438664E+02  0.48972055773E+03 -0.12245608499E+04  0.13190871498E+04  0.00000000000E+00 0.  1.
<mgrwt>
<rscale>  0 0.13006434E+04</rscale>
<asrwt>0</asrwt>
<pdfrwt beam="1">  1        2 0.56348827E+00 0.13006434E+04</pdfrwt>
<pdfrwt beam="2">  1       -2 0.17764169E-01 0.13006434E+04</pdfrwt>
<totfact> 0.16419159E+01</totfact>
</mgrwt>
</event>
<event>
12    3  0.4769008E-008  0.2134130E+04  0.7818608E-02  0.8546356E-01
         -2   -1    0    0    0  501 -0.00000000000E+00  0.00000000000E+00  0.15210431028E+04  0.15210431028E+04  0.00000000000E+00 0. -1.
          2   -1    0    0  501    0  0.00000000000E+00 -0.00000000000E+00 -0.74858341905E+03  0.74858341905E+03  0.00000000000E+00 0.  1.
         23    2    1    2    0    0  0.39034695169E+03 -0.56894468910E+03  0.88915912858E+03  0.11293445633E+04  0.93522108235E+02 0.  0.
        254    2    1    2    0    0 -0.39034695169E+03  0.56894468910E+03 -0.11669944479E+03  0.11402819586E+04  0.90030849310E+03 0.  0.
         23    2    4    4    0    0  0.20963770885E+03 -0.78228131760E+02  0.14913706199E+02  0.24345646018E+03  0.94768242582E+02 0.  0.
         23    2    4    4    0    0 -0.59998466053E+03  0.64717282086E+03 -0.13161315099E+03  0.89682549842E+03  0.90331058694E+02 0.  0.
          1    1    3    3  502    0  0.31760083028E+03 -0.51455204722E+03  0.75430311051E+03  0.96675088788E+03  0.00000000000E+00 0. -1.
         -1    1    3    3    0  502  0.72746121405E+02 -0.54392641879E+02  0.13485601807E+03  0.16259367540E+03  0.00000000000E+00 0.  1.
         13    1    5    5    0    0  0.18195994216E+03 -0.99917423742E+02  0.88743634354E+01  0.20777792579E+03  0.00000000000E+00 0. -1.
        -13    1    5    5    0    0  0.27677766682E+02  0.21689291982E+02  0.60393427637E+01  0.35678534390E+02  0.00000000000E+00 0.  1.
          1    1    6    6  503    0 -0.53781477296E+03  0.59750306783E+03 -0.14274834919E+03  0.81647519085E+03  0.00000000000E+00 0. -1.
         -1    1    6    6    0  503 -0.62169887575E+02  0.49669753032E+02  0.11135198203E+02  0.80350307569E+02  0.00000000000E+00 0.  1.
<mgrwt>
<rscale>  0 0.21341299E+04</rscale>
<asrwt>0</asrwt>
<pdfrwt beam="1">  1        2 0.11516668E+00 0.21341299E+04</pdfrwt>
<pdfrwt beam="2">  1       -2 0.23400663E+00 0.21341299E+04</pdfrwt>
<totfact> 0.27872408E+00</totfact>
</mgrwt>
</event>
<event>
12    3  0.4769008E-008  0.1773220E+04  0.7818608E-02  0.8720672E-01
          2   -1    0    0  501    0  0.00000000000E+00  0.00000000000E+00  0.14097289807E+04  0.14097289807E+04  0.00000000000E+00 0. -1.
         -2   -1    0    0    0  501 -0.00000000000E+00 -0.00000000000E+00 -0.55760879039E+03  0.55760879039E+03  0.00000000000E+00 0.  1.
         23    2    1    2    0    0 -0.48205308843E+03 -0.33409633182E+03  0.64740237420E+03  0.87824315720E+03  0.90474692855E+02 0.  0.
        254    2    1    2    0    0  0.48205308843E+03  0.33409633182E+03  0.20471781611E+03  0.10890946139E+04  0.89455137068E+03 0.  0.
         23    2    4    4    0    0  0.63985649999E+03  0.84911051863E+02 -0.95241355116E+02  0.65880754156E+03  0.91270114381E+02 0.  0.
         23    2    4    4    0    0 -0.15780341156E+03  0.24918527995E+03  0.29995917123E+03  0.43028707234E+03  0.90422562285E+02 0.  0.
          2    1    3    3  502    0 -0.32677300553E+02  0.78294097277E+00  0.29292207327E+02  0.43891370200E+02  0.00000000000E+00 0. -1.
         -2    1    3    3    0  502 -0.44937578788E+03 -0.33487927279E+03  0.61811016688E+03  0.83435178700E+03  0.00000000000E+00 0.  1.
         13    1    5    5    0    0  0.55788002490E+02  0.29886730869E+02 -0.24653961267E+02  0.67921540839E+02  0.00000000000E+00 0. -1.
        -13    1    5    5    0    0  0.58406849750E+03  0.55024320994E+02 -0.70587393850E+02  0.59088600072E+03  0.00000000000E+00 0.  1.
          1    1    6    6  503    0 -0.36250743077E+02  0.49488317592E+02  0.12173489665E+03  0.13631799226E+03  0.00000000000E+00 0. -1.
         -1    1    6    6    0  503 -0.12155266848E+03  0.19969696236E+03  0.17822427458E+03  0.29396908008E+03  0.00000000000E+00 0.  1.
<mgrwt>
<rscale>  0 0.17732200E+04</rscale>
<asrwt>0</asrwt>
<pdfrwt beam="1">  1        2 0.21688138E+00 0.17732200E+04</pdfrwt>
<pdfrwt beam="2">  1       -2 0.85785968E-01 0.17732200E+04</pdfrwt>
<totfact> 0.15947868E+01</totfact>
</mgrwt>
</event>
<event>
12    3  0.4769008E-008  0.1422281E+04  0.7818608E-02  0.8937847E-01
         -1   -1    0    0    0  501 -0.00000000000E+00  0.00000000000E+00  0.10352470458E+04  0.10352470458E+04  0.00000000000E+00 0.  1.
          1   -1    0    0  501    0  0.00000000000E+00 -0.00000000000E+00 -0.48850243185E+03  0.48850243185E+03  0.00000000000E+00 0. -1.
         23    2    1    2    0    0  0.30951396831E+03  0.25444364355E+03  0.29448969697E+03  0.50556607260E+03  0.91282023541E+02 0.  0.
        254    2    1    2    0    0 -0.30951396831E+03 -0.25444364355E+03  0.25225491698E+03  0.10181834050E+04  0.90140137500E+03 0.  0.
         23    2    4    4    0    0 -0.41045205289E+03 -0.64629680678E+02  0.51418624933E+03  0.66735838604E+03  0.91278875291E+02 0.  0.
         23    2    4    4    0    0  0.10093808458E+03 -0.18981396287E+03 -0.26193133235E+03  0.35082501900E+03  0.90842356135E+02 0.  0.
          3    1    3    3  502    0  0.17104800555E+03  0.16856424012E+03  0.12606370382E+03  0.27122570061E+03  0.00000000000E+00 0. -1.
         -3    1    3    3    0  502  0.13846596276E+03  0.85879403430E+02  0.16842599315E+03  0.23434037199E+03  0.00000000000E+00 0.  1.
         13    1    5    5    0    0 -0.36278351719E+03 -0.45733475289E+02  0.39861684442E+03  0.54092404250E+03  0.00000000000E+00 0. -1.
        -13    1    5    5    0    0 -0.47668535701E+02 -0.18896205389E+02  0.11556940491E+03  0.12643434354E+03  0.00000000000E+00 0.  1.
          4    1    6    6  503    0  0.10133011149E+03 -0.18008767816E+03 -0.26870088269E+03  0.33896832843E+03  0.00000000000E+00 0. -1.
         -4    1    6    6    0  503 -0.39202691107E+00 -0.97262847109E+01  0.67695503408E+01  0.11856690567E+02  0.00000000000E+00 0.  1.
<mgrwt>
<rscale>  0 0.14222808E+04</rscale>
<asrwt>0</asrwt>
<pdfrwt beam="1">  1        1 0.75154221E-01 0.14222808E+04</pdfrwt>
<pdfrwt beam="2">  1       -1 0.15926878E+00 0.14222808E+04</pdfrwt>
<totfact> 0.13186536E+01</totfact>
</mgrwt>
</event>
<event>
12    3  0.4769008E-008  0.1558621E+04  0.7818608E-02  0.8846380E-01
          1   -1    0    0  501    0  0.00000000000E+00  0.00000000000E+00  0.63975142650E+03  0.63975142650E+03  0.00000000000E+00 0. -1.
         -1   -1    0    0    0  501 -0.00000000000E+00 -0.00000000000E+00 -0.94931434761E+03  0.94931434761E+03  0.00000000000E+00 0.  1.
         23    2    1    2    0    0 -0.32769355901E+03  0.30144312839E+03 -0.36298276121E+03  0.58161415838E+03  0.90925882020E+02 0.  0.
        254    2    1    2    0    0  0.32769355901E+03 -0.30144312839E+03  0.53419840112E+02  0.10074516157E+04  0.90213859825E+03 0.  0.
         23    2    4    4    0    0  0.24058180994E+03 -0.85681455919E+02 -0.40280733028E+03  0.48760882913E+03  0.10142832816E+03 0.  0.
         23    2    4    4    0    0  0.87111749070E+02 -0.21576167247E+03  0.45622717039E+03  0.51984278660E+03  0.89172505002E+02 0.  0.
          1    1    3    3  502    0 -0.17814710456E+02 -0.21196615630E+00 -0.13314370170E+01  0.17865653159E+02  0.00000000000E+00 0. -1.
         -1    1    3    3    0  502 -0.30987884856E+03  0.30165509454E+03 -0.36165132420E+03  0.56374850522E+03  0.00000000000E+00 0.  1.
         13    1    5    5    0    0  0.21707113877E+03 -0.98786505455E+02 -0.39148201698E+03  0.45840683085E+03  0.00000000000E+00 0. -1.
        -13    1    5    5    0    0  0.23510671172E+02  0.13105049536E+02 -0.11325313297E+02  0.29201998281E+02  0.00000000000E+00 0.  1.
          1    1    6    6  503    0  0.96380960750E+02 -0.17921355237E+03  0.32625162488E+03  0.38450866009E+03  0.00000000000E+00 0. -1.
         -1    1    6    6    0  503 -0.92692116804E+01 -0.36548120095E+02  0.12997554551E+03  0.13533412651E+03  0.00000000000E+00 0.  1.
<mgrwt>
<rscale>  0 0.15586215E+04</rscale>
<asrwt>0</asrwt>
<pdfrwt beam="1">  1        1 0.98423298E-01 0.15586215E+04</pdfrwt>
<pdfrwt beam="2">  1       -1 0.14604836E+00 0.15586215E+04</pdfrwt>
<totfact> 0.11253614E+01</totfact>
</mgrwt>
</event>
<event>
12    3  0.4769008E-008  0.1751378E+04  0.7818608E-02  0.8732592E-01
          2   -1    0    0  501    0  0.00000000000E+00  0.00000000000E+00  0.56062801138E+03  0.56062801138E+03  0.00000000000E+00 0. -1.
         -2   -1    0    0    0  501 -0.00000000000E+00 -0.00000000000E+00 -0.13678081689E+04  0.13678081689E+04  0.00000000000E+00 0.  1.
         23    2    1    2    0    0 -0.52663145832E+03  0.33840749317E+03 -0.43116948149E+03  0.76560225259E+03  0.91538861067E+02 0.  0.
        254    2    1    2    0    0  0.52663145832E+03 -0.33840749317E+03 -0.37601067606E+03  0.11628339277E+04  0.90495214824E+03 0.  0.
         23    2    4    4    0    0  0.71346667132E+03 -0.15301107166E+03 -0.46491928259E+03  0.87020216934E+03  0.93031161817E+02 0.  0.
         23    2    4    4    0    0 -0.18683521300E+03 -0.18539642151E+03  0.88908606534E+02  0.29263175837E+03  0.91920486094E+02 0.  0.
          3    1    3    3  502    0 -0.12161553936E+02 -0.25455207365E+01  0.49339041090E+00  0.12434890593E+02  0.00000000000E+00 0. -1.
         -3    1    3    3    0  502 -0.51446990438E+03  0.34095301390E+03 -0.43166287190E+03  0.75316736200E+03  0.00000000000E+00 0.  1.
         13    1    5    5    0    0  0.28444979521E+02 -0.92584769918E+01 -0.44761338126E+02  0.53836917139E+02  0.00000000000E+00 0. -1.
        -13    1    5    5    0    0  0.68502169180E+03 -0.14375259467E+03 -0.42015794446E+03  0.81636525221E+03  0.00000000000E+00 0.  1.
          4    1    6    6  503    0  0.10315139494E+01  0.40813007829E+01  0.15258412011E+02  0.15828460892E+02  0.00000000000E+00 0. -1.
         -4    1    6    6    0  503 -0.18786672695E+03 -0.18947772229E+03  0.73650194523E+02  0.27680329747E+03  0.00000000000E+00 0.  1.
<mgrwt>
<rscale>  0 0.17513784E+04</rscale>
<asrwt>0</asrwt>
<pdfrwt beam="1">  1        2 0.86250463E-01 0.17513784E+04</pdfrwt>
<pdfrwt beam="2">  1       -2 0.21043203E+00 0.17513784E+04</pdfrwt>
<totfact> 0.57978624E+00</totfact>
</mgrwt>
</event>
<event>
12    3  0.4769008E-008  0.1568918E+04  0.7818608E-02  0.8839874E-01
         -4   -1    0    0    0  501 -0.00000000000E+00  0.00000000000E+00  0.74441235635E+03  0.74441235635E+03  0.00000000000E+00 0.  1.
          4   -1    0    0  501    0  0.00000000000E+00 -0.00000000000E+00 -0.82665999858E+03  0.82665999858E+03  0.00000000000E+00 0. -1.
         23    2    1    2    0    0 -0.19772994671E+03  0.35397405974E+03  0.29978630905E+03  0.51267153389E+03  0.92550006842E+02 0.  0.
        254    2    1    2    0    0  0.19772994671E+03 -0.35397405974E+03 -0.38203395129E+03  0.10584008210E+04  0.89992643658E+03 0.  0.
         23    2    4    4    0    0 -0.10319587245E+03  0.10345657949E+01  0.24046376157E+03  0.27584732404E+03  0.87283830887E+02 0.  0.
         23    2    4    4    0    0  0.30092581916E+03 -0.35500862554E+03 -0.62249771286E+03  0.78255349700E+03  0.91099397935E+02 0.  0.
          2    1    3    3  502    0 -0.73855380350E+02  0.10288193529E+03  0.45874573530E+02  0.13469887272E+03  0.00000000000E+00 0. -1.
         -2    1    3    3    0  502 -0.12387456636E+03  0.25109212445E+03  0.25391173552E+03  0.37797266117E+03  0.00000000000E+00 0.  1.
         13    1    5    5    0    0 -0.64466838014E+02 -0.43544664766E+00  0.22511074859E+03  0.23416022709E+03  0.00000000000E+00 0.  1.
        -13    1    5    5    0    0 -0.38729034438E+02  0.14700124425E+01  0.15353012981E+02  0.41687096957E+02  0.00000000000E+00 0. -1.
          2    1    6    6  503    0  0.13112385555E+03 -0.20133949815E+03 -0.26226945789E+03  0.35569133747E+03  0.00000000000E+00 0. -1.
         -2    1    6    6    0  503  0.16980196361E+03 -0.15366912739E+03 -0.36022825497E+03  0.42686215953E+03  0.00000000000E+00 0.  1.
<mgrwt>
<rscale>  0 0.15689180E+04</rscale>
<asrwt>0</asrwt>
<pdfrwt beam="1">  1        4 0.12717846E+00 0.15689180E+04</pdfrwt>
<pdfrwt beam="2">  1       -4 0.11452498E+00 0.15689180E+04</pdfrwt>
<totfact> 0.52249408E-01</totfact>
</mgrwt>
</event>
<event>
12    3  0.4769008E-008  0.3187212E+04  0.7818608E-02  0.8192203E-01
          2   -1    0    0  501    0  0.00000000000E+00  0.00000000000E+00  0.17675150822E+04  0.17675150822E+04  0.00000000000E+00 0. -1.
         -2   -1    0    0    0  501 -0.00000000000E+00 -0.00000000000E+00 -0.14368077253E+04  0.14368077253E+04  0.00000000000E+00 0.  1.
         23    2    1    2    0    0 -0.57979996848E+03  0.13231398465E+04  0.35343538486E+03  0.14899862949E+04  0.90969945975E+02 0.  0.
        254    2    1    2    0    0  0.57979996848E+03 -0.13231398465E+04 -0.22728027986E+02  0.17143365126E+04  0.92280336937E+03 0.  0.
         23    2    4    4    0    0  0.51476792225E+03 -0.12565589018E+04  0.27640143300E+03  0.13883776690E+04  0.85255569454E+02 0.  0.
         23    2    4    4    0    0  0.65032046225E+02 -0.66580944619E+02 -0.29912946099E+03  0.32595884359E+03  0.90047454517E+02 0.  0.
          3    1    3    3  502    0 -0.12761232046E+02  0.18189156617E+02 -0.48552025857E+01  0.22743514546E+02  0.00000000000E+00 0. -1.
         -3    1    3    3    0  502 -0.56703873643E+03  0.13049506898E+04  0.35829058745E+03  0.14672427804E+04  0.00000000000E+00 0.  1.
         13    1    5    5    0    0  0.17513252561E+03 -0.32746657682E+03  0.77156386686E+02  0.37928731651E+03  0.00000000000E+00 0.  1.
        -13    1    5    5    0    0  0.33963539664E+03 -0.92909232502E+03  0.19924504631E+03  0.10090903525E+04  0.00000000000E+00 0. -1.
          3    1    6    6  503    0  0.84876641344E+02 -0.40620978091E+02 -0.24830856430E+03  0.26553954736E+03  0.00000000000E+00 0. -1.
         -3    1    6    6    0  503 -0.19844595119E+02 -0.25959966529E+02 -0.50820896685E+02  0.60419296234E+02  0.00000000000E+00 0.  1.
<mgrwt>
<rscale>  0 0.31872115E+04</rscale>
<asrwt>0</asrwt>
<pdfrwt beam="1">  1        2 0.27192540E+00 0.31872115E+04</pdfrwt>
<pdfrwt beam="2">  1       -2 0.22104734E+00 0.31872115E+04</pdfrwt>
<totfact> 0.73808361E-01</totfact>
</mgrwt>
</event>
<event>
12    3  0.4769008E-008  0.1505806E+04  0.7818608E-02  0.8880601E-01
         -2   -1    0    0    0  501 -0.00000000000E+00  0.00000000000E+00  0.27764309562E+03  0.27764309562E+03  0.00000000000E+00 0. -1.
          2   -1    0    0  501    0  0.00000000000E+00 -0.00000000000E+00 -0.20416966084E+04  0.20416966084E+04  0.00000000000E+00 0.  1.
         23    2    1    2    0    0 -0.11980893419E+03 -0.39320925392E+03 -0.95357778409E+03  0.10424639877E+04  0.91939529997E+02 0.  0.
        254    2    1    2    0    0  0.11980893419E+03  0.39320925392E+03 -0.81047572871E+03  0.12768757164E+04  0.89697992741E+03 0.  0.
         23    2    4    4    0    0 -0.23270685577E+03  0.53818188568E+03 -0.51487573143E+03  0.78566052113E+03  0.91505261330E+02 0.  0.
         23    2    4    4    0    0  0.35251578996E+03 -0.14497263176E+03 -0.29559999728E+03  0.49121519525E+03  0.92890061468E+02 0.  0.
          2    1    3    3  502    0 -0.14910000439E+02 -0.49372170618E+02 -0.59024866148E+02  0.78382741522E+02  0.00000000000E+00 0. -1.
         -2    1    3    3    0  502 -0.10489893375E+03 -0.34383708330E+03 -0.89455291794E+03  0.96408124614E+03  0.00000000000E+00 0.  1.
         13    1    5    5    0    0  0.19983531811E+01  0.10587561409E+02 -0.29203368785E+02  0.31127586164E+02  0.00000000000E+00 0. -1.
        -13    1    5    5    0    0 -0.23470520895E+03  0.52759432427E+03 -0.48567236265E+03  0.75453293497E+03  0.00000000000E+00 0.  1.
          2    1    6    6  503    0  0.33441261450E+01 -0.93299265804E+01  0.48341642518E+01  0.11027232367E+02  0.00000000000E+00 0. -1.
         -2    1    6    6    0  503  0.34917166382E+03 -0.13564270518E+03 -0.30043416153E+03  0.48018796288E+03  0.00000000000E+00 0.  1.
<mgrwt>
<rscale>  0 0.15058061E+04</rscale>
<asrwt>0</asrwt>
<pdfrwt beam="1">  1        2 0.31410716E+00 0.15058061E+04</pdfrwt>
<pdfrwt beam="2">  1       -2 0.42714323E-01 0.15058061E+04</pdfrwt>
<totfact> 0.31796642E+01</totfact>
</mgrwt>
</event>
<event>
12    3  0.4769008E-008  0.1526719E+04  0.7818608E-02  0.8866877E-01
          2   -1    0    0  501    0  0.00000000000E+00  0.00000000000E+00  0.22937405216E+04  0.22937405216E+04  0.00000000000E+00 0. -1.
         -2   -1    0    0    0  501 -0.00000000000E+00 -0.00000000000E+00 -0.25404698196E+03  0.25404698196E+03  0.00000000000E+00 0.  1.
         23    2    1    2    0    0  0.24457249140E+03 -0.20072895903E+03  0.12817302145E+04  0.13235815344E+04  0.94487654872E+02 0.  0.
        254    2    1    2    0    0 -0.24457249140E+03  0.20072895903E+03  0.75796332507E+03  0.12242059691E+04  0.90777972770E+03 0.  0.
         23    2    4    4    0    0 -0.45568923304E+03  0.29980403426E+02  0.80728394600E+03  0.93200843294E+03  0.91546970957E+02 0.  0.
         23    2    4    4    0    0  0.21111674164E+03  0.17074855560E+03 -0.49320620931E+02  0.29219753614E+03  0.96028790671E+02 0.  0.
          4    1    3    3  502    0  0.17913547505E+03 -0.16097512518E+03  0.78901730569E+03  0.82495504000E+03  0.00000000000E+00 0. -1.
         -4    1    3    3    0  502  0.65437016353E+02 -0.39753833845E+02  0.49271290884E+03  0.49862649444E+03  0.00000000000E+00 0.  1.
         13    1    5    5    0    0 -0.13743945228E+03  0.12806019014E+02  0.33417543062E+03  0.36156163458E+03  0.00000000000E+00 0.  1.
        -13    1    5    5    0    0 -0.31824978076E+03  0.17174384412E+02  0.47310851538E+03  0.57044679836E+03  0.00000000000E+00 0. -1.
          2    1    6    6  503    0  0.99105468024E+02  0.12892517564E+03  0.63561874676E+00  0.16261610842E+03  0.00000000000E+00 0. -1.
         -2    1    6    6    0  503  0.11201127361E+03  0.41823379964E+02 -0.49956239677E+02  0.12958142772E+03  0.00000000000E+00 0.  1.
<mgrwt>
<rscale>  0 0.15267192E+04</rscale>
<asrwt>0</asrwt>
<pdfrwt beam="1">  1        2 0.35288314E+00 0.15267192E+04</pdfrwt>
<pdfrwt beam="2">  1       -2 0.39084153E-01 0.15267192E+04</pdfrwt>
<totfact> 0.27313652E+01</totfact>
</mgrwt>
</event>
<event>
12    3  0.4769008E-008  0.1886381E+04  0.7818608E-02  0.8661665E-01
         -1   -1    0    0    0  501 -0.00000000000E+00  0.00000000000E+00  0.93597334042E+03  0.93597334042E+03  0.00000000000E+00 0.  1.
          1   -1    0    0  501    0  0.00000000000E+00 -0.00000000000E+00 -0.95046305622E+03  0.95046305622E+03  0.00000000000E+00 0. -1.
         23    2    1    2    0    0 -0.52992023602E+03  0.44482050210E+03  0.20794436658E+03  0.72735347045E+03  0.84388836681E+02 0.  0.
        254    2    1    2    0    0  0.52992023602E+03 -0.44482050210E+03 -0.22243408238E+03  0.11590829262E+04  0.90294826714E+03 0.  0.
         23    2    4    4    0    0  0.76312631732E+03 -0.23247653937E+03 -0.10586039210E+03  0.80981850131E+03  0.90512236182E+02 0.  0.
         23    2    4    4    0    0 -0.23320608130E+03 -0.21234396272E+03 -0.11657369028E+03  0.34926442487E+03  0.94451989684E+02 0.  0.
          1    1    3    3  502    0 -0.11765257604E+03  0.56185515483E+02  0.42130718745E+02  0.13701802167E+03  0.00000000000E+00 0. -1.
         -1    1    3    3    0  502 -0.41226765998E+03  0.38863498662E+03  0.16581364783E+03  0.59033544879E+03  0.00000000000E+00 0.  1.
         13    1    5    5    0    0  0.38605209513E+03 -0.74337119230E+02 -0.70330578167E+02  0.39938529977E+03  0.00000000000E+00 0. -1.
        -13    1    5    5    0    0  0.37707422220E+03 -0.15813942014E+03 -0.35529813932E+02  0.41043320154E+03  0.00000000000E+00 0.  1.
          4    1    6    6  503    0 -0.63225521062E+01 -0.43878182026E+02 -0.30669772410E+02  0.53906441755E+02  0.00000000000E+00 0. -1.
         -4    1    6    6    0  503 -0.22688352919E+03 -0.16846578070E+03 -0.85903917867E+02  0.29535798312E+03  0.00000000000E+00 0.  1.
<mgrwt>
<rscale>  0 0.18863807E+04</rscale>
<asrwt>0</asrwt>
<pdfrwt beam="1">  1        1 0.14622508E+00 0.18863807E+04</pdfrwt>
<pdfrwt beam="2">  1       -1 0.14399590E+00 0.18863807E+04</pdfrwt>
<totfact> 0.60379914E+00</totfact>
</mgrwt>
</event>
<event>
12    3  0.4769008E-008  0.2943960E+04  0.7818608E-02  0.8259917E-01
         -2   -1    0    0    0  501 -0.00000000000E+00  0.00000000000E+00  0.30696160039E+04  0.30696160039E+04  0.00000000000E+00 0.  1.
          2   -1    0    0  501    0  0.00000000000E+00 -0.00000000000E+00 -0.70586194445E+03  0.70586194445E+03  0.00000000000E+00 0. -1.
         23    2    1    2    0    0 -0.87030539682E+03  0.19014910973E+02 -0.22408588573E+03  0.90374183271E+03  0.93497408731E+02 0.  0.
        254    2    1    2    0    0  0.87030539682E+03 -0.19014910973E+02  0.25878399452E+04  0.28717361156E+04  0.89003353051E+03 0.  0.
         23    2    4    4    0    0  0.66766172659E+03 -0.31232944867E+03  0.22597155110E+04  0.23788129423E+04  0.95472288438E+02 0.  0.
         23    2    4    4    0    0  0.20264367023E+03  0.29331453769E+03  0.32812443417E+03  0.49292317339E+03  0.90607590500E+02 0.  0.
          2    1    3    3  502    0 -0.58257081373E+03  0.55120297037E+02 -0.13767076607E+03  0.60114909963E+03  0.00000000000E+00 0. -1.
         -2    1    3    3    0  502 -0.28773458308E+03 -0.36105386064E+02 -0.86415119670E+02  0.30259273308E+03  0.00000000000E+00 0.  1.
         13    1    5    5    0    0  0.43688681823E+03 -0.20865846253E+03  0.16230413204E+04  0.16937153166E+04  0.00000000000E+00 0.  1.
        -13    1    5    5    0    0  0.23077490835E+03 -0.10367098613E+03  0.63667419059E+03  0.68509762564E+03  0.00000000000E+00 0. -1.
          4    1    6    6  503    0  0.22630885864E+02 -0.37368096724E+00  0.13237544880E+02  0.26220778534E+02  0.00000000000E+00 0. -1.
         -4    1    6    6    0  503  0.18001278437E+03  0.29368821866E+03  0.31488688929E+03  0.46670239486E+03  0.00000000000E+00 0.  1.
<mgrwt>
<rscale>  0 0.29439600E+04</rscale>
<asrwt>0</asrwt>
<pdfrwt beam="1">  1        2 0.10859415E+00 0.29439600E+04</pdfrwt>
<pdfrwt beam="2">  1       -2 0.47224861E+00 0.29439600E+04</pdfrwt>
<totfact> 0.86242167E-02</totfact>
</mgrwt>
</event>
<event>
12    3  0.4769008E-008  0.2716886E+04  0.7818608E-02  0.8329547E-01
         -1   -1    0    0    0  501 -0.00000000000E+00  0.00000000000E+00  0.89247801842E+03  0.89247801842E+03  0.00000000000E+00 0.  1.
          1   -1    0    0  501    0  0.00000000000E+00 -0.00000000000E+00 -0.20676894761E+04  0.20676894761E+04  0.00000000000E+00 0. -1.
         23    2    1    2    0    0 -0.24793958328E+03  0.60841246824E+03 -0.16302370308E+04  0.17600039128E+04  0.91111076015E+02 0.  0.
        254    2    1    2    0    0  0.24793958328E+03 -0.60841246824E+03  0.45502557308E+03  0.12001635817E+04  0.89537957441E+03 0.  0.
         23    2    4    4    0    0 -0.17317655470E+03 -0.50839373798E+03  0.52044759659E+03  0.75344217671E+03  0.91406241191E+02 0.  0.
         23    2    4    4    0    0  0.42111613798E+03 -0.10001873026E+03 -0.65422023511E+02  0.44672140501E+03  0.89092224514E+02 0.  0.
          4    1    3    3  502    0 -0.20075901279E+03  0.56327451822E+03 -0.14680306821E+04  0.15851487147E+04  0.00000000000E+00 0. -1.
         -4    1    3    3    0  502 -0.47180570493E+02  0.45137950021E+02 -0.16220634868E+03  0.17485519814E+03  0.00000000000E+00 0.  1.
         13    1    5    5    0    0 -0.15815263678E+03 -0.50503180556E+03  0.50224846141E+03  0.72960461768E+03  0.00000000000E+00 0.  1.
        -13    1    5    5    0    0 -0.15023917912E+02 -0.33619324188E+01  0.18199135183E+02  0.23837559028E+02  0.00000000000E+00 0. -1.
          3    1    6    6  503    0  0.68874300558E+02 -0.51933595552E+02 -0.83884506567E+01  0.86666797153E+02  0.00000000000E+00 0. -1.
         -3    1    6    6    0  503  0.35224183742E+03 -0.48085134703E+02 -0.57033572855E+02  0.36005460786E+03  0.00000000000E+00 0.  1.
<mgrwt>
<rscale>  0 0.27168860E+04</rscale>
<asrwt>0</asrwt>
<pdfrwt beam="1">  1        1 0.31810607E+00 0.27168860E+04</pdfrwt>
<pdfrwt beam="2">  1       -1 0.13730431E+00 0.27168860E+04</pdfrwt>
<totfact> 0.10304781E+00</totfact>
</mgrwt>
</event>
<event>
12    3  0.4769008E-008  0.2041066E+04  0.7818608E-02  0.8587658E-01
         -3   -1    0    0    0  501 -0.00000000000E+00  0.00000000000E+00  0.68080981402E+03  0.68080981402E+03  0.00000000000E+00 0.  1.
          3   -1    0    0  501    0  0.00000000000E+00 -0.00000000000E+00 -0.15297774817E+04  0.15297774817E+04  0.00000000000E+00 0. -1.
         23    2    1    2    0    0 -0.64015160016E+03 -0.62741620541E+02  0.22331790002E+03  0.68675989181E+03  0.89653122545E+02 0.  0.
        254    2    1    2    0    0  0.64015160016E+03  0.62741620541E+02 -0.10722855677E+04  0.15238274039E+04  0.87093227986E+03 0.  0.
         23    2    4    4    0    0  0.61384838149E+03  0.39620175174E+03 -0.73202571736E+03  0.10379969446E+04  0.88262917853E+02 0.  0.
         23    2    4    4    0    0  0.26303218676E+02 -0.33346013120E+03 -0.34025985035E+03  0.48583045929E+03  0.91471039135E+02 0.  0.
          4    1    3    3  502    0 -0.22138963168E+03 -0.44508021770E+02  0.40298511063E+02  0.22938679781E+03  0.00000000000E+00 0. -1.
         -4    1    3    3    0  502 -0.41876196848E+03 -0.18233598771E+02  0.18301938896E+03  0.45737309399E+03  0.00000000000E+00 0.  1.
         13    1    5    5    0    0  0.78341577708E+02  0.55167575638E+02 -0.14182634708E+03  0.17115950726E+03  0.00000000000E+00 0. -1.
        -13    1    5    5    0    0  0.53550680378E+03  0.34103417610E+03 -0.59019937028E+03  0.86683743738E+03  0.00000000000E+00 0.  1.
          3    1    6    6  503    0 -0.59188768586E+01 -0.31646194102E+02 -0.33683871293E+01  0.32370677105E+02  0.00000000000E+00 0. -1.
         -3    1    6    6    0  503  0.32222095535E+02 -0.30181393710E+03 -0.33689146322E+03  0.45345978219E+03  0.00000000000E+00 0.  1.
<mgrwt>
<rscale>  0 0.20410659E+04</rscale>
<asrwt>0</asrwt>
<pdfrwt beam="1">  1        3 0.23535038E+00 0.20410659E+04</pdfrwt>
<pdfrwt beam="2">  1       -3 0.10473997E+00 0.20410659E+04</pdfrwt>
<totfact> 0.17036492E-01</totfact>
</mgrwt>
</event>
<event>
12    3  0.4769008E-008  0.1659795E+04  0.7818608E-02  0.8784633E-01
          1   -1    0    0  501    0  0.00000000000E+00  0.00000000000E+00  0.14192734061E+04  0.14192734061E+04  0.00000000000E+00 0. -1.
         -1   -1    0    0    0  501 -0.00000000000E+00 -0.00000000000E+00 -0.48526957401E+03  0.48526957401E+03  0.00000000000E+00 0.  1.
         23    2    1    2    0    0 -0.50135946590E+03  0.13487736668E+03  0.38852972303E+02  0.52854719476E+03  0.91100853705E+02 0.  0.
        254    2    1    2    0    0  0.50135946590E+03 -0.13487736668E+03  0.89515085981E+03  0.13759957854E+04  0.90692674536E+03 0.  0.
         23    2    4    4    0    0 -0.21713691435E+03  0.87877537519E+02  0.81780851199E+02  0.26453882831E+03  0.91770272346E+02 0.  0.
         23    2    4    4    0    0  0.71849638025E+03 -0.22275490419E+03  0.81337000861E+03  0.11114569571E+04  0.88932562782E+02 0.  0.
          1    1    3    3  502    0 -0.46074755209E+03  0.12185327154E+03  0.93357486716E+01  0.47667985351E+03  0.00000000000E+00 0.  1.
         -1    1    3    3    0  502 -0.40611913812E+02  0.13024095133E+02  0.29517223632E+02  0.51867341251E+02  0.00000000000E+00 0. -1.
         13    1    5    5    0    0 -0.12681697884E+03  0.45249857080E+02  0.93575327169E+02  0.16397084357E+03  0.00000000000E+00 0. -1.
        -13    1    5    5    0    0 -0.90319935511E+02  0.42627680439E+02 -0.11794475970E+02  0.10056798473E+03  0.00000000000E+00 0.  1.
          3    1    6    6  503    0  0.69225776701E+03 -0.22067226667E+03  0.75713406079E+03  0.10493660235E+04  0.00000000000E+00 0. -1.
         -3    1    6    6    0  503  0.26238613236E+02 -0.20826375298E+01  0.56235947820E+02  0.62090933564E+02  0.00000000000E+00 0.  1.
<mgrwt>
<rscale>  0 0.16597954E+04</rscale>
<asrwt>0</asrwt>
<pdfrwt beam="1">  1        1 0.21834975E+00 0.16597954E+04</pdfrwt>
<pdfrwt beam="2">  1       -1 0.74656858E-01 0.16597954E+04</pdfrwt>
<totfact> 0.12835442E+01</totfact>
</mgrwt>
</event>
<event>
12    3  0.4769008E-008  0.1802356E+04  0.7818608E-02  0.8705048E-01
          2   -1    0    0  501    0  0.00000000000E+00  0.00000000000E+00  0.10594711417E+04  0.10594711417E+04  0.00000000000E+00 0. -1.
         -2   -1    0    0    0  501 -0.00000000000E+00 -0.00000000000E+00 -0.76653508141E+03  0.76653508141E+03  0.00000000000E+00 0.  1.
         23    2    1    2    0    0  0.86464858705E+02  0.11197001472E+03 -0.55191466235E+03  0.57693110907E+03  0.90698699585E+02 0.  0.
        254    2    1    2    0    0 -0.86464858705E+02 -0.11197001472E+03  0.84485072264E+03  0.12490751140E+04  0.90906679676E+03 0.  0.
         23    2    4    4    0    0 -0.21462364566E+03  0.35326614782E+03  0.31459201504E+03  0.52728348591E+03  0.90550859224E+02 0.  0.
         23    2    4    4    0    0  0.12815878696E+03 -0.46523616255E+03  0.53025870760E+03  0.72179162813E+03  0.83303636405E+02 0.  0.
          4    1    3    3  502    0 -0.21692701138E+01 -0.11338616610E+02 -0.14847952325E+02  0.18807754989E+02  0.00000000000E+00 0. -1.
         -4    1    3    3    0  502  0.88634128818E+02  0.12330863134E+03 -0.53706671002E+03  0.55812335408E+03  0.00000000000E+00 0.  1.
         13    1    5    5    0    0 -0.16596131327E+02  0.38616967310E+02  0.28982464037E+01  0.42131954280E+02  0.00000000000E+00 0. -1.
        -13    1    5    5    0    0 -0.19802751434E+03  0.31464918051E+03  0.31169376864E+03  0.48515153163E+03  0.00000000000E+00 0.  1.
          4    1    6    6  503    0  0.10920651607E+01 -0.19159733080E+00  0.19191193286E+02  0.19223194729E+02  0.00000000000E+00 0. -1.
         -4    1    6    6    0  503  0.12706672180E+03 -0.46504456522E+03  0.51106751431E+03  0.70256843340E+03  0.00000000000E+00 0.  1.
<mgrwt>
<rscale>  0 0.18023560E+04</rscale>
<asrwt>0</asrwt>
<pdfrwt beam="1">  1        2 0.16299556E+00 0.18023560E+04</pdfrwt>
<pdfrwt beam="2">  1       -2 0.11792847E+00 0.18023560E+04</pdfrwt>
<totfact> 0.12084349E+01</totfact>
</mgrwt>
</event>
<event>
12    3  0.4769008E-008  0.2211297E+04  0.7818608E-02  0.8513741E-01
          1   -1    0    0  501    0  0.00000000000E+00  0.00000000000E+00  0.10273035802E+04  0.10273035802E+04  0.00000000000E+00 0. -1.
         -1   -1    0    0    0  501 -0.00000000000E+00 -0.00000000000E+00 -0.11899681528E+04  0.11899681528E+04  0.00000000000E+00 0.  1.
         23    2    1    2    0    0 -0.69844534784E+03  0.36019248941E+03 -0.54923470345E+03  0.96348061584E+03  0.95244969876E+02 0.  0.
        254    2    1    2    0    0  0.69844534784E+03 -0.36019248941E+03  0.38657013085E+03  0.12537911172E+04  0.89721299935E+03 0.  0.
         23    2    4    4    0    0  0.47152815687E+03 -0.62686529689E+03  0.10775573885E+03  0.79701767412E+03  0.91252235314E+02 0.  0.
         23    2    4    4    0    0  0.22691719097E+03  0.26667280748E+03  0.27881439200E+03  0.45677344309E+03  0.91097284948E+02 0.  0.
          1    1    3    3  502    0 -0.33242417078E+03  0.22393614407E+03 -0.26662401024E+03  0.48139545986E+03  0.00000000000E+00 0. -1.
         -1    1    3    3    0  502 -0.36602117705E+03  0.13625634534E+03 -0.28261069321E+03  0.48208515598E+03  0.00000000000E+00 0.  1.
         13    1    5    5    0    0  0.21024365563E+03 -0.29964146794E+03  0.94597028720E+02  0.37806877931E+03  0.00000000000E+00 0.  1.
        -13    1    5    5    0    0  0.26128450124E+03 -0.32722382894E+03  0.13158710130E+02  0.41894889482E+03  0.00000000000E+00 0. -1.
          1    1    6    6  503    0  0.12398734065E+02  0.26226879172E+02 -0.23729202009E+01  0.29106847095E+02  0.00000000000E+00 0. -1.
         -1    1    6    6    0  503  0.21451845690E+03  0.24044592830E+03  0.28118731220E+03  0.42766659600E+03  0.00000000000E+00 0.  1.
<mgrwt>
<rscale>  0 0.22112969E+04</rscale>
<asrwt>0</asrwt>
<pdfrwt beam="1">  1        1 0.15804670E+00 0.22112969E+04</pdfrwt>
<pdfrwt beam="2">  1       -1 0.18307202E+00 0.22112969E+04</pdfrwt>
<totfact> 0.25961977E+00</totfact>
</mgrwt>
</event>
<event>
12    3  0.4769008E-008  0.3843785E+04  0.7818608E-02  0.8036824E-01
          1   -1    0    0  501    0  0.00000000000E+00  0.00000000000E+00  0.23385621257E+04  0.23385621257E+04  0.00000000000E+00 0. -1.
         -1   -1    0    0    0  501 -0.00000000000E+00 -0.00000000000E+00 -0.15794620173E+04  0.15794620173E+04  0.00000000000E+00 0.  1.
         23    2    1    2    0    0  0.10866168092E+04 -0.90976053959E+03  0.14972721249E+04  0.20637169188E+04  0.93291883877E+02 0.  0.
        254    2    1    2    0    0 -0.10866168092E+04  0.90976053959E+03 -0.73817201648E+03  0.18543072243E+04  0.94082784113E+03 0.  0.
         23    2    4    4    0    0 -0.95036309625E+03  0.10954655484E+04 -0.63410714637E+03  0.15855460737E+04  0.92896159236E+02 0.  0.
         23    2    4    4    0    0 -0.13625371291E+03 -0.18570500881E+03 -0.10406487011E+03  0.26876115052E+03  0.91387276240E+02 0.  0.
          3    1    3    3  502    0  0.28411552411E+03 -0.29256738099E+03  0.43665822214E+03  0.59748448216E+03  0.00000000000E+00 0. -1.
         -3    1    3    3    0  502  0.80250128505E+03 -0.61719315860E+03  0.10606139027E+04  0.14662324366E+04  0.00000000000E+00 0.  1.
         13    1    5    5    0    0 -0.82011389697E+03  0.98556619055E+03 -0.57475166572E+03  0.14050861174E+04  0.00000000000E+00 0. -1.
        -13    1    5    5    0    0 -0.13024919928E+03  0.10989935785E+03 -0.59355480644E+02  0.18045995636E+03  0.00000000000E+00 0.  1.
          3    1    6    6  503    0 -0.14810076555E+03 -0.15318871504E+03 -0.86650452919E+02  0.23001939085E+03  0.00000000000E+00 0. -1.
         -3    1    6    6    0  503  0.11847052640E+02 -0.32516293768E+02 -0.17414417194E+02  0.38741759676E+02  0.00000000000E+00 0.  1.
<mgrwt>
<rscale>  0 0.38437846E+04</rscale>
<asrwt>0</asrwt>
<pdfrwt beam="1">  1        1 0.35977879E+00 0.38437846E+04</pdfrwt>
<pdfrwt beam="2">  1       -1 0.24299416E+00 0.38437846E+04</pdfrwt>
<totfact> 0.10757532E-01</totfact>
</mgrwt>
</event>
<event>
12    3  0.4769008E-008  0.1774751E+04  0.7818608E-02  0.8719843E-01
          2   -1    0    0  501    0  0.00000000000E+00  0.00000000000E+00  0.55299069387E+03  0.55299069387E+03  0.00000000000E+00 0. -1.
         -2   -1    0    0    0  501 -0.00000000000E+00 -0.00000000000E+00 -0.14239579800E+04  0.14239579800E+04  0.00000000000E+00 0.  1.
         23    2    1    2    0    0  0.46472542810E+02  0.48769056372E+03 -0.81945454126E+03  0.95891185641E+03  0.89467424198E+02 0.  0.
        254    2    1    2    0    0 -0.46472542810E+02 -0.48769056372E+03 -0.51512744854E+02  0.10180368175E+04  0.89092290106E+03 0.  0.
         23    2    4    4    0    0 -0.36253662634E+03 -0.17664609823E+03  0.24123603191E+03  0.47889576131E+03  0.92247914115E+02 0.  0.
         23    2    4    4    0    0  0.31606408353E+03 -0.31104446549E+03 -0.29274877676E+03  0.53914105614E+03  0.91247288796E+02 0.  0.
          2    1    3    3  502    0  0.80961521738E+01  0.39596668335E+02 -0.29968593334E+02  0.50314614276E+02  0.00000000000E+00 0. -1.
         -2    1    3    3    0  502  0.38376390636E+02  0.44809389538E+03 -0.78948594793E+03  0.90859724214E+03  0.00000000000E+00 0.  1.
         13    1    5    5    0    0 -0.19593419143E+03 -0.13040349642E+03  0.10034624239E+03  0.25586060191E+03  0.00000000000E+00 0.  1.
        -13    1    5    5    0    0 -0.16660243491E+03 -0.46242601812E+02  0.14088978951E+03  0.22303515940E+03  0.00000000000E+00 0. -1.
          3    1    6    6  503    0  0.30957708485E+03 -0.27770721377E+03 -0.28539839399E+03  0.50439221975E+03  0.00000000000E+00 0. -1.
         -3    1    6    6    0  503  0.64869986760E+01 -0.33337251716E+02 -0.73503827669E+01  0.34748836393E+02  0.00000000000E+00 0.  1.
<mgrwt>
<rscale>  0 0.17747513E+04</rscale>
<asrwt>0</asrwt>
<pdfrwt beam="1">  1        2 0.85075493E-01 0.17747513E+04</pdfrwt>
<pdfrwt beam="2">  1       -2 0.21907045E+00 0.17747513E+04</pdfrwt>
<totfact> 0.51802835E+00</totfact>
</mgrwt>
</event>
<event>
12    3  0.4769008E-008  0.1889974E+04  0.7818608E-02  0.8659863E-01
         -1   -1    0    0    0  501 -0.00000000000E+00  0.00000000000E+00  0.92380535084E+03  0.92380535084E+03  0.00000000000E+00 0.  1.
          1   -1    0    0  501    0  0.00000000000E+00 -0.00000000000E+00 -0.96665389568E+03  0.96665389568E+03  0.00000000000E+00 0. -1.
         23    2    1    2    0    0 -0.28544296695E+03  0.29894933855E+03 -0.60735093097E+03  0.73890734254E+03  0.79123404212E+02 0.  0.
        254    2    1    2    0    0  0.28544296695E+03 -0.29894933855E+03  0.56450238614E+03  0.11515519040E+04  0.91463678540E+03 0.  0.
         23    2    4    4    0    0  0.52392306274E+03 -0.43178351152E+03  0.52198472672E+03  0.86122884856E+03  0.91184966792E+02 0.  0.
         23    2    4    4    0    0 -0.23848009579E+03  0.13283417297E+03  0.42517659417E+02  0.29032305543E+03  0.89230328695E+02 0.  0.
          2    1    3    3  502    0 -0.28383261805E+02  0.85017496610E+01 -0.71643001864E+02  0.77528117571E+02  0.00000000000E+00 0.  1.
         -2    1    3    3    0  502 -0.25705970515E+03  0.29044758889E+03 -0.53570792911E+03  0.66137922497E+03  0.00000000000E+00 0. -1.
         13    1    5    5    0    0  0.48945635119E+03 -0.40254036741E+03  0.51254858652E+03  0.81505356919E+03  0.00000000000E+00 0.  1.
        -13    1    5    5    0    0  0.34466711545E+02 -0.29243144111E+02  0.94361402025E+01  0.46175279362E+02  0.00000000000E+00 0. -1.
          2    1    6    6  503    0 -0.25241619530E+02  0.37713296862E+02  0.33947970956E+02  0.56673599221E+02  0.00000000000E+00 0. -1.
         -2    1    6    6    0  503 -0.21323847626E+03  0.95120876103E+02  0.85696884613E+01  0.23364945621E+03  0.00000000000E+00 0.  1.
<mgrwt>
<rscale>  0 0.18899736E+04</rscale>
<asrwt>0</asrwt>
<pdfrwt beam="1">  1        1 0.14871598E+00 0.18899736E+04</pdfrwt>
<pdfrwt beam="2">  1       -1 0.14212390E+00 0.18899736E+04</pdfrwt>
<totfact> 0.60656307E+00</totfact>
</mgrwt>
</event>
<event>
12    3  0.4769008E-008  0.2003391E+04  0.7818608E-02  0.8605037E-01
         -2   -1    0    0    0  501 -0.00000000000E+00  0.00000000000E+00  0.69262953963E+03  0.69262953963E+03  0.00000000000E+00 0.  1.
          2   -1    0    0  501    0  0.00000000000E+00 -0.00000000000E+00 -0.14486733812E+04  0.14486733812E+04  0.00000000000E+00 0. -1.
         23    2    1    2    0    0 -0.69026364666E+03 -0.38922734558E+03 -0.29908771266E+03  0.85175631356E+03  0.89852820682E+02 0.  0.
        254    2    1    2    0    0  0.69026364666E+03  0.38922734558E+03 -0.45695612892E+03  0.12895466073E+04  0.90893328695E+03 0.  0.
         23    2    4    4    0    0  0.35860557886E+03  0.48217723695E+03  0.11293163111E+03  0.61791146636E+03  0.89264651094E+02 0.  0.
         23    2    4    4    0    0  0.33165806780E+03 -0.92949891375E+02 -0.56988776003E+03  0.67163514092E+03  0.87663830847E+02 0.  0.
          2    1    3    3  502    0 -0.10172435225E+03 -0.42105229801E+02 -0.72769693870E+02  0.13197015785E+03  0.00000000000E+00 0. -1.
         -2    1    3    3    0  502 -0.58853929441E+03 -0.34712211578E+03 -0.22631801879E+03  0.71978615571E+03  0.00000000000E+00 0.  1.
         13    1    5    5    0    0  0.30037289157E+02  0.82089760477E+02  0.35904917184E+02  0.94499368215E+02  0.00000000000E+00 0.  1.
        -13    1    5    5    0    0  0.32856828970E+03  0.40008747647E+03  0.77026713921E+02  0.52341209815E+03  0.00000000000E+00 0. -1.
          3    1    6    6  503    0  0.38273007072E+02 -0.43408111540E+02 -0.91159256901E+02  0.10797730010E+03  0.00000000000E+00 0. -1.
         -3    1    6    6    0  503  0.29338506073E+03 -0.49541779834E+02 -0.47872850313E+03  0.56365784082E+03  0.00000000000E+00 0.  1.
<mgrwt>
<rscale>  0 0.20033911E+04</rscale>
<asrwt>0</asrwt>
<pdfrwt beam="1">  1        2 0.22287282E+00 0.20033911E+04</pdfrwt>
<pdfrwt beam="2">  1       -2 0.10655839E+00 0.20033911E+04</pdfrwt>
<totfact> 0.89459631E+00</totfact>
</mgrwt>
</event>
<event>
12    3  0.4769008E-008  0.1444636E+04  0.7818608E-02  0.8922128E-01
         -2   -1    0    0    0  501 -0.00000000000E+00  0.00000000000E+00  0.15905582546E+03  0.15905582546E+03  0.00000000000E+00 0.  1.
          2   -1    0    0  501    0  0.00000000000E+00 -0.00000000000E+00 -0.32802535275E+04  0.32802535275E+04  0.00000000000E+00 0. -1.
         23    2    1    2    0    0 -0.24956267582E+02 -0.21118825734E+03 -0.18243217643E+04  0.18388771649E+04  0.89977955543E+02 0.  0.
        254    2    1    2    0    0  0.24956267582E+02  0.21118825734E+03 -0.12968759378E+04  0.16004321881E+04  0.91338529407E+03 0.  0.
         23    2    4    4    0    0 -0.38409235851E+03  0.27819747181E+03 -0.48786481125E+03  0.68681187496E+03  0.93689403582E+02 0.  0.
         23    2    4    4    0    0  0.40904862609E+03 -0.67009214474E+02 -0.80901112651E+03  0.91362031313E+03  0.91608189695E+02 0.  0.
          3    1    3    3  502    0 -0.37817826082E+02 -0.21434220908E+03 -0.17243489347E+04  0.17380310754E+04  0.00000000000E+00 0. -1.
         -3    1    3    3    0  502  0.12861558500E+02  0.31539517409E+01 -0.99972829649E+02  0.10084608950E+03  0.00000000000E+00 0.  1.
         13    1    5    5    0    0 -0.12038064408E+03  0.37161894716E+02 -0.11933464809E+03  0.17353173808E+03  0.00000000000E+00 0.  1.
        -13    1    5    5    0    0 -0.26371171443E+03  0.24103557710E+03 -0.36853016317E+03  0.51328013688E+03  0.00000000000E+00 0. -1.
          1    1    6    6  503    0  0.39930302989E+03 -0.75614585446E+02 -0.80139852102E+03  0.89855443058E+03  0.00000000000E+00 0. -1.
         -1    1    6    6    0  503  0.97455961976E+01  0.86053709721E+01 -0.76126054864E+01  0.15065882553E+02  0.00000000000E+00 0.  1.
<mgrwt>
<rscale>  0 0.14446362E+04</rscale>
<asrwt>0</asrwt>
<pdfrwt beam="1">  1        2 0.50465435E+00 0.14446362E+04</pdfrwt>
<pdfrwt beam="2">  1       -2 0.24470129E-01 0.14446362E+04</pdfrwt>
<totfact> 0.16815945E+01</totfact>
</mgrwt>
</event>
<event>
12    3  0.4769008E-008  0.1752175E+04  0.7818608E-02  0.8732154E-01
          1   -1    0    0  501    0  0.00000000000E+00  0.00000000000E+00  0.11890787908E+04  0.11890787908E+04  0.00000000000E+00 0. -1.
         -1   -1    0    0    0  501 -0.00000000000E+00 -0.00000000000E+00 -0.64548232065E+03  0.64548232065E+03  0.00000000000E+00 0.  1.
         23    2    1    2    0    0  0.38369328000E+03 -0.20000816725E+03  0.69240493367E+03  0.82577688919E+03  0.12352764253E+03 0.  0.
        254    2    1    2    0    0 -0.38369328000E+03  0.20000816725E+03 -0.14880846352E+03  0.10087842223E+04  0.89904273991E+03 0.  0.
         23    2    4    4    0    0  0.14849176044E+03  0.34304654816E+03  0.99373236830E+02  0.39829949790E+03  0.95061625856E+02 0.  0.
         23    2    4    4    0    0 -0.53218504044E+03 -0.14303838091E+03 -0.24818170035E+03  0.61048472436E+03  0.86119374151E+02 0.  0.
          1    1    3    3  502    0  0.24991943261E+03 -0.19198773148E+03  0.50808489219E+03  0.59788733847E+03  0.00000000000E+00 0. -1.
         -1    1    3    3    0  502  0.13377384739E+03 -0.80204357700E+01  0.18432004148E+03  0.22788955072E+03  0.00000000000E+00 0.  1.
         13    1    5    5    0    0  0.10999897792E+03  0.15492273681E+03  0.76873476514E+02  0.20496429180E+03  0.00000000000E+00 0.  1.
        -13    1    5    5    0    0  0.38492782519E+02  0.18812381135E+03  0.22499760316E+02  0.19333520610E+03  0.00000000000E+00 0. -1.
          4    1    6    6  503    0 -0.25864419391E+03 -0.91468136396E+02 -0.16422659010E+03  0.31973991292E+03  0.00000000000E+00 0. -1.
         -4    1    6    6    0  503 -0.27354084653E+03 -0.51570244515E+02 -0.83955110245E+02  0.29074481143E+03  0.00000000000E+00 0.  1.
<mgrwt>
<rscale>  0 0.17521750E+04</rscale>
<asrwt>0</asrwt>
<pdfrwt beam="1">  1        1 0.18293520E+00 0.17521750E+04</pdfrwt>
<pdfrwt beam="2">  1       -1 0.99304972E-01 0.17521750E+04</pdfrwt>
<totfact> 0.99882786E+00</totfact>
</mgrwt>
</event>
<event>
12    3  0.4769008E-008  0.2188630E+04  0.7818608E-02  0.8523175E-01
          2   -1    0    0  501    0  0.00000000000E+00  0.00000000000E+00  0.14473316795E+04  0.14473316795E+04  0.00000000000E+00 0. -1.
         -2   -1    0    0    0  501 -0.00000000000E+00 -0.00000000000E+00 -0.82740230358E+03  0.82740230358E+03  0.00000000000E+00 0.  1.
         23    2    1    2    0    0  0.17127582910E+03  0.79794716507E+03  0.66832656263E+03  0.10585265954E+04  0.88108290708E+02 0.  0.
        254    2    1    2    0    0 -0.17127582910E+03 -0.79794716507E+03 -0.48397186688E+02  0.12162073877E+04  0.90042380824E+03 0.  0.
         23    2    4    4    0    0 -0.43659669623E+03 -0.23272243666E+03 -0.23906605482E+03  0.55702358486E+03  0.91358020126E+02 0.  0.
         23    2    4    4    0    0  0.26532086713E+03 -0.56522472840E+03  0.19066886814E+03  0.65918380288E+03  0.91074214604E+02 0.  0.
          4    1    3    3  502    0  0.20121583576E+00  0.42534686317E+02  0.60529314393E+02  0.73979983298E+02  0.00000000000E+00 0. -1.
         -4    1    3    3    0  502  0.17107461326E+03  0.75541247875E+03  0.60779724824E+03  0.98454661206E+03  0.00000000000E+00 0.  1.
         13    1    5    5    0    0 -0.12418267446E+03 -0.37591725566E+02 -0.28860533420E+02  0.13291879046E+03  0.00000000000E+00 0. -1.
        -13    1    5    5    0    0 -0.31241402177E+03 -0.19513071110E+03 -0.21020552140E+03  0.42410479441E+03  0.00000000000E+00 0.  1.
          2    1    6    6  503    0  0.12835597764E+03 -0.22828905027E+03  0.37633139526E+02  0.26458911667E+03  0.00000000000E+00 0. -1.
         -2    1    6    6    0  503  0.13696488949E+03 -0.33693567814E+03  0.15303572861E+03  0.39459468621E+03  0.00000000000E+00 0.  1.
<mgrwt>
<rscale>  0 0.21886302E+04</rscale>
<asrwt>0</asrwt>
<pdfrwt beam="1">  1        2 0.22266641E+00 0.21886302E+04</pdfrwt>
<pdfrwt beam="2">  1       -2 0.12729266E+00 0.21886302E+04</pdfrwt>
<totfact> 0.56991748E+00</totfact>
</mgrwt>
</event>
<event>
12    3  0.4769008E-008  0.1576897E+04  0.7818608E-02  0.8834868E-01
         -2   -1    0    0    0  501 -0.00000000000E+00  0.00000000000E+00  0.54990399157E+03  0.54990399157E+03  0.00000000000E+00 0.  1.
          2   -1    0    0  501    0  0.00000000000E+00 -0.00000000000E+00 -0.11304715015E+04  0.11304715015E+04  0.00000000000E+00 0. -1.
         23    2    1    2    0    0  0.45213831266E+03 -0.28709497487E+03 -0.27679507718E+03  0.60989036280E+03  0.92185473440E+02 0.  0.
        254    2    1    2    0    0 -0.45213831266E+03  0.28709497487E+03 -0.30377243272E+03  0.10704851303E+04  0.87567582177E+03 0.  0.
         23    2    4    4    0    0 -0.37346819780E+03  0.97255852276E+01 -0.55632572309E+03  0.67650277395E+03  0.92653177004E+02 0.  0.
         23    2    4    4    0    0 -0.78670114864E+02  0.27736938965E+03  0.25255329037E+03  0.39398235630E+03  0.91193022303E+02 0.  0.
          1    1    3    3  502    0  0.39018435073E+03 -0.21737179487E+03 -0.25420993241E+03  0.51392316010E+03  0.00000000000E+00 0. -1.
         -1    1    3    3    0  502  0.61953961933E+02 -0.69723180005E+02 -0.22585144776E+02  0.95967202698E+02  0.00000000000E+00 0.  1.
         13    1    5    5    0    0 -0.11993104256E+03 -0.40181180329E+02 -0.17906561044E+03  0.21923155582E+03  0.00000000000E+00 0.  1.
        -13    1    5    5    0    0 -0.25353715523E+03  0.49906765557E+02 -0.37726011265E+03  0.45727121813E+03  0.00000000000E+00 0. -1.
          3    1    6    6  503    0 -0.75413562635E+02  0.20854045791E+03  0.23450471150E+03  0.32275189810E+03  0.00000000000E+00 0. -1.
         -3    1    6    6    0  503 -0.32565522296E+01  0.68828931738E+02  0.18048578876E+02  0.71230458204E+02  0.00000000000E+00 0.  1.
<mgrwt>
<rscale>  0 0.15768967E+04</rscale>
<asrwt>0</asrwt>
<pdfrwt beam="1">  1        2 0.17391869E+00 0.15768967E+04</pdfrwt>
<pdfrwt beam="2">  1       -2 0.84600615E-01 0.15768967E+04</pdfrwt>
<totfact> 0.24417083E+01</totfact>
</mgrwt>
</event>
<event>
12    3  0.4769008E-008  0.2050631E+04  0.7818608E-02  0.8583308E-01
         -2   -1    0    0    0  501 -0.00000000000E+00  0.00000000000E+00  0.37327111463E+03  0.37327111463E+03  0.00000000000E+00 0.  1.
          2   -1    0    0  501    0  0.00000000000E+00 -0.00000000000E+00 -0.28163751003E+04  0.28163751003E+04  0.00000000000E+00 0. -1.
         23    2    1    2    0    0 -0.24224214042E+03  0.42620770041E+03  0.42246952595E+02  0.50066936816E+03  0.92470280240E+02 0.  0.
        254    2    1    2    0    0  0.24224214042E+03 -0.42620770041E+03 -0.24853509383E+04  0.26889768468E+04  0.90182755425E+03 0.  0.
         23    2    4    4    0    0 -0.20136255846E+03  0.11204634656E+03 -0.27899619022E+03  0.37315957909E+03  0.91147866578E+02 0.  0.
         23    2    4    4    0    0  0.44360469888E+03 -0.53825404698E+03 -0.22063547481E+04  0.23158172677E+04  0.92226867289E+02 0.  0.
          2    1    3    3  502    0  0.68393303091E+01  0.22242791515E+02  0.89055867353E+01  0.24916414039E+02  0.00000000000E+00 0. -1.
         -2    1    3    3    0  502 -0.24908147073E+03  0.40396490890E+03  0.33341365859E+02  0.47575295412E+03  0.00000000000E+00 0.  1.
         13    1    5    5    0    0 -0.68955237791E+02 -0.64094988817E+01 -0.92940310979E+02  0.11590430492E+03  0.00000000000E+00 0.  1.
        -13    1    5    5    0    0 -0.13240732067E+03  0.11845584545E+03 -0.18605587924E+03  0.25725527417E+03  0.00000000000E+00 0. -1.
          4    1    6    6  503    0  0.44082487646E+03 -0.50815657485E+03 -0.20898159657E+04  0.21954226123E+04  0.00000000000E+00 0.  1.
         -4    1    6    6    0  503  0.27798224178E+01 -0.30097472132E+02 -0.11653878241E+03  0.12039465539E+03  0.00000000000E+00 0. -1.
<mgrwt>
<rscale>  0 0.20506306E+04</rscale>
<asrwt>0</asrwt>
<pdfrwt beam="1">  1        2 0.43328847E+00 0.20506306E+04</pdfrwt>
<pdfrwt beam="2">  1       -2 0.57426327E-01 0.20506306E+04</pdfrwt>
<totfact> 0.59483829E+00</totfact>
</mgrwt>
</event>
<event>
12    3  0.4769008E-008  0.1565929E+04  0.7818608E-02  0.8841757E-01
         -2   -1    0    0    0  501 -0.00000000000E+00  0.00000000000E+00  0.39414346381E+03  0.39414346381E+03  0.00000000000E+00 0.  1.
          2   -1    0    0  501    0  0.00000000000E+00 -0.00000000000E+00 -0.15553554354E+04  0.15553554354E+04  0.00000000000E+00 0. -1.
         23    2    1    2    0    0 -0.65886150504E+01 -0.21076678839E+03 -0.95360953850E+03  0.98080209369E+03  0.90197262354E+02 0.  0.
        254    2    1    2    0    0  0.65886150504E+01  0.21076678839E+03 -0.20760243313E+03  0.96869680556E+03  0.92239291081E+03 0.  0.
         23    2    4    4    0    0 -0.28985756185E+03  0.22361775438E+03 -0.43938106416E+03  0.57913610976E+03  0.91217365935E+02 0.  0.
         23    2    4    4    0    0  0.29644617690E+03 -0.12850965994E+02  0.23177863103E+03  0.38956069580E+03  0.99953583133E+02 0.  0.
          4    1    3    3  502    0 -0.22737713865E+02 -0.15639367652E+03 -0.51961406431E+03  0.54311579015E+03  0.00000000000E+00 0. -1.
         -4    1    3    3    0  502  0.16149098814E+02 -0.54373111875E+02 -0.43399547419E+03  0.43768630354E+03  0.00000000000E+00 0.  1.
         13    1    5    5    0    0 -0.49553711540E+02  0.38991289583E+02 -0.30080268853E+02  0.69862103926E+02  0.00000000000E+00 0.  1.
        -13    1    5    5    0    0 -0.24030385031E+03  0.18462646480E+03 -0.40930079531E+03  0.50927400584E+03  0.00000000000E+00 0. -1.
          4    1    6    6  503    0  0.25010114076E+03  0.11061605642E+02  0.14783686795E+03  0.29073816271E+03  0.00000000000E+00 0. -1.
         -4    1    6    6    0  503  0.46345036136E+02 -0.23912571636E+02  0.83941763077E+02  0.98822533084E+02  0.00000000000E+00 0.  1.
<mgrwt>
<rscale>  0 0.15659287E+04</rscale>
<asrwt>0</asrwt>
<pdfrwt beam="1">  1        2 0.23928546E+00 0.15659287E+04</pdfrwt>
<pdfrwt beam="2">  1       -2 0.60637454E-01 0.15659287E+04</pdfrwt>
<totfact> 0.28761514E+01</totfact>
</mgrwt>
</event>
<event>
12    3  0.4769008E-008  0.1545344E+04  0.7818608E-02  0.8854847E-01
         -2   -1    0    0    0  501 -0.00000000000E+00  0.00000000000E+00  0.57852527381E+03  0.57852527381E+03  0.00000000000E+00 0. -1.
          2   -1    0    0  501    0  0.00000000000E+00 -0.00000000000E+00 -0.10319725100E+04  0.10319725100E+04  0.00000000000E+00 0.  1.
         23    2    1    2    0    0 -0.34342927570E+03  0.19542366438E+03  0.17914039306E+03  0.44311316651E+03  0.90132801440E+02 0.  0.
        254    2    1    2    0    0  0.34342927570E+03 -0.19542366438E+03 -0.63258762926E+03  0.11673846173E+04  0.89804546657E+03 0.  0.
         23    2    4    4    0    0  0.11638415031E+03 -0.36176685545E+03 -0.75266141638E+03  0.84777355412E+03  0.88319098796E+02 0.  0.
         23    2    4    4    0    0  0.22704512540E+03  0.16634319107E+03  0.12007378712E+03  0.31961106319E+03  0.92271182817E+02 0.  0.
          3    1    3    3  502    0 -0.34790988244E+03  0.19765571681E+03  0.17818474082E+03  0.43801697518E+03  0.00000000000E+00 0. -1.
         -3    1    3    3    0  502  0.44806067381E+01 -0.22320524294E+01  0.95565224006E+00  0.50961913223E+01  0.00000000000E+00 0.  1.
         13    1    5    5    0    0  0.36912869492E+02 -0.31867500819E+02 -0.68552089861E+02  0.84127799014E+02  0.00000000000E+00 0.  1.
        -13    1    5    5    0    0  0.79471280813E+02 -0.32989935463E+03 -0.68410932652E+03  0.76364575511E+03  0.00000000000E+00 0. -1.
          3    1    6    6  503    0  0.14161157066E+03  0.95097484538E+02  0.11966567114E+03  0.20836804304E+03  0.00000000000E+00 0. -1.
         -3    1    6    6    0  503  0.85433554737E+02  0.71245706528E+02  0.40811598267E+00  0.11124302015E+03  0.00000000000E+00 0.  1.
<mgrwt>
<rscale>  0 0.15453442E+04</rscale>
<asrwt>0</asrwt>
<pdfrwt beam="1">  1        2 0.15876500E+00 0.15453442E+04</pdfrwt>
<pdfrwt beam="2">  1       -2 0.89003889E-01 0.15453442E+04</pdfrwt>
<totfact> 0.25095708E+01</totfact>
</mgrwt>
</event>
<event>
12    3  0.4769008E-008  0.1381271E+04  0.7818608E-02  0.8967488E-01
          2   -1    0    0  501    0  0.00000000000E+00  0.00000000000E+00  0.68822008303E+03  0.68822008303E+03  0.00000000000E+00 0. -1.
         -2   -1    0    0    0  501 -0.00000000000E+00 -0.00000000000E+00 -0.69305964009E+03  0.69305964009E+03  0.00000000000E+00 0.  1.
         23    2    1    2    0    0 -0.74653936600E+01  0.35486271910E+03  0.83540698738E+02  0.37715634924E+03  0.96356535405E+02 0.  0.
        254    2    1    2    0    0  0.74653936600E+01 -0.35486271910E+03 -0.88380255798E+02  0.10041233739E+04  0.93513068544E+03 0.  0.
         23    2    4    4    0    0 -0.39309526066E+03 -0.11227516057E+03  0.18008951440E+03  0.45671712176E+03  0.95019474195E+02 0.  0.
         23    2    4    4    0    0  0.40056065432E+03 -0.24258755853E+03 -0.26846977020E+03  0.54740625212E+03  0.90994648207E+02 0.  0.
          1    1    3    3  502    0 -0.34714946243E+02  0.15830656238E+03  0.74882629778E+02  0.17853151942E+03  0.00000000000E+00 0. -1.
         -1    1    3    3    0  502  0.27249552583E+02  0.19655615673E+03  0.86580689601E+01  0.19862482982E+03  0.00000000000E+00 0.  1.
         13    1    5    5    0    0 -0.18102910011E+03 -0.57883779777E+02  0.13517800011E+03  0.23322769724E+03  0.00000000000E+00 0.  1.
        -13    1    5    5    0    0 -0.21206616055E+03 -0.54391380796E+02  0.44911514295E+02  0.22348942452E+03  0.00000000000E+00 0. -1.
          3    1    6    6  503    0  0.23203326616E+03 -0.15113941901E+03 -0.10748115896E+03  0.29704336403E+03  0.00000000000E+00 0. -1.
         -3    1    6    6    0  503  0.16852738816E+03 -0.91448139521E+02 -0.16098861124E+03  0.25036288809E+03  0.00000000000E+00 0.  1.
<mgrwt>
<rscale>  0 0.13812712E+04</rscale>
<asrwt>0</asrwt>
<pdfrwt beam="1">  1        2 0.10588001E+00 0.13812712E+04</pdfrwt>
<pdfrwt beam="2">  1       -2 0.10662456E+00 0.13812712E+04</pdfrwt>
<totfact> 0.28906818E+01</totfact>
</mgrwt>
</event>
<event>
12    3  0.4769008E-008  0.1504246E+04  0.7818608E-02  0.8881634E-01
          2   -1    0    0  501    0  0.00000000000E+00  0.00000000000E+00  0.30422063852E+04  0.30422063852E+04  0.00000000000E+00 0. -1.
         -2   -1    0    0    0  501 -0.00000000000E+00 -0.00000000000E+00 -0.18594691381E+03  0.18594691381E+03  0.00000000000E+00 0.  1.
         23    2    1    2    0    0 -0.40526113256E+03 -0.49129042549E+02  0.14175660407E+04  0.14779190989E+04  0.90006304641E+02 0.  0.
        254    2    1    2    0    0  0.40526113256E+03  0.49129042549E+02  0.14386934307E+04  0.17502342001E+04  0.90930232553E+03 0.  0.
         23    2    4    4    0    0  0.66225972038E+02  0.99559315227E+02 -0.94102599317E+02  0.17677951671E+03  0.89987564187E+02 0.  0.
         23    2    4    4    0    0  0.33903516053E+03 -0.50430272678E+02  0.15327960300E+04  0.15734546834E+04  0.93850511543E+02 0.  0.
          1    1    3    3  502    0 -0.38060532958E+03 -0.60211821073E+02  0.13705067941E+04  0.14236483951E+04  0.00000000000E+00 0. -1.
         -1    1    3    3    0  502 -0.24655802981E+02  0.11082778524E+02  0.47059246588E+02  0.54270703791E+02  0.00000000000E+00 0.  1.
         13    1    5    5    0    0  0.46276136901E+02  0.90727643246E+02 -0.25782727016E+02  0.10506062587E+03  0.00000000000E+00 0.  1.
        -13    1    5    5    0    0  0.19949835137E+02  0.88316719810E+01 -0.68319872301E+02  0.71718890840E+02  0.00000000000E+00 0. -1.
          1    1    6    6  503    0  0.33351060077E+03 -0.64885550265E+02  0.14745787746E+04  0.15132157869E+04  0.00000000000E+00 0. -1.
         -1    1    6    6    0  503  0.55245597560E+01  0.14455277587E+02  0.58217255460E+02  0.60238896437E+02  0.00000000000E+00 0.  1.
<mgrwt>
<rscale>  0 0.15042458E+04</rscale>
<asrwt>0</asrwt>
<pdfrwt beam="1">  1        2 0.46803171E+00 0.15042458E+04</pdfrwt>
<pdfrwt beam="2">  1       -2 0.28607220E-01 0.15042458E+04</pdfrwt>
<totfact> 0.17860220E+01</totfact>
</mgrwt>
</event>
<event>
12    3  0.4769008E-008  0.1331859E+04  0.7818608E-02  0.9004676E-01
          2   -1    0    0  501    0  0.00000000000E+00  0.00000000000E+00  0.67553579209E+03  0.67553579209E+03  0.00000000000E+00 0. -1.
         -2   -1    0    0    0  501 -0.00000000000E+00 -0.00000000000E+00 -0.65645940750E+03  0.65645940750E+03  0.00000000000E+00 0.  1.
         23    2    1    2    0    0 -0.24436683482E+02 -0.17203718988E+03  0.30447105754E+03  0.36651250441E+03  0.10693383378E+03 0.  0.
        254    2    1    2    0    0  0.24436683482E+02  0.17203718988E+03 -0.28539467295E+03  0.96548269518E+03  0.90582159896E+03 0.  0.
         23    2    4    4    0    0 -0.25214870453E+03  0.33228570402E+03 -0.42749920906E+03  0.60398971066E+03  0.89750980773E+02 0.  0.
         23    2    4    4    0    0  0.27658538802E+03 -0.16024851414E+03  0.14210453611E+03  0.36149298452E+03  0.91128565919E+02 0.  0.
          3    1    3    3  502    0 -0.63482040284E+01 -0.14793414332E+03  0.30191355403E+03  0.33626864939E+03  0.00000000000E+00 0. -1.
         -3    1    3    3    0  502 -0.18088479454E+02 -0.24103046561E+02  0.25575035140E+01  0.30243855024E+02  0.00000000000E+00 0.  1.
         13    1    5    5    0    0 -0.10737110730E+03  0.81603332093E+02 -0.10737735100E+03  0.17238780119E+03  0.00000000000E+00 0. -1.
        -13    1    5    5    0    0 -0.14477759724E+03  0.25068237192E+03 -0.32012185806E+03  0.43160190948E+03  0.00000000000E+00 0.  1.
          2    1    6    6  503    0  0.22341566752E+03 -0.85385821430E+02  0.87610312524E+02  0.25471722725E+03  0.00000000000E+00 0. -1.
         -2    1    6    6    0  503  0.53169720492E+02 -0.74862692708E+02  0.54494223584E+02  0.10677575727E+03  0.00000000000E+00 0.  1.
<mgrwt>
<rscale>  0 0.13318586E+04</rscale>
<asrwt>0</asrwt>
<pdfrwt beam="1">  1        2 0.10392858E+00 0.13318586E+04</pdfrwt>
<pdfrwt beam="2">  1       -2 0.10099375E+00 0.13318586E+04</pdfrwt>
<totfact> 0.33821653E+01</totfact>
</mgrwt>
</event>
<event>
12    3  0.4769008E-008  0.1085240E+04  0.7818608E-02  0.9219699E-01
          2   -1    0    0  501    0  0.00000000000E+00  0.00000000000E+00  0.24923788047E+04  0.24923788047E+04  0.00000000000E+00 0. -1.
         -2   -1    0    0    0  501 -0.00000000000E+00 -0.00000000000E+00 -0.11813460870E+03  0.11813460870E+03  0.00000000000E+00 0.  1.
         23    2    1    2    0    0 -0.77759855648E+02  0.20152229350E+03  0.82765907493E+03  0.86015173579E+03  0.90463441998E+02 0.  0.
        254    2    1    2    0    0  0.77759855648E+02 -0.20152229350E+03  0.15465851211E+04  0.17503616776E+04  0.79068491563E+03 0.  0.
         23    2    4    4    0    0 -0.11675966680E+03  0.25690762702E+03  0.40496629379E+03  0.50147223419E+03  0.88557066053E+02 0.  0.
         23    2    4    4    0    0  0.19451952244E+03 -0.45842992052E+03  0.11416188273E+04  0.12488894434E+04  0.91844751877E+02 0.  0.
          2    1    3    3  502    0  0.12632738880E+02  0.67808393892E+02  0.32411632274E+03  0.33137434276E+03  0.00000000000E+00 0.  1.
         -2    1    3    3    0  502 -0.90392594528E+02  0.13371389961E+03  0.50354275219E+03  0.52877739302E+03  0.00000000000E+00 0. -1.
         13    1    5    5    0    0 -0.13130230583E+03  0.22366637761E+03  0.35039732758E+03  0.43594177497E+03  0.00000000000E+00 0.  1.
        -13    1    5    5    0    0  0.14542639035E+02  0.33241249413E+02  0.54568966210E+02  0.65530459222E+02  0.00000000000E+00 0. -1.
          4    1    6    6  503    0  0.64056468348E+02 -0.10105275977E+03  0.36465611221E+03  0.38378245344E+03  0.00000000000E+00 0. -1.
         -4    1    6    6    0  503  0.13046305410E+03 -0.35737716074E+03  0.77696271506E+03  0.86510698998E+03  0.00000000000E+00 0.  1.
<mgrwt>
<rscale>  0 0.10852395E+04</rscale>
<asrwt>0</asrwt>
<pdfrwt beam="1">  1        2 0.38344285E+00 0.10852395E+04</pdfrwt>
<pdfrwt beam="2">  1       -2 0.18174557E-01 0.10852395E+04</pdfrwt>
<totfact> 0.89103531E+01</totfact>
</mgrwt>
</event>
<event>
12    3  0.4769008E-008  0.2275895E+04  0.7818608E-02  0.8487486E-01
         -2   -1    0    0    0  501 -0.00000000000E+00  0.00000000000E+00  0.60443895745E+03  0.60443895745E+03  0.00000000000E+00 0.  1.
          2   -1    0    0  501    0  0.00000000000E+00 -0.00000000000E+00 -0.21423577062E+04  0.21423577062E+04  0.00000000000E+00 0. -1.
         23    2    1    2    0    0 -0.22894483236E+03  0.19334767376E+02  0.47037803497E+03  0.53138791679E+03  0.91258165855E+02 0.  0.
        254    2    1    2    0    0  0.22894483236E+03 -0.19334767376E+02 -0.20082967837E+04  0.22154087469E+04  0.90663684832E+03 0.  0.
         23    2    4    4    0    0  0.34093650490E+03  0.37519163285E+03 -0.11115494023E+04  0.12251303300E+04  0.91628543226E+02 0.  0.
         23    2    4    4    0    0 -0.11199167254E+03 -0.39452640023E+03 -0.89674738147E+03  0.99027841694E+03  0.91116747634E+02 0.  0.
          3    1    3    3  502    0 -0.42056905493E+02  0.36804177660E+02  0.15000879025E+03  0.16008112926E+03  0.00000000000E+00 0. -1.
         -3    1    3    3    0  502 -0.18688792686E+03 -0.17469410284E+02  0.32036924472E+03  0.37130678753E+03  0.00000000000E+00 0.  1.
         13    1    5    5    0    0  0.33158198911E+03  0.37690426628E+03 -0.10619041650E+04  0.11745824352E+04  0.00000000000E+00 0.  1.
        -13    1    5    5    0    0  0.93545157888E+01 -0.17126334351E+01 -0.49645237309E+02  0.50547894777E+02  0.00000000000E+00 0. -1.
          4    1    6    6  503    0 -0.14498007160E+02 -0.86776921322E+02 -0.28924382712E+03  0.30232832784E+03  0.00000000000E+00 0. -1.
         -4    1    6    6    0  503 -0.97493665384E+02 -0.30774947890E+03 -0.60750355435E+03  0.68795008910E+03  0.00000000000E+00 0.  1.
<mgrwt>
<rscale>  0 0.22758950E+04</rscale>
<asrwt>0</asrwt>
<pdfrwt beam="1">  1        2 0.32959349E+00 0.22758950E+04</pdfrwt>
<pdfrwt beam="2">  1       -2 0.92990609E-01 0.22758950E+04</pdfrwt>
<totfact> 0.49506262E+00</totfact>
</mgrwt>
</event>
<event>
12    3  0.4769008E-008  0.1866041E+04  0.7818608E-02  0.8671947E-01
          1   -1    0    0  501    0  0.00000000000E+00  0.00000000000E+00  0.28332313771E+04  0.28332313771E+04  0.00000000000E+00 0. -1.
         -1   -1    0    0    0  501 -0.00000000000E+00 -0.00000000000E+00 -0.30725604932E+03  0.30725604932E+03  0.00000000000E+00 0.  1.
         23    2    1    2    0    0  0.11498060762E+03 -0.46871377518E+03  0.18747375562E+04  0.19379448598E+04  0.89867857761E+02 0.  0.
        254    2    1    2    0    0 -0.11498060762E+03  0.46871377518E+03  0.65123777158E+03  0.12025425666E+04  0.88830447833E+03 0.  0.
         23    2    4    4    0    0  0.26121679472E+02  0.64724742606E+03  0.69533295586E+03  0.95468075382E+03  0.91191279905E+02 0.  0.
         23    2    4    4    0    0 -0.14110228709E+03 -0.17853365087E+03 -0.44095184285E+02  0.24786181279E+03  0.87789367509E+02 0.  0.
          2    1    3    3  502    0  0.64721215941E+02 -0.39541113949E+03  0.14754992515E+04  0.15289332380E+04  0.00000000000E+00 0. -1.
         -2    1    3    3    0  502  0.50259391677E+02 -0.73302635698E+02  0.39923830466E+03  0.40901162179E+03  0.00000000000E+00 0.  1.
         13    1    5    5    0    0  0.33872706807E+02  0.86155513354E+02  0.86573010713E+02  0.12674785573E+03  0.00000000000E+00 0. -1.
        -13    1    5    5    0    0 -0.77510273351E+01  0.56109191270E+03  0.60875994515E+03  0.82793289809E+03  0.00000000000E+00 0.  1.
          4    1    6    6  503    0 -0.11670283218E+03 -0.82116681196E+02 -0.11328669548E+02  0.14314691448E+03  0.00000000000E+00 0. -1.
         -4    1    6    6    0  503 -0.24399454907E+02 -0.96416969679E+02 -0.32766514737E+02  0.10471489832E+03  0.00000000000E+00 0.  1.
<mgrwt>
<rscale>  0 0.18660412E+04</rscale>
<asrwt>0</asrwt>
<pdfrwt beam="1">  1        1 0.43588173E+00 0.18660412E+04</pdfrwt>
<pdfrwt beam="2">  1       -1 0.47270163E-01 0.18660412E+04</pdfrwt>
<totfact> 0.33120903E+00</totfact>
</mgrwt>
</event>
<event>
12    3  0.4769008E-008  0.1443474E+04  0.7818608E-02  0.8922937E-01
         -2   -1    0    0    0  501 -0.00000000000E+00  0.00000000000E+00  0.15428644314E+04  0.15428644314E+04  0.00000000000E+00 0.  1.
          2   -1    0    0  501    0  0.00000000000E+00 -0.00000000000E+00 -0.33762160707E+03  0.33762160707E+03  0.00000000000E+00 0. -1.
         23    2    1    2    0    0  0.19020133314E+03  0.28553029890E+03  0.25382580084E+02  0.35490640605E+03  0.87236362646E+02 0.  0.
        254    2    1    2    0    0 -0.19020133314E+03 -0.28553029890E+03  0.11798602443E+04  0.15255796325E+04  0.90422282663E+03 0.  0.
         23    2    4    4    0    0  0.28692604483E+03 -0.12145455769E+02  0.78934182664E+03  0.84486155919E+03  0.90865106727E+02 0.  0.
         23    2    4    4    0    0 -0.47712737797E+03 -0.27338484313E+03  0.39051841765E+03  0.68071807327E+03  0.92101321838E+02 0.  0.
          2    1    3    3  502    0  0.14389185171E+03  0.21815074233E+03  0.56597716192E+02  0.26739093636E+03  0.00000000000E+00 0.  1.
         -2    1    3    3    0  502  0.46309481430E+02  0.67379556567E+02 -0.31215136108E+02  0.87515469694E+02  0.00000000000E+00 0. -1.
         13    1    5    5    0    0  0.13634177257E+03 -0.37046966114E+02  0.28779355037E+03  0.32060362488E+03  0.00000000000E+00 0.  1.
        -13    1    5    5    0    0  0.15058427225E+03  0.24901510345E+02  0.50154827626E+03  0.52425793431E+03  0.00000000000E+00 0. -1.
          3    1    6    6  503    0 -0.18021162931E+03 -0.62739500712E+02  0.16663733371E+03  0.25333866123E+03  0.00000000000E+00 0. -1.
         -3    1    6    6    0  503 -0.29691574866E+03 -0.21064534242E+03  0.22388108394E+03  0.42737941203E+03  0.00000000000E+00 0.  1.
<mgrwt>
<rscale>  0 0.14434741E+04</rscale>
<asrwt>0</asrwt>
<pdfrwt beam="1">  1        2 0.51941786E-01 0.14434741E+04</pdfrwt>
<pdfrwt beam="2">  1       -2 0.23736376E+00 0.14434741E+04</pdfrwt>
<totfact> 0.71819269E+00</totfact>
</mgrwt>
</event>
<event>
12    3  0.4769008E-008  0.1920635E+04  0.7818608E-02  0.8644653E-01
         -1   -1    0    0    0  501 -0.00000000000E+00  0.00000000000E+00  0.30095525704E+03  0.30095525704E+03  0.00000000000E+00 0.  1.
          1   -1    0    0  501    0  0.00000000000E+00 -0.00000000000E+00 -0.30642740028E+04  0.30642740028E+04  0.00000000000E+00 0. -1.
         23    2    1    2    0    0  0.69140430594E+02 -0.16732466023E+03  0.18598543321E+03  0.27651630232E+03  0.95355875637E+02 0.  0.
        254    2    1    2    0    0 -0.69140430594E+02  0.16732466023E+03 -0.29493041789E+04  0.30887129575E+04  0.89943018229E+03 0.  0.
         23    2    4    4    0    0 -0.40384889690E+03  0.49735156876E+02 -0.74418470786E+03  0.85313399897E+03  0.91974036681E+02 0.  0.
         23    2    4    4    0    0  0.33470846630E+03  0.11758950336E+03 -0.22051194711E+04  0.22355789585E+04  0.96976024688E+02 0.  0.
          3    1    3    3  502    0 -0.58762964425E+00  0.10562080652E+02  0.10863299343E+01  0.10634047631E+02  0.00000000000E+00 0. -1.
         -3    1    3    3    0  502  0.69728060238E+02 -0.17788674088E+03  0.18489910327E+03  0.26588225469E+03  0.00000000000E+00 0.  1.
         13    1    5    5    0    0 -0.84347340612E+02  0.15798864086E+02 -0.24394208931E+03  0.25859586406E+03  0.00000000000E+00 0.  1.
        -13    1    5    5    0    0 -0.31950155629E+03  0.33936292790E+02 -0.50024261855E+03  0.59453813490E+03  0.00000000000E+00 0. -1.
          4    1    6    6  503    0  0.22767816503E+03  0.11951986112E+03 -0.14059289820E+04  0.14292510788E+04  0.00000000000E+00 0. -1.
         -4    1    6    6    0  503  0.10703030128E+03 -0.19303577690E+01 -0.79919048912E+03  0.80632787969E+03  0.00000000000E+00 0.  1.
<mgrwt>
<rscale>  0 0.19206347E+04</rscale>
<asrwt>0</asrwt>
<pdfrwt beam="1">  1        1 0.47142679E+00 0.19206347E+04</pdfrwt>
<pdfrwt beam="2">  1       -1 0.46300807E-01 0.19206347E+04</pdfrwt>
<totfact> 0.23314028E+00</totfact>
</mgrwt>
</event>
<event>
12    3  0.4769008E-008  0.1883706E+04  0.7818608E-02  0.8663010E-01
         -1   -1    0    0    0  501 -0.00000000000E+00  0.00000000000E+00  0.54168678595E+03  0.54168678595E+03  0.00000000000E+00 0.  1.
          1   -1    0    0  501    0  0.00000000000E+00 -0.00000000000E+00 -0.16376387358E+04  0.16376387358E+04  0.00000000000E+00 0. -1.
         23    2    1    2    0    0  0.32339533603E+03  0.52701117832E+03  0.11148887226E+02  0.62523460477E+03  0.92025474027E+02 0.  0.
        254    2    1    2    0    0 -0.32339533603E+03 -0.52701117832E+03 -0.11071008371E+04  0.15540909170E+04  0.89844364841E+03 0.  0.
         23    2    4    4    0    0 -0.27698557507E+03 -0.71622777617E+02 -0.10404965206E+04  0.10827143541E+04  0.88241328828E+02 0.  0.
         23    2    4    4    0    0 -0.46409760963E+02 -0.45538840070E+03 -0.66604316516E+02  0.47137656293E+03  0.90704287057E+02 0.  0.
          3    1    3    3  502    0  0.72375721256E+02  0.85995909611E+02  0.33523364236E+02  0.11729176206E+03  0.00000000000E+00 0. -1.
         -3    1    3    3    0  502  0.25101961478E+03  0.44101526871E+03 -0.22374477010E+02  0.50794284271E+03  0.00000000000E+00 0.  1.
         13    1    5    5    0    0 -0.12598147139E+03 -0.63369162950E+02 -0.38544401202E+03  0.41043156354E+03  0.00000000000E+00 0. -1.
        -13    1    5    5    0    0 -0.15100410368E+03 -0.82536146666E+01 -0.65505250854E+03  0.67228279052E+03  0.00000000000E+00 0.  1.
          1    1    6    6  503    0  0.25892481946E+02 -0.11491460055E+03 -0.28787232505E+02  0.12126207485E+03  0.00000000000E+00 0. -1.
         -1    1    6    6    0  503 -0.72302242909E+02 -0.34047380015E+03 -0.37817084011E+02  0.35011448808E+03  0.00000000000E+00 0.  1.
<mgrwt>
<rscale>  0 0.18837062E+04</rscale>
<asrwt>0</asrwt>
<pdfrwt beam="1">  1        1 0.25194442E+00 0.18837062E+04</pdfrwt>
<pdfrwt beam="2">  1       -1 0.83336430E-01 0.18837062E+04</pdfrwt>
<totfact> 0.70387294E+00</totfact>
</mgrwt>
</event>
<event>
12    3  0.4769008E-008  0.1559397E+04  0.7818608E-02  0.8845888E-01
          1   -1    0    0  501    0  0.00000000000E+00  0.00000000000E+00  0.14489192190E+04  0.14489192190E+04  0.00000000000E+00 0. -1.
         -1   -1    0    0    0  501 -0.00000000000E+00 -0.00000000000E+00 -0.41957451066E+03  0.41957451066E+03  0.00000000000E+00 0.  1.
         23    2    1    2    0    0  0.14931503921E+03  0.11919856720E+03  0.92081477187E+03  0.94459364237E+03  0.88622941561E+02 0.  0.
        254    2    1    2    0    0 -0.14931503921E+03 -0.11919856720E+03  0.10852993652E+03  0.92390008733E+03  0.89739029686E+03 0.  0.
         23    2    4    4    0    0  0.17640528805E+03  0.28640884410E+03 -0.89136451185E+02  0.35987175630E+03  0.91725255099E+02 0.  0.
         23    2    4    4    0    0 -0.32572032725E+03 -0.40560741130E+03  0.19766638771E+03  0.56402833103E+03  0.91895885041E+02 0.  0.
          2    1    3    3  502    0  0.39640501189E+02  0.84582978103E+02  0.34606794604E+03  0.35845316681E+03  0.00000000000E+00 0. -1.
         -2    1    3    3    0  502  0.10967453802E+03  0.34615589095E+02  0.57474682583E+03  0.58614047557E+03  0.00000000000E+00 0.  1.
         13    1    5    5    0    0  0.12046867917E+03  0.17796066269E+03 -0.10065326603E+03  0.23730524665E+03  0.00000000000E+00 0. -1.
        -13    1    5    5    0    0  0.55936608878E+02  0.10844818141E+03  0.11516814840E+02  0.12256650965E+03  0.00000000000E+00 0.  1.
          3    1    6    6  503    0 -0.21880321742E+01  0.41847593965E+01  0.64651955121E+01  0.80061506988E+01  0.00000000000E+00 0. -1.
         -3    1    6    6    0  503 -0.32353229508E+03 -0.40979217070E+03  0.19120119220E+03  0.55602218033E+03  0.00000000000E+00 0.  1.
<mgrwt>
<rscale>  0 0.15593968E+04</rscale>
<asrwt>0</asrwt>
<pdfrwt beam="1">  1        1 0.22291065E+00 0.15593968E+04</pdfrwt>
<pdfrwt beam="2">  1       -1 0.64549925E-01 0.15593968E+04</pdfrwt>
<totfact> 0.16632811E+01</totfact>
</mgrwt>
</event>
<event>
12    3  0.6185646E-008  0.1737315E+04  0.7818608E-02  0.8740364E-01
          2   -1    0    0  501    0  0.00000000000E+00  0.00000000000E+00  0.55153356460E+03  0.55153356460E+03  0.00000000000E+00 0. -1.
         -2   -1    0    0    0  501 -0.00000000000E+00 -0.00000000000E+00 -0.13681234031E+04  0.13681234031E+04  0.00000000000E+00 0.  1.
         23    2    1    2    0    0  0.99787076906E+02  0.21902611303E+03  0.34833194080E+03  0.43113031102E+03  0.81291482909E+02 0.  0.
        254    2    1    2    0    0 -0.99787076906E+02 -0.21902611303E+03 -0.11649217793E+04  0.14885266567E+04  0.89484018512E+03 0.  0.
         23    2    4    4    0    0  0.30390936669E+03 -0.34752898206E+03 -0.76772472250E+03  0.90048079199E+03  0.91253003620E+02 0.  0.
         23    2    4    4    0    0 -0.40369644360E+03  0.12850286903E+03 -0.39719705683E+03  0.58804586473E+03  0.92458807858E+02 0.  0.
          3    1    3    3  502    0  0.93130410289E+02  0.19750722577E+03  0.34508864822E+03  0.40837305578E+03  0.00000000000E+00 0. -1.
         -3    1    3    3    0  502  0.66566666173E+01  0.21518887260E+02  0.32432925711E+01  0.22757255240E+02  0.00000000000E+00 0.  1.
         13    1    5    5    0    0  0.17324075516E+03 -0.17523237067E+03 -0.32583326403E+03  0.40851690164E+03  0.00000000000E+00 0. -1.
        -13    1    5    5    0    0  0.13066861153E+03 -0.17229661139E+03 -0.44189145847E+03  0.49196389035E+03  0.00000000000E+00 0.  1.
          3    1    6    6  503    0 -0.12688531127E+03  0.10355214559E+02 -0.16223044883E+03  0.20621792166E+03  0.00000000000E+00 0. -1.
         -3    1    6    6    0  503 -0.27681113232E+03  0.11814765447E+03 -0.23496660800E+03  0.38182794307E+03  0.00000000000E+00 0.  1.
<mgrwt>
<rscale>  0 0.17373151E+04</rscale>
<asrwt>0</asrwt>
<pdfrwt beam="1">  1        2 0.84851318E-01 0.17373151E+04</pdfrwt>
<pdfrwt beam="2">  1       -2 0.21048052E+00 0.17373151E+04</pdfrwt>
<totfact> 0.59140767E+00</totfact>
</mgrwt>
</event>
<event>
12    3  0.4769008E-008  0.1384341E+04  0.7818608E-02  0.8965232E-01
          2   -1    0    0  501    0  0.00000000000E+00  0.00000000000E+00  0.11274357989E+04  0.11274357989E+04  0.00000000000E+00 0. -1.
         -2   -1    0    0    0  501 -0.00000000000E+00 -0.00000000000E+00 -0.42494651273E+03  0.42494651273E+03  0.00000000000E+00 0.  1.
         23    2    1    2    0    0  0.34950531754E+02 -0.31371740723E+03 -0.10487387820E+03  0.34555713114E+03  0.93653880232E+02 0.  0.
        254    2    1    2    0    0 -0.34950531754E+02  0.31371740723E+03  0.80736316437E+03  0.12068251805E+04  0.83961395046E+03 0.  0.
         23    2    4    4    0    0 -0.33577897259E+03 -0.95203554664E+02  0.46132528183E+03  0.58574545559E+03  0.92008085739E+02 0.  0.
         23    2    4    4    0    0  0.30082844083E+03  0.40892096190E+03  0.34603788254E+03  0.62107972490E+03  0.91014859416E+02 0.  0.
          3    1    3    3  502    0 -0.43359525077E+01 -0.44158086322E+02  0.16492768014E+02  0.47336544746E+02  0.00000000000E+00 0. -1.
         -3    1    3    3    0  502  0.39286484262E+02 -0.26955932091E+03 -0.12136664622E+03  0.29822058639E+03  0.00000000000E+00 0.  1.
         13    1    5    5    0    0 -0.30614391579E+03 -0.10063803659E+03  0.45014499522E+03  0.55360873214E+03  0.00000000000E+00 0. -1.
        -13    1    5    5    0    0 -0.29635056800E+02  0.54344819273E+01  0.11180286603E+02  0.32136723446E+02  0.00000000000E+00 0.  1.
          2    1    6    6  503    0  0.19896154390E+03  0.21784790600E+03  0.16010873285E+03  0.33567575490E+03  0.00000000000E+00 0. -1.
         -2    1    6    6    0  503  0.10186689694E+03  0.19107305590E+03  0.18592914969E+03  0.28540396999E+03  0.00000000000E+00 0.  1.
<mgrwt>
<rscale>  0 0.13843409E+04</rscale>
<asrwt>0</asrwt>
<pdfrwt beam="1">  1        2 0.17345166E+00 0.13843409E+04</pdfrwt>
<pdfrwt beam="2">  1       -2 0.65376387E-01 0.13843409E+04</pdfrwt>
<totfact> 0.44032282E+01</totfact>
</mgrwt>
</event>
<event>
12    3  0.4769008E-008  0.2467887E+04  0.7818608E-02  0.8414516E-01
         -2   -1    0    0    0  501 -0.00000000000E+00  0.00000000000E+00  0.33643692074E+03  0.33643692074E+03  0.00000000000E+00 0.  1.
          2   -1    0    0  501    0  0.00000000000E+00 -0.00000000000E+00 -0.45257132824E+04  0.45257132824E+04  0.00000000000E+00 0. -1.
         23    2    1    2    0    0  0.79315961027E+03 -0.23739241723E+03 -0.49660283617E+03  0.96974227738E+03  0.91259961234E+02 0.  0.
        254    2    1    2    0    0 -0.79315961027E+03  0.23739241723E+03 -0.36926735255E+04  0.38924079258E+04  0.91079326277E+03 0.  0.
         23    2    4    4    0    0 -0.84873531125E+03 -0.80891847819E+02 -0.21726018874E+04  0.23356872495E+04  0.91328235680E+02 0.  0.
         23    2    4    4    0    0  0.55575700978E+02  0.31828426505E+03 -0.15200716381E+04  0.15567206763E+04  0.91476483915E+02 0.  0.
          4    1    3    3  502    0  0.59170837824E+02 -0.16160149959E+01 -0.57546510681E+02  0.82555438615E+02  0.00000000000E+00 0. -1.
         -4    1    3    3    0  502  0.73398877245E+03 -0.23577640224E+03 -0.43905632549E+03  0.88718683877E+03  0.00000000000E+00 0.  1.
         13    1    5    5    0    0 -0.74983805614E+03 -0.42380403620E+02 -0.18829135686E+04  0.20271696317E+04  0.00000000000E+00 0.  1.
        -13    1    5    5    0    0 -0.98897255106E+02 -0.38511444199E+02 -0.28968831884E+03  0.30851761777E+03  0.00000000000E+00 0. -1.
          3    1    6    6  503    0 -0.10004332826E+02  0.59221290840E+00 -0.76297184304E+02  0.76952568015E+02  0.00000000000E+00 0. -1.
         -3    1    6    6    0  503  0.65580033804E+02  0.31769205214E+03 -0.14437744538E+04  0.14797681082E+04  0.00000000000E+00 0.  1.
<mgrwt>
<rscale>  0 0.24678874E+04</rscale>
<asrwt>0</asrwt>
<pdfrwt beam="1">  1        2 0.69626351E+00 0.24678874E+04</pdfrwt>
<pdfrwt beam="2">  1       -2 0.51759532E-01 0.24678874E+04</pdfrwt>
<totfact> 0.36844412E-01</totfact>
</mgrwt>
</event>
<event>
12    3  0.4769008E-008  0.2740908E+04  0.7818608E-02  0.8321853E-01
         -1   -1    0    0    0  501 -0.00000000000E+00  0.00000000000E+00  0.79352610511E+03  0.79352610511E+03  0.00000000000E+00 0.  1.
          1   -1    0    0  501    0  0.00000000000E+00 -0.00000000000E+00 -0.23668334205E+04  0.23668334205E+04  0.00000000000E+00 0. -1.
         23    2    1    2    0    0 -0.80146492365E+03  0.78366827420E+03 -0.12604325498E+04  0.16894588782E+04  0.95389206853E+02 0.  0.
        254    2    1    2    0    0  0.80146492365E+03 -0.78366827420E+03 -0.31287476556E+03  0.14709006474E+04  0.89954216556E+03 0.  0.
         23    2    4    4    0    0  0.66077199716E+03 -0.92294429077E+03 -0.43745610595E+03  0.12198427389E+04  0.90568575239E+02 0.  0.
         23    2    4    4    0    0  0.14069292649E+03  0.13927601657E+03  0.12458134039E+03  0.25105790849E+03  0.91198984011E+02 0.  0.
          2    1    3    3  502    0 -0.11346647568E+02  0.17749506200E+02 -0.86795438217E+01  0.22784333704E+02  0.00000000000E+00 0. -1.
         -2    1    3    3    0  502 -0.79011827608E+03  0.76591876800E+03 -0.12517530060E+04  0.16666745445E+04  0.00000000000E+00 0.  1.
         13    1    5    5    0    0  0.46866179282E+03 -0.58069507201E+03 -0.28645909374E+03  0.79931811883E+03  0.00000000000E+00 0.  1.
        -13    1    5    5    0    0  0.19211020434E+03 -0.34224921877E+03 -0.15099701221E+03  0.42052462004E+03  0.00000000000E+00 0. -1.
          4    1    6    6  503    0  0.22909805480E+02  0.42166368490E+01 -0.11560712863E+02  0.26005562777E+02  0.00000000000E+00 0. -1.
         -4    1    6    6    0  503  0.11778312101E+03  0.13505937973E+03  0.13614205325E+03  0.22505234571E+03  0.00000000000E+00 0.  1.
<mgrwt>
<rscale>  0 0.27409080E+04</rscale>
<asrwt>0</asrwt>
<pdfrwt beam="1">  1        1 0.36412822E+00 0.27409080E+04</pdfrwt>
<pdfrwt beam="2">  1       -1 0.12208094E+00 0.27409080E+04</pdfrwt>
<totfact> 0.86430402E-01</totfact>
</mgrwt>
</event>
<event>
12    3  0.4769008E-008  0.1634574E+04  0.7818608E-02  0.8799585E-01
         -1   -1    0    0    0  501 -0.00000000000E+00  0.00000000000E+00  0.96672775826E+03  0.96672775826E+03  0.00000000000E+00 0.  1.
          1   -1    0    0  501    0  0.00000000000E+00 -0.00000000000E+00 -0.69094743462E+03  0.69094743462E+03  0.00000000000E+00 0. -1.
         23    2    1    2    0    0 -0.19173516322E+03 -0.37204585261E+02 -0.43012498082E+03  0.48248535596E+03  0.98173650272E+02 0.  0.
        254    2    1    2    0    0  0.19173516322E+03  0.37204585261E+02  0.70590530446E+03  0.11751898369E+04  0.91903335083E+03 0.  0.
         23    2    4    4    0    0  0.40655723334E+03 -0.11465481909E+03  0.77531209734E+03  0.88770175118E+03  0.92038248860E+02 0.  0.
         23    2    4    4    0    0 -0.21482207012E+03  0.15185940435E+03 -0.69406792877E+02  0.28748808573E+03  0.92856319330E+02 0.  0.
          2    1    3    3  502    0  0.96324461029E+01 -0.23584521061E+01 -0.49348050092E+02  0.50334643757E+02  0.00000000000E+00 0. -1.
         -2    1    3    3    0  502 -0.20136760932E+03 -0.34846133155E+02 -0.38077693073E+03  0.43215071220E+03  0.00000000000E+00 0.  1.
         13    1    5    5    0    0  0.10732584374E+03 -0.49458117825E+02  0.14603744837E+03  0.18786132779E+03  0.00000000000E+00 0. -1.
        -13    1    5    5    0    0  0.29923138960E+03 -0.65196701263E+02  0.62927464897E+03  0.69984042339E+03  0.00000000000E+00 0.  1.
          2    1    6    6  503    0 -0.31858939064E+02  0.31547278212E+01  0.17162825374E+02  0.36325017285E+02  0.00000000000E+00 0. -1.
         -2    1    6    6    0  503 -0.18296313106E+03  0.14870467653E+03 -0.86569618251E+02  0.25116306845E+03  0.00000000000E+00 0.  1.
<mgrwt>
<rscale>  0 0.16345740E+04</rscale>
<asrwt>0</asrwt>
<pdfrwt beam="1">  1        1 0.10629961E+00 0.16345740E+04</pdfrwt>
<pdfrwt beam="2">  1       -1 0.14872735E+00 0.16345740E+04</pdfrwt>
<totfact> 0.94929049E+00</totfact>
</mgrwt>
</event>
<event>
12    3  0.4769008E-008  0.1628915E+04  0.7818608E-02  0.8802979E-01
          2   -1    0    0  501    0  0.00000000000E+00  0.00000000000E+00  0.23867511468E+04  0.23867511468E+04  0.00000000000E+00 0. -1.
         -2   -1    0    0    0  501 -0.00000000000E+00 -0.00000000000E+00 -0.27792620381E+03  0.27792620381E+03  0.00000000000E+00 0.  1.
         23    2    1    2    0    0 -0.38318210013E+03 -0.86413791108E+02  0.83148645341E+02  0.41319388741E+03  0.97568571864E+02 0.  0.
        254    2    1    2    0    0  0.38318210013E+03  0.86413791108E+02  0.20256762977E+04  0.22514834632E+04  0.90084263726E+03 0.  0.
         23    2    4    4    0    0  0.17361909620E+03  0.39769121278E+03  0.45949353796E+03  0.63832062666E+03  0.89537811568E+02 0.  0.
         23    2    4    4    0    0  0.20956300393E+03 -0.31127742167E+03  0.15661827597E+04  0.16131628366E+04  0.92496565558E+02 0.  0.
          1    1    3    3  502    0 -0.59205373906E+02 -0.48437917048E+02 -0.29339531606E+00  0.76495713528E+02  0.00000000000E+00 0. -1.
         -1    1    3    3    0  502 -0.32397672623E+03 -0.37975874061E+02  0.83442040657E+02  0.33669817388E+03  0.00000000000E+00 0.  1.
         13    1    5    5    0    0  0.13776127668E+03  0.24073774677E+03  0.33424669923E+03  0.43434282314E+03  0.00000000000E+00 0.  1.
        -13    1    5    5    0    0  0.35857819518E+02  0.15695346601E+03  0.12524683874E+03  0.20397780351E+03  0.00000000000E+00 0. -1.
          1    1    6    6  503    0  0.18319890823E+03 -0.20229376064E+03  0.11707851440E+04  0.12021740552E+04  0.00000000000E+00 0. -1.
         -1    1    6    6    0  503  0.26364095704E+02 -0.10898366103E+03  0.39539761575E+03  0.41098878143E+03  0.00000000000E+00 0.  1.
<mgrwt>
<rscale>  0 0.16289146E+04</rscale>
<asrwt>0</asrwt>
<pdfrwt beam="1">  1        2 0.36719247E+00 0.16289146E+04</pdfrwt>
<pdfrwt beam="2">  1       -2 0.42757879E-01 0.16289146E+04</pdfrwt>
<totfact> 0.20101041E+01</totfact>
</mgrwt>
</event>
<event>
12    3  0.4769008E-008  0.1179300E+04  0.7818608E-02  0.9131170E-01
         -2   -1    0    0    0  501 -0.00000000000E+00  0.00000000000E+00  0.19161107787E+04  0.19161107787E+04  0.00000000000E+00 0.  1.
          2   -1    0    0  501    0  0.00000000000E+00 -0.00000000000E+00 -0.18145467820E+03  0.18145467820E+03  0.00000000000E+00 0. -1.
         23    2    1    2    0    0 -0.22223140319E+03  0.59807460246E+02  0.37217501043E+03  0.44692011559E+03  0.90882465111E+02 0.  0.
        254    2    1    2    0    0  0.22223140319E+03 -0.59807460246E+02  0.13624810900E+04  0.16506453413E+04  0.90294606323E+03 0.  0.
         23    2    4    4    0    0 -0.72276454900E+02 -0.13133104462E+03 -0.66362443273E+02  0.18711164887E+03  0.90194601017E+02 0.  0.
         23    2    4    4    0    0  0.29450785809E+03  0.71523584373E+02  0.14288435333E+04  0.14635336924E+04  0.92122334552E+02 0.  0.
          1    1    3    3  502    0 -0.13007488007E+03  0.39005786475E+02  0.13438768410E+03  0.19105228458E+03  0.00000000000E+00 0. -1.
         -1    1    3    3    0  502 -0.92156523126E+02  0.20801673771E+02  0.23778732633E+03  0.25586783101E+03  0.00000000000E+00 0.  1.
         13    1    5    5    0    0 -0.45452670542E+02 -0.13881639050E+03 -0.62947359516E+02  0.15905441082E+03  0.00000000000E+00 0. -1.
        -13    1    5    5    0    0 -0.26823784358E+02  0.74853458784E+01 -0.34150837570E+01  0.28057238055E+02  0.00000000000E+00 0.  1.
          1    1    6    6  503    0  0.20542872086E+03  0.88230138914E+02  0.10960102515E+04  0.11185812390E+04  0.00000000000E+00 0. -1.
         -1    1    6    6    0  503  0.89079137235E+02 -0.16706554541E+02  0.33283328176E+03  0.34495245339E+03  0.00000000000E+00 0.  1.
<mgrwt>
<rscale>  0 0.11793002E+04</rscale>
<asrwt>0</asrwt>
<pdfrwt beam="1">  1        2 0.27916106E-01 0.11793002E+04</pdfrwt>
<pdfrwt beam="2">  1       -2 0.29478626E+00 0.11793002E+04</pdfrwt>
<totfact> 0.65869340E+00</totfact>
</mgrwt>
</event>
<event>
12    3  0.4769008E-008  0.1427242E+04  0.7818608E-02  0.8934332E-01
         -2   -1    0    0    0  501 -0.00000000000E+00  0.00000000000E+00  0.45284588663E+03  0.45284588663E+03  0.00000000000E+00 0. -1.
          2   -1    0    0  501    0  0.00000000000E+00 -0.00000000000E+00 -0.11245653249E+04  0.11245653249E+04  0.00000000000E+00 0.  1.
         23    2    1    2    0    0  0.25216756843E+03 -0.14478619941E+03  0.13701878154E+03  0.33408384810E+03  0.91029363181E+02 0.  0.
        254    2    1    2    0    0 -0.25216756843E+03  0.14478619941E+03 -0.80873821980E+03  0.12433273634E+04  0.89847309272E+03 0.  0.
         23    2    4    4    0    0 -0.69576079032E+02  0.30098778529E+03 -0.91071892316E+03  0.96701192179E+03  0.10133421045E+03 0.  0.
         23    2    4    4    0    0 -0.18259148940E+03 -0.15620158588E+03  0.10198070336E+03  0.27631544162E+03  0.90617724475E+02 0.  0.
          2    1    3    3  502    0  0.18812466129E+03 -0.58130443311E+02  0.91106154566E+02  0.21695706493E+03  0.00000000000E+00 0. -1.
         -2    1    3    3    0  502  0.64042907142E+02 -0.86655756099E+02  0.45912626978E+02  0.11712678317E+03  0.00000000000E+00 0.  1.
         13    1    5    5    0    0 -0.32091231796E+01 -0.49630590147E+00  0.17844725999E+01  0.37052845490E+01  0.00000000000E+00 0. -1.
        -13    1    5    5    0    0 -0.66366955853E+02  0.30148409119E+03 -0.91250339576E+03  0.96330663724E+03  0.00000000000E+00 0.  1.
          1    1    6    6  503    0 -0.85622053416E+02 -0.24965602144E+02  0.12044272560E+02  0.89997121194E+02  0.00000000000E+00 0. -1.
         -1    1    6    6    0  503 -0.96969435980E+02 -0.13123598374E+03  0.89936430804E+02  0.18631832043E+03  0.00000000000E+00 0.  1.
<mgrwt>
<rscale>  0 0.14272418E+04</rscale>
<asrwt>0</asrwt>
<pdfrwt beam="1">  1        2 0.17301005E+00 0.14272418E+04</pdfrwt>
<pdfrwt beam="2">  1       -2 0.69668598E-01 0.14272418E+04</pdfrwt>
<totfact> 0.38395819E+01</totfact>
</mgrwt>
</event>
<event>
12    3  0.4769008E-008  0.2461643E+04  0.7818608E-02  0.8416779E-01
         -2   -1    0    0    0  501 -0.00000000000E+00  0.00000000000E+00  0.19256350171E+04  0.19256350171E+04  0.00000000000E+00 0.  1.
          2   -1    0    0  501    0  0.00000000000E+00 -0.00000000000E+00 -0.78671271395E+03  0.78671271395E+03  0.00000000000E+00 0. -1.
         23    2    1    2    0    0  0.48462457874E+03 -0.94327633414E+03  0.54740445709E+03  0.11970323275E+04  0.92755207503E+02 0.  0.
        254    2    1    2    0    0 -0.48462457874E+03  0.94327633414E+03  0.59151784605E+03  0.15153154036E+04  0.90645252783E+03 0.  0.
         23    2    4    4    0    0 -0.22937454099E+03  0.98830047113E+03  0.19933757887E+03  0.10378964962E+04  0.90239487972E+02 0.  0.
         23    2    4    4    0    0 -0.25525003775E+03 -0.45024136990E+02  0.39218026718E+03  0.47741890737E+03  0.83328845292E+02 0.  0.
          1    1    3    3  502    0  0.11108890877E+03 -0.17627680484E+03  0.14444071262E+03  0.25352983461E+03  0.00000000000E+00 0. -1.
         -1    1    3    3    0  502  0.37353566997E+03 -0.76699952930E+03  0.40296374446E+03  0.94350249286E+03  0.00000000000E+00 0.  1.
         13    1    5    5    0    0 -0.27525597437E+02  0.26561501869E+03  0.74526549274E+02  0.27724213824E+03  0.00000000000E+00 0.  1.
        -13    1    5    5    0    0 -0.20184894355E+03  0.72268545243E+03  0.12481102960E+03  0.76065435796E+03  0.00000000000E+00 0. -1.
          1    1    6    6  503    0  0.36894647990E+01 -0.65316083980E+01  0.27506072811E+02  0.28510666430E+02  0.00000000000E+00 0. -1.
         -1    1    6    6    0  503 -0.25893950255E+03 -0.38492528592E+02  0.36467419437E+03  0.44890824094E+03  0.00000000000E+00 0.  1.
<mgrwt>
<rscale>  0 0.24616430E+04</rscale>
<asrwt>0</asrwt>
<pdfrwt beam="1">  1        2 0.12103273E+00 0.24616430E+04</pdfrwt>
<pdfrwt beam="2">  1       -2 0.29625154E+00 0.24616430E+04</pdfrwt>
<totfact> 0.10560925E+00</totfact>
</mgrwt>
</event>
<event>
12    3  0.4769008E-008  0.1921444E+04  0.7818608E-02  0.8644255E-01
          2   -1    0    0  501    0  0.00000000000E+00  0.00000000000E+00  0.10468682570E+04  0.10468682570E+04  0.00000000000E+00 0. -1.
         -2   -1    0    0    0  501 -0.00000000000E+00 -0.00000000000E+00 -0.88166472834E+03  0.88166472834E+03  0.00000000000E+00 0.  1.
         23    2    1    2    0    0 -0.16864671807E+03  0.38666760150E+03 -0.57223589238E+03  0.71698234726E+03  0.93038810071E+02 0.  0.
        254    2    1    2    0    0  0.16864671807E+03 -0.38666760150E+03  0.73743942104E+03  0.12115506381E+04  0.86376183022E+03 0.  0.
         23    2    4    4    0    0  0.39733834350E+02  0.23431056570E+03  0.29922870119E+02  0.25724443846E+03  0.93803540300E+02 0.  0.
         23    2    4    4    0    0  0.12891288372E+03 -0.62097816720E+03  0.70751655093E+03  0.95430619962E+03  0.88815747823E+02 0.  0.
          2    1    3    3  502    0 -0.75257345427E+02  0.10122829230E+03 -0.11995718173E+03  0.17407056228E+03  0.00000000000E+00 0. -1.
         -2    1    3    3    0  502 -0.93389372639E+02  0.28543930920E+03 -0.45227871065E+03  0.54291178498E+03  0.00000000000E+00 0.  1.
         13    1    5    5    0    0  0.62328278861E+02  0.94384594669E+02  0.22417224831E+02  0.11530740664E+03  0.00000000000E+00 0. -1.
        -13    1    5    5    0    0 -0.22594444511E+02  0.13992597103E+03  0.75056452877E+01  0.14193703182E+03  0.00000000000E+00 0.  1.
          2    1    6    6  503    0  0.10114546627E+02 -0.10094255892E+03  0.71015189085E+02  0.12383400718E+03  0.00000000000E+00 0. -1.
         -2    1    6    6    0  503  0.11879833709E+03 -0.52003560829E+03  0.63650136184E+03  0.83047219243E+03  0.00000000000E+00 0.  1.
<mgrwt>
<rscale>  0 0.19214441E+04</rscale>
<asrwt>0</asrwt>
<pdfrwt beam="1">  1        2 0.16105666E+00 0.19214441E+04</pdfrwt>
<pdfrwt beam="2">  1       -2 0.13564073E+00 0.19214441E+04</pdfrwt>
<totfact> 0.85692374E+00</totfact>
</mgrwt>
</event>
<event>
12    3  0.4769008E-008  0.2471724E+04  0.7818608E-02  0.8413129E-01
          1   -1    0    0  501    0  0.00000000000E+00  0.00000000000E+00  0.11423577995E+04  0.11423577995E+04  0.00000000000E+00 0. -1.
         -1   -1    0    0    0  501 -0.00000000000E+00 -0.00000000000E+00 -0.13370195135E+04  0.13370195135E+04  0.00000000000E+00 0.  1.
         23    2    1    2    0    0  0.28206550136E+03 -0.10297239692E+04  0.10867595548E+02  0.10711046084E+04  0.85173809693E+02 0.  0.
        254    2    1    2    0    0 -0.28206550136E+03  0.10297239692E+04 -0.20552930955E+03  0.14082727046E+04  0.89504039788E+03 0.  0.
         23    2    4    4    0    0 -0.15761862554E+03  0.11078750099E+04 -0.35811687319E+03  0.11784022651E+04  0.90296926172E+02 0.  0.
         23    2    4    4    0    0 -0.12444687582E+03 -0.78151040699E+02  0.15258756363E+03  0.22987043957E+03  0.89234770961E+02 0.  0.
          2    1    3    3  502    0  0.91371889396E+01 -0.56648697277E+01 -0.31637002414E+01  0.11206603855E+02  0.00000000000E+00 0. -1.
         -2    1    3    3    0  502  0.27292831242E+03 -0.10240590994E+04  0.14031295790E+02  0.10598980046E+04  0.00000000000E+00 0.  1.
         13    1    5    5    0    0 -0.17405031171E+02  0.29946603065E+03 -0.12900778595E+03  0.32653613500E+03  0.00000000000E+00 0. -1.
        -13    1    5    5    0    0 -0.14021359437E+03  0.80840897920E+03 -0.22910908723E+03  0.85186613007E+03  0.00000000000E+00 0.  1.
          3    1    6    6  503    0 -0.42997805415E+02 -0.73645743339E+02  0.10559022100E+03  0.13572693746E+03  0.00000000000E+00 0. -1.
         -3    1    6    6    0  503 -0.81449070406E+02 -0.45052973596E+01  0.46997342638E+02  0.94143502109E+02  0.00000000000E+00 0.  1.
<mgrwt>
<rscale>  0 0.24717238E+04</rscale>
<asrwt>0</asrwt>
<pdfrwt beam="1">  1        1 0.17574735E+00 0.24717238E+04</pdfrwt>
<pdfrwt beam="2">  1       -1 0.20569531E+00 0.24717238E+04</pdfrwt>
<totfact> 0.14436030E+00</totfact>
</mgrwt>
</event>
<event>
12    3  0.4769008E-008  0.1537535E+04  0.7818608E-02  0.8859869E-01
         -1   -1    0    0    0  501 -0.00000000000E+00  0.00000000000E+00  0.45104399834E+03  0.45104399834E+03  0.00000000000E+00 0.  1.
          1   -1    0    0  501    0  0.00000000000E+00 -0.00000000000E+00 -0.13103015475E+04  0.13103015475E+04  0.00000000000E+00 0. -1.
         23    2    1    2    0    0  0.12528571746E+01  0.92054269988E+01  0.28917495272E+03  0.30301559889E+03  0.90055484858E+02 0.  0.
        254    2    1    2    0    0 -0.12528571746E+01 -0.92054269988E+01 -0.11484325018E+04  0.14583299469E+04  0.89874507689E+03 0.  0.
         23    2    4    4    0    0 -0.35130079669E+03  0.64439762524E+02 -0.99066690726E+03  0.10570935330E+04  0.91984149242E+02 0.  0.
         23    2    4    4    0    0  0.35004793951E+03 -0.73645189522E+02 -0.15776559457E+03  0.40123641386E+03  0.90241360147E+02 0.  0.
          2    1    3    3  502    0  0.99352687844E+01  0.45097007685E+02  0.98363163544E+02  0.10866352475E+03  0.00000000000E+00 0. -1.
         -2    1    3    3    0  502 -0.86824116098E+01 -0.35891580686E+02  0.19081178918E+03  0.19435207415E+03  0.00000000000E+00 0.  1.
         13    1    5    5    0    0 -0.22725482794E+02  0.18643147848E+02 -0.36293468621E+02  0.46703644338E+02  0.00000000000E+00 0.  1.
        -13    1    5    5    0    0 -0.32857531389E+03  0.45796614676E+02 -0.95437343864E+03  0.10103898887E+04  0.00000000000E+00 0. -1.
          1    1    6    6  503    0  0.31367117432E+03 -0.40522033507E+02 -0.15432049181E+03  0.35191825044E+03  0.00000000000E+00 0. -1.
         -1    1    6    6    0  503  0.36376765189E+02 -0.33123156016E+02 -0.34451027596E+01  0.49318163419E+02  0.00000000000E+00 0.  1.
<mgrwt>
<rscale>  0 0.15375352E+04</rscale>
<asrwt>0</asrwt>
<pdfrwt beam="1">  1        1 0.20158485E+00 0.15375352E+04</pdfrwt>
<pdfrwt beam="2">  1       -1 0.69391386E-01 0.15375352E+04</pdfrwt>
<totfact> 0.18016877E+01</totfact>
</mgrwt>
</event>
<event>
12    3  0.4769008E-008  0.2375475E+04  0.7818608E-02  0.8448743E-01
          1   -1    0    0  501    0  0.00000000000E+00  0.00000000000E+00  0.14876606333E+04  0.14876606333E+04  0.00000000000E+00 0. -1.
         -1   -1    0    0    0  501 -0.00000000000E+00 -0.00000000000E+00 -0.94828106461E+03  0.94828106461E+03  0.00000000000E+00 0.  1.
         23    2    1    2    0    0 -0.44703045646E+03  0.29817823237E+03  0.11116544581E+04  0.12381880153E+04  0.92668440334E+02 0.  0.
        254    2    1    2    0    0  0.44703045646E+03 -0.29817823237E+03 -0.57227488936E+03  0.11977536826E+04  0.90463741243E+03 0.  0.
         23    2    4    4    0    0 -0.45979739644E+02 -0.25379363681E+03  0.15402033682E+03  0.31410115165E+03  0.91716534875E+02 0.  0.
         23    2    4    4    0    0  0.49301019610E+03 -0.44384595568E+02 -0.72629522618E+03  0.88365253097E+03  0.91148198691E+02 0.  0.
          3    1    3    3  502    0 -0.39611293214E+03  0.28791011653E+03  0.10416903821E+04  0.11510501911E+04  0.00000000000E+00 0. -1.
         -3    1    3    3    0  502 -0.50917524321E+02  0.10268115846E+02  0.69964075984E+02  0.87137824245E+02  0.00000000000E+00 0.  1.
         13    1    5    5    0    0 -0.57179475270E+02 -0.73602201161E+02  0.51570039855E+02  0.10651875618E+03  0.00000000000E+00 0. -1.
        -13    1    5    5    0    0  0.11199735626E+02 -0.18019143565E+03  0.10245029697E+03  0.20758239546E+03  0.00000000000E+00 0.  1.
          4    1    6    6  503    0  0.34289177608E+03 -0.56181636521E+02 -0.44495946378E+03  0.56455298316E+03  0.00000000000E+00 0. -1.
         -4    1    6    6    0  503  0.15011842002E+03  0.11797040953E+02 -0.28133576241E+03  0.31909954781E+03  0.00000000000E+00 0.  1.
<mgrwt>
<rscale>  0 0.23754750E+04</rscale>
<asrwt>0</asrwt>
<pdfrwt beam="1">  1        1 0.22887087E+00 0.23754750E+04</pdfrwt>
<pdfrwt beam="2">  1       -1 0.14588940E+00 0.23754750E+04</pdfrwt>
<totfact> 0.22523807E+00</totfact>
</mgrwt>
</event>
<event>
12    3  0.4769008E-008  0.2738466E+04  0.7818608E-02  0.8322631E-01
         -2   -1    0    0    0  501 -0.00000000000E+00  0.00000000000E+00  0.14764760193E+04  0.14764760193E+04  0.00000000000E+00 0.  1.
          2   -1    0    0  501    0  0.00000000000E+00 -0.00000000000E+00 -0.12697796605E+04  0.12697796605E+04  0.00000000000E+00 0. -1.
         23    2    1    2    0    0 -0.74667459046E+03  0.96701669999E+03  0.26656342259E+02  0.12254516560E+04  0.91525726311E+02 0.  0.
        254    2    1    2    0    0  0.74667459046E+03 -0.96701669999E+03  0.18004001659E+03  0.15208040238E+04  0.88757322463E+03 0.  0.
         23    2    4    4    0    0  0.26454187390E+03 -0.65541351724E+03  0.48738501694E+03  0.86335168699E+03  0.91009335036E+02 0.  0.
         23    2    4    4    0    0  0.48213271656E+03 -0.31160318274E+03 -0.30734500035E+03  0.65745233679E+03  0.90742085193E+02 0.  0.
          2    1    3    3  502    0 -0.51328304593E+03  0.61306318267E+03 -0.12580322632E+02  0.79966506470E+03  0.00000000000E+00 0. -1.
         -2    1    3    3    0  502 -0.23339154453E+03  0.35395351732E+03  0.39236664891E+02  0.42578659133E+03  0.00000000000E+00 0.  1.
         13    1    5    5    0    0  0.19521800721E+03 -0.36945790234E+03  0.26966853444E+03  0.49732316496E+03  0.00000000000E+00 0.  1.
        -13    1    5    5    0    0  0.69323866687E+02 -0.28595561491E+03  0.21771648250E+03  0.36602852203E+03  0.00000000000E+00 0. -1.
          2    1    6    6  503    0  0.42509309011E+03 -0.26777002967E+03 -0.23232623823E+03  0.55351639995E+03  0.00000000000E+00 0. -1.
         -2    1    6    6    0  503  0.57039626453E+02 -0.43833153078E+02 -0.75018762124E+02  0.10393593683E+03  0.00000000000E+00 0.  1.
<mgrwt>
<rscale>  0 0.27384662E+04</rscale>
<asrwt>0</asrwt>
<pdfrwt beam="1">  1        2 0.19535072E+00 0.27384662E+04</pdfrwt>
<pdfrwt beam="2">  1       -2 0.22715016E+00 0.27384662E+04</pdfrwt>
<totfact> 0.13416059E+00</totfact>
</mgrwt>
</event>
<event>
12    3  0.4769008E-008  0.2720420E+04  0.7818608E-02  0.8328410E-01
         -2   -1    0    0    0  501 -0.00000000000E+00  0.00000000000E+00  0.52013376599E+03  0.52013376599E+03  0.00000000000E+00 0.  1.
          2   -1    0    0  501    0  0.00000000000E+00 -0.00000000000E+00 -0.35571071626E+04  0.35571071626E+04  0.00000000000E+00 0. -1.
         23    2    1    2    0    0 -0.11209643259E+04  0.26007146314E+03 -0.18985247273E+04  0.22219957834E+04  0.93117858178E+02 0.  0.
        254    2    1    2    0    0  0.11209643259E+04 -0.26007146314E+03 -0.11384486692E+04  0.18552451451E+04  0.90646069422E+03 0.  0.
         23    2    4    4    0    0  0.12480225272E+04 -0.13189457065E+03 -0.10165413345E+04  0.16175998142E+04  0.91194670272E+02 0.  0.
         23    2    4    4    0    0 -0.12705820133E+03 -0.12817689249E+03 -0.12190733471E+03  0.23764533093E+03  0.95083136061E+02 0.  0.
          2    1    3    3  502    0 -0.11133634726E+04  0.25815691822E+03 -0.18631333076E+04  0.21857467691E+04  0.00000000000E+00 0. -1.
         -2    1    3    3    0  502 -0.76008532353E+01  0.19145449204E+01 -0.35391419695E+02  0.36249014334E+02  0.00000000000E+00 0.  1.
         13    1    5    5    0    0  0.78776908354E+03 -0.11531818026E+03 -0.68253571691E+03  0.10486817518E+04  0.00000000000E+00 0. -1.
        -13    1    5    5    0    0  0.46025344366E+03 -0.16576390383E+02 -0.33400561761E+03  0.56891806239E+03  0.00000000000E+00 0.  1.
          4    1    6    6  503    0 -0.12875424576E+03 -0.12539251161E+03 -0.81900761913E+02  0.19750613300E+03  0.00000000000E+00 0. -1.
         -4    1    6    6    0  503  0.16960444331E+01 -0.27843808811E+01 -0.40006572800E+02  0.40139197935E+02  0.00000000000E+00 0.  1.
<mgrwt>
<rscale>  0 0.27204202E+04</rscale>
<asrwt>0</asrwt>
<pdfrwt beam="1">  1        2 0.54724727E+00 0.27204202E+04</pdfrwt>
<pdfrwt beam="2">  1       -2 0.80020578E-01 0.27204202E+04</pdfrwt>
<totfact> 0.89668793E-01</totfact>
</mgrwt>
</event>
<event>
12    3  0.4769008E-008  0.1529283E+04  0.7818608E-02  0.8865210E-01
          2   -1    0    0  501    0  0.00000000000E+00  0.00000000000E+00  0.14507880217E+04  0.14507880217E+04  0.00000000000E+00 0. -1.
         -2   -1    0    0    0  501 -0.00000000000E+00 -0.00000000000E+00 -0.40300635683E+03  0.40300635683E+03  0.00000000000E+00 0.  1.
         23    2    1    2    0    0 -0.17175959148E+03  0.46262952301E+03  0.30553032656E+03  0.58779620364E+03  0.92887909566E+02 0.  0.
        254    2    1    2    0    0  0.17175959148E+03 -0.46262952301E+03  0.74225133829E+03  0.12659981749E+04  0.89904777222E+03 0.  0.
         23    2    4    4    0    0 -0.30904552835E+03  0.24068138213E+02  0.33068405175E+03  0.46260445127E+03  0.92533898553E+02 0.  0.
         23    2    4    4    0    0  0.48080511984E+03 -0.48669766122E+03  0.41156728654E+03  0.80339372359E+03  0.89474393293E+02 0.  0.
          2    1    3    3  502    0 -0.16988783339E+02  0.39719665100E+02 -0.69158612264E+00  0.43205889024E+02  0.00000000000E+00 0. -1.
         -2    1    3    3    0  502 -0.15477080814E+03  0.42290985791E+03  0.30622191268E+03  0.54459031462E+03  0.00000000000E+00 0.  1.
         13    1    5    5    0    0 -0.14250583577E+03  0.22380620088E+02  0.21840774801E+03  0.26174558215E+03  0.00000000000E+00 0. -1.
        -13    1    5    5    0    0 -0.16653969258E+03  0.16875181246E+01  0.11227630374E+03  0.20085886912E+03  0.00000000000E+00 0.  1.
          4    1    6    6  503    0  0.24634033091E+03 -0.25165227135E+03  0.15970994214E+03  0.38667775981E+03  0.00000000000E+00 0. -1.
         -4    1    6    6    0  503  0.23446478893E+03 -0.23504538987E+03  0.25185734440E+03  0.41671596378E+03  0.00000000000E+00 0.  1.
<mgrwt>
<rscale>  0 0.15292832E+04</rscale>
<asrwt>0</asrwt>
<pdfrwt beam="1">  1        2 0.22319816E+00 0.15292832E+04</pdfrwt>
<pdfrwt beam="2">  1       -2 0.62000978E-01 0.15292832E+04</pdfrwt>
<totfact> 0.31519714E+01</totfact>
</mgrwt>
</event>
<event>
12    3  0.4769008E-008  0.1776350E+04  0.7818608E-02  0.8718978E-01
          2   -1    0    0  501    0  0.00000000000E+00  0.00000000000E+00  0.12516703195E+04  0.12516703195E+04  0.00000000000E+00 0.  1.
         -2   -1    0    0    0  501 -0.00000000000E+00 -0.00000000000E+00 -0.63024156824E+03  0.63024156824E+03  0.00000000000E+00 0. -1.
         23    2    1    2    0    0 -0.27407993536E+03  0.29253190803E+03 -0.35202107813E+03  0.54262106968E+03  0.99116384279E+02 0.  0.
        254    2    1    2    0    0  0.27407993536E+03 -0.29253190803E+03  0.97344982938E+03  0.13392908181E+04  0.82788924188E+03 0.  0.
         23    2    4    4    0    0  0.55148053825E+03 -0.12567938476E+03  0.70817327560E+03  0.91081099817E+03  0.90228566923E+02 0.  0.
         23    2    4    4    0    0 -0.27740060289E+03 -0.16685252326E+03  0.26527655378E+03  0.42847981988E+03  0.91828356524E+02 0.  0.
          4    1    3    3  502    0 -0.14329943314E+03  0.96348495984E+02 -0.11000734576E+03  0.20474221924E+03  0.00000000000E+00 0. -1.
         -4    1    3    3    0  502 -0.13078050222E+03  0.19618341204E+03 -0.24201373237E+03  0.33787885044E+03  0.00000000000E+00 0.  1.
         13    1    5    5    0    0  0.51888339305E+03 -0.12453765905E+03  0.62702488039E+03  0.82335278267E+03  0.00000000000E+00 0. -1.
        -13    1    5    5    0    0  0.32597145204E+02 -0.11417257086E+01  0.81148395216E+02  0.87458215505E+02  0.00000000000E+00 0.  1.
          4    1    6    6  503    0 -0.20604525581E+03 -0.12013694375E+03  0.13887471696E+03  0.27599586900E+03  0.00000000000E+00 0. -1.
         -4    1    6    6    0  503 -0.71355347074E+02 -0.46715579515E+02  0.12640183681E+03  0.15248395088E+03  0.00000000000E+00 0.  1.
<mgrwt>
<rscale>  0 0.17763498E+04</rscale>
<asrwt>0</asrwt>
<pdfrwt beam="1">  1        2 0.19256466E+00 0.17763498E+04</pdfrwt>
<pdfrwt beam="2">  1       -2 0.96960241E-01 0.17763498E+04</pdfrwt>
<totfact> 0.14831833E+01</totfact>
</mgrwt>
</event>
<event>
12    3  0.4769008E-008  0.1622141E+04  0.7818608E-02  0.8807060E-01
         -2   -1    0    0    0  501 -0.00000000000E+00  0.00000000000E+00  0.30744330878E+03  0.30744330878E+03  0.00000000000E+00 0. -1.
          2   -1    0    0  501    0  0.00000000000E+00 -0.00000000000E+00 -0.21396964412E+04  0.21396964412E+04  0.00000000000E+00 0.  1.
         23    2    1    2    0    0 -0.48690627759E+03 -0.17282657152E+03 -0.32222816484E+03  0.61572331888E+03  0.91309737791E+02 0.  0.
        254    2    1    2    0    0  0.48690627759E+03  0.17282657152E+03 -0.15100249676E+04  0.18314164311E+04  0.89831174677E+03 0.  0.
         23    2    4    4    0    0  0.59321411742E+01 -0.96663665472E+02  0.73809928517E+02  0.15202695939E+03  0.91023273459E+02 0.  0.
         23    2    4    4    0    0  0.48097413642E+03  0.26949023700E+03 -0.15838348961E+04  0.16793894717E+04  0.88627940648E+02 0.  0.
          1    1    3    3  502    0 -0.39457758333E+03 -0.15998778807E+03 -0.22718820573E+03  0.48259925654E+03  0.00000000000E+00 0. -1.
         -1    1    3    3    0  502 -0.92328694266E+02 -0.12838783457E+02 -0.95039959113E+02  0.13312406234E+03  0.00000000000E+00 0.  1.
         13    1    5    5    0    0 -0.41426851852E+02 -0.37169200606E+02  0.21194667830E+02  0.59556254688E+02  0.00000000000E+00 0. -1.
        -13    1    5    5    0    0  0.47358993027E+02 -0.59494464867E+02  0.52615260688E+02  0.92470704699E+02  0.00000000000E+00 0.  1.
          2    1    6    6  503    0  0.40945650048E+03  0.18986584996E+03 -0.12720347736E+04  0.13497318741E+04  0.00000000000E+00 0. -1.
         -2    1    6    6    0  503  0.71517635935E+02  0.79624387040E+02 -0.31180012246E+03  0.32965759755E+03  0.00000000000E+00 0.  1.
<mgrwt>
<rscale>  0 0.16221410E+04</rscale>
<asrwt>0</asrwt>
<pdfrwt beam="1">  1        2 0.32918405E+00 0.16221410E+04</pdfrwt>
<pdfrwt beam="2">  1       -2 0.47298973E-01 0.16221410E+04</pdfrwt>
<totfact> 0.22652946E+01</totfact>
</mgrwt>
</event>
<event>
12    3  0.4769008E-008  0.2567233E+04  0.7818608E-02  0.8379417E-01
          2   -1    0    0  501    0  0.00000000000E+00  0.00000000000E+00  0.79160640431E+03  0.79160640431E+03  0.00000000000E+00 0. -1.
         -2   -1    0    0    0  501 -0.00000000000E+00 -0.00000000000E+00 -0.20814279453E+04  0.20814279453E+04  0.00000000000E+00 0.  1.
         23    2    1    2    0    0 -0.42726618557E+03  0.57932794682E+03 -0.15247024124E+04  0.16891530922E+04  0.10170279772E+03 0.  0.
        254    2    1    2    0    0  0.42726618557E+03 -0.57932794682E+03  0.23488087146E+03  0.11838812574E+04  0.91007062615E+03 0.  0.
         23    2    4    4    0    0  0.58294926853E+03 -0.32151313538E+03  0.44378687801E+03  0.80469283573E+03  0.85925670699E+02 0.  0.
         23    2    4    4    0    0 -0.15568308296E+03 -0.25781481144E+03 -0.20890600655E+03  0.37918842169E+03  0.97141341632E+02 0.  0.
          4    1    3    3  502    0 -0.82195327840E+02  0.79285999251E+02 -0.32310411330E+03  0.34269317126E+03  0.00000000000E+00 0. -1.
         -4    1    3    3    0  502 -0.34507085773E+03  0.50004194757E+03 -0.12015982991E+04  0.13464599209E+04  0.00000000000E+00 0.  1.
         13    1    5    5    0    0  0.42226498793E+03 -0.24904917994E+03  0.36717482622E+03  0.61249536086E+03  0.00000000000E+00 0. -1.
        -13    1    5    5    0    0  0.16068428060E+03 -0.72463955441E+02  0.76612051789E+02  0.19219747487E+03  0.00000000000E+00 0.  1.
          1    1    6    6  503    0 -0.15860559426E+03 -0.26381126259E+03 -0.20971603726E+03  0.37246870082E+03  0.00000000000E+00 0. -1.
         -1    1    6    6    0  503  0.29225113061E+01  0.59964511566E+01  0.81003071513E+00  0.67197208698E+01  0.00000000000E+00 0.  1.
<mgrwt>
<rscale>  0 0.25672333E+04</rscale>
<asrwt>0</asrwt>
<pdfrwt beam="1">  1        2 0.12178560E+00 0.25672333E+04</pdfrwt>
<pdfrwt beam="2">  1       -2 0.32021969E+00 0.25672333E+04</pdfrwt>
<totfact> 0.73974469E-01</totfact>
</mgrwt>
</event>
<event>
12    3  0.4769008E-008  0.1230347E+04  0.7818608E-02  0.9086701E-01
          3   -1    0    0  501    0  0.00000000000E+00  0.00000000000E+00  0.20785969430E+04  0.20785969430E+04  0.00000000000E+00 0. -1.
         -3   -1    0    0    0  501 -0.00000000000E+00 -0.00000000000E+00 -0.18206442996E+03  0.18206442996E+03  0.00000000000E+00 0.  1.
         23    2    1    2    0    0 -0.21185626501E+03  0.16328663067E+03  0.44851675612E+03  0.52937370837E+03  0.86738929049E+02 0.  0.
        254    2    1    2    0    0  0.21185626501E+03 -0.16328663067E+03  0.14480157569E+04  0.17312876646E+04  0.91052827770E+03 0.  0.
         23    2    4    4    0    0  0.31888640790E+03 -0.32037952249E+03  0.14492689948E+04  0.15206085993E+04  0.86823461884E+02 0.  0.
         23    2    4    4    0    0 -0.10703014289E+03  0.15709289182E+03 -0.12532379102E+01  0.21067906522E+03  0.90832096590E+02 0.  0.
          1    1    3    3  502    0 -0.18249888813E+03  0.15140253986E+03  0.32782688555E+03  0.40459738028E+03  0.00000000000E+00 0.  1.
         -1    1    3    3    0  502 -0.29357376880E+02  0.11884090813E+02  0.12068987058E+03  0.12477632809E+03  0.00000000000E+00 0. -1.
         13    1    5    5    0    0  0.14612426301E+03 -0.15027004263E+03  0.81666269322E+03  0.84313186421E+03  0.00000000000E+00 0.  1.
        -13    1    5    5    0    0  0.17276214489E+03 -0.17010947987E+03  0.63260630158E+03  0.67747673514E+03  0.00000000000E+00 0. -1.
          2    1    6    6  503    0 -0.61256878707E+02  0.85702945366E+02 -0.45820002447E+02  0.11487764211E+03  0.00000000000E+00 0.  1.
         -2    1    6    6    0  503 -0.45773264180E+02  0.71389946453E+02  0.44566764537E+02  0.95801423108E+02  0.00000000000E+00 0. -1.
<mgrwt>
<rscale>  0 0.12303472E+04</rscale>
<asrwt>0</asrwt>
<pdfrwt beam="1">  1        3 0.31978413E+00 0.12303472E+04</pdfrwt>
<pdfrwt beam="2">  1       -3 0.28009914E-01 0.12303472E+04</pdfrwt>
<totfact> 0.97077904E-01</totfact>
</mgrwt>
</event>
<event>
12    3  0.4769008E-008  0.1674508E+04  0.7818608E-02  0.8776039E-01
         -2   -1    0    0    0  501 -0.00000000000E+00  0.00000000000E+00  0.88415262434E+03  0.88415262434E+03  0.00000000000E+00 0.  1.
          2   -1    0    0  501    0  0.00000000000E+00 -0.00000000000E+00 -0.79284280668E+03  0.79284280668E+03  0.00000000000E+00 0. -1.
         23    2    1    2    0    0  0.33172169929E+03 -0.10742549662E+03 -0.42745100544E+03  0.55935831327E+03  0.92670585794E+02 0.  0.
        254    2    1    2    0    0 -0.33172169929E+03  0.10742549662E+03  0.51876082310E+03  0.11176371178E+04  0.92650980151E+03 0.  0.
         23    2    4    4    0    0 -0.26750209918E+03  0.49775635857E+03  0.38673350263E+03  0.69067006667E+03  0.90241749602E+02 0.  0.
         23    2    4    4    0    0 -0.64219600107E+02 -0.39033086195E+03  0.13202732047E+03  0.42696705108E+03  0.91582261007E+02 0.  0.
          3    1    3    3  502    0  0.30855327579E+03 -0.85091053712E+02 -0.34378436518E+03  0.46971619215E+03  0.00000000000E+00 0. -1.
         -3    1    3    3    0  502  0.23168423500E+02 -0.22334442911E+02 -0.83666640261E+02  0.89642121127E+02  0.00000000000E+00 0.  1.
         13    1    5    5    0    0 -0.93429126472E+02  0.20672530066E+03  0.10586446717E+03  0.25034303868E+03  0.00000000000E+00 0. -1.
        -13    1    5    5    0    0 -0.17407297271E+03  0.29103105791E+03  0.28086903546E+03  0.44032702799E+03  0.00000000000E+00 0.  1.
          2    1    6    6  503    0 -0.22073823516E+02 -0.58241834841E+02  0.55846841517E+02  0.83655452408E+02  0.00000000000E+00 0. -1.
         -2    1    6    6    0  503 -0.42145776591E+02 -0.33208902711E+03  0.76180478953E+02  0.34331159867E+03  0.00000000000E+00 0.  1.
<mgrwt>
<rscale>  0 0.16745077E+04</rscale>
<asrwt>0</asrwt>
<pdfrwt beam="1">  1        2 0.12197582E+00 0.16745077E+04</pdfrwt>
<pdfrwt beam="2">  1       -2 0.13602348E+00 0.16745077E+04</pdfrwt>
<totfact> 0.12858078E+01</totfact>
</mgrwt>
</event>
<event>
12    3  0.4769008E-008  0.1420997E+04  0.7818608E-02  0.8938759E-01
          3   -1    0    0  501    0  0.00000000000E+00  0.00000000000E+00  0.32812799666E+03  0.32812799666E+03  0.00000000000E+00 0. -1.
         -3   -1    0    0    0  501 -0.00000000000E+00 -0.00000000000E+00 -0.15384480936E+04  0.15384480936E+04  0.00000000000E+00 0.  1.
         23    2    1    2    0    0  0.13685452277E+03  0.34864801804E+03 -0.10222986388E+03  0.39906978746E+03  0.92310071532E+02 0.  0.
        254    2    1    2    0    0 -0.13685452277E+03 -0.34864801804E+03 -0.11080902331E+04  0.14675063028E+04  0.88624273385E+03 0.  0.
         23    2    4    4    0    0 -0.12689494793E+03  0.13539338419E+02  0.10896592908E+03  0.19438127891E+03  0.98106403435E+02 0.  0.
         23    2    4    4    0    0 -0.99595748463E+01 -0.36218735646E+03 -0.12170561622E+04  0.12731250239E+04  0.91338657475E+02 0.  0.
          4    1    3    3  502    0  0.12596964755E+03  0.30296918793E+03 -0.11926542288E+03  0.34911734708E+03  0.00000000000E+00 0. -1.
         -4    1    3    3    0  502  0.10884875226E+02  0.45678830114E+02  0.17035559004E+02  0.49952440380E+02  0.00000000000E+00 0.  1.
         13    1    5    5    0    0 -0.11297400514E+01  0.17080379474E+02 -0.11155073517E+02  0.20431625994E+02  0.00000000000E+00 0. -1.
        -13    1    5    5    0    0 -0.12576520787E+03 -0.35410410549E+01  0.12012100260E+03  0.17394965291E+03  0.00000000000E+00 0.  1.
          2    1    6    6  503    0  0.34405796635E+02 -0.24070824086E+03 -0.84142722979E+03  0.87585615205E+03  0.00000000000E+00 0.  1.
         -2    1    6    6    0  503 -0.44365371481E+02 -0.12147911561E+03 -0.37562893239E+03  0.39726887188E+03  0.00000000000E+00 0. -1.
<mgrwt>
<rscale>  0 0.14209967E+04</rscale>
<asrwt>0</asrwt>
<pdfrwt beam="1">  1        3 0.50481230E-01 0.14209967E+04</pdfrwt>
<pdfrwt beam="2">  1       -3 0.23668432E+00 0.14209967E+04</pdfrwt>
<totfact> 0.86810482E-01</totfact>
</mgrwt>
</event>
<event>
12    3  0.4769008E-008  0.2558113E+04  0.7818608E-02  0.8382570E-01
         -2   -1    0    0    0  501 -0.00000000000E+00  0.00000000000E+00  0.49447406571E+03  0.49447406571E+03  0.00000000000E+00 0.  1.
          2   -1    0    0  501    0  0.00000000000E+00 -0.00000000000E+00 -0.33085358093E+04  0.33085358093E+04  0.00000000000E+00 0. -1.
         23    2    1    2    0    0  0.40816877687E+03  0.34447902827E+03 -0.26757611826E+04  0.27291564740E+04  0.57702702545E+02 0.  0.
        254    2    1    2    0    0 -0.40816877687E+03 -0.34447902827E+03 -0.13830056103E+03  0.10738534011E+04  0.92128526010E+03 0.  0.
         23    2    4    4    0    0 -0.52273693774E+03 -0.45829087065E+03 -0.35756583450E+03  0.78702413747E+03  0.90935354873E+02 0.  0.
         23    2    4    4    0    0  0.11456816087E+03  0.11381184238E+03  0.21926527346E+03  0.28682926360E+03  0.90082003514E+02 0.  0.
          1    1    3    3  502    0  0.25658311683E+03  0.20100993500E+03 -0.17581356503E+04  0.17880941963E+04  0.00000000000E+00 0. -1.
         -1    1    3    3    0  502  0.15158566004E+03  0.14346909327E+03 -0.91762553228E+03  0.94106227772E+03  0.00000000000E+00 0.  1.
         13    1    5    5    0    0 -0.48103748402E+03 -0.44975854193E+03 -0.33543676063E+03  0.73905184355E+03  0.00000000000E+00 0. -1.
        -13    1    5    5    0    0 -0.41699453718E+02 -0.85323287159E+01 -0.22129073868E+02  0.47972293921E+02  0.00000000000E+00 0.  1.
          1    1    6    6  503    0  0.71096757085E+02  0.11860304751E+03  0.14306249175E+03  0.19896810873E+03  0.00000000000E+00 0. -1.
         -1    1    6    6    0  503  0.43471403786E+02 -0.47912051265E+01  0.76202781709E+02  0.87861154863E+02  0.00000000000E+00 0.  1.
<mgrwt>
<rscale>  0 0.25581127E+04</rscale>
<asrwt>0</asrwt>
<pdfrwt beam="1">  1        2 0.50900553E+00 0.25581127E+04</pdfrwt>
<pdfrwt beam="2">  1       -2 0.76072931E-01 0.25581127E+04</pdfrwt>
<totfact> 0.15104480E+00</totfact>
</mgrwt>
</event>
<event>
12    3  0.4769008E-008  0.1935992E+04  0.7818608E-02  0.8637145E-01
          2   -1    0    0  501    0  0.00000000000E+00  0.00000000000E+00  0.20432867106E+04  0.20432867106E+04  0.00000000000E+00 0. -1.
         -2   -1    0    0    0  501 -0.00000000000E+00 -0.00000000000E+00 -0.45858283516E+03  0.45858283516E+03  0.00000000000E+00 0.  1.
         23    2    1    2    0    0 -0.61368786110E+03  0.42816217817E+03  0.57071606265E+03  0.94523424482E+03  0.88404251715E+02 0.  0.
        254    2    1    2    0    0  0.61368786110E+03 -0.42816217817E+03  0.10139878128E+04  0.15566353009E+04  0.91378691935E+03 0.  0.
         23    2    4    4    0    0  0.15378628413E+03 -0.32685107702E+03  0.10114509460E+04  0.10777990702E+04  0.90199621693E+02 0.  0.
         23    2    4    4    0    0  0.45990157697E+03 -0.10131110115E+03  0.25368667568E+01  0.47883623075E+03  0.86627365612E+02 0.  0.
          1    1    3    3  502    0 -0.42162765762E+03  0.24886229307E+03  0.39605211217E+03  0.62972978184E+03  0.00000000000E+00 0. -1.
         -1    1    3    3    0  502 -0.19206020348E+03  0.17929988510E+03  0.17466395049E+03  0.31550446298E+03  0.00000000000E+00 0.  1.
         13    1    5    5    0    0  0.19333681233E+02 -0.21613420853E+01  0.35146914285E+02  0.40171734010E+02  0.00000000000E+00 0. -1.
        -13    1    5    5    0    0  0.13445260290E+03 -0.32468973493E+03  0.97630403173E+03  0.10376273362E+04  0.00000000000E+00 0.  1.
          1    1    6    6  503    0  0.11505984183E+02  0.19710035313E+01  0.14411563620E+02  0.18546312110E+02  0.00000000000E+00 0. -1.
         -1    1    6    6    0  503  0.44839559278E+03 -0.10328210468E+03 -0.11874696863E+02  0.46028991864E+03  0.00000000000E+00 0.  1.
<mgrwt>
<rscale>  0 0.19359920E+04</rscale>
<asrwt>0</asrwt>
<pdfrwt beam="1">  1        2 0.31435180E+00 0.19359920E+04</pdfrwt>
<pdfrwt beam="2">  1       -2 0.70551207E-01 0.19359920E+04</pdfrwt>
<totfact> 0.10784721E+01</totfact>
</mgrwt>
</event>
<event>
12    3  0.4769008E-008  0.1674523E+04  0.7818608E-02  0.8776030E-01
          2   -1    0    0  501    0  0.00000000000E+00  0.00000000000E+00  0.17133250241E+04  0.17133250241E+04  0.00000000000E+00 0. -1.
         -2   -1    0    0    0  501 -0.00000000000E+00 -0.00000000000E+00 -0.40914992211E+03  0.40914992211E+03  0.00000000000E+00 0.  1.
         23    2    1    2    0    0 -0.52075101091E+03  0.46810436950E+02  0.13545638638E+03  0.54781150881E+03  0.91521495839E+02 0.  0.
        254    2    1    2    0    0  0.52075101091E+03 -0.46810436950E+02  0.11687187156E+04  0.15746634374E+04  0.91667260920E+03 0.  0.
         23    2    4    4    0    0  0.21204870026E+03  0.39943158560E+01 -0.10944109201E+03  0.25562903384E+03  0.91587359809E+02 0.  0.
         23    2    4    4    0    0  0.30870231065E+03 -0.50804752806E+02  0.12781598076E+04  0.13190344035E+04  0.91000134196E+02 0.  0.
          1    1    3    3  502    0 -0.59921380812E+02  0.49834991113E+01 -0.13647888629E+02  0.61657700296E+02  0.00000000000E+00 0. -1.
         -1    1    3    3    0  502 -0.46082963010E+03  0.41826937839E+02  0.14910427501E+03  0.48615380852E+03  0.00000000000E+00 0.  1.
         13    1    5    5    0    0  0.16930302872E+03  0.24135495453E+02 -0.47060394350E+02  0.17737169557E+03  0.00000000000E+00 0.  1.
        -13    1    5    5    0    0  0.42745671549E+02 -0.20141179597E+02 -0.62380697664E+02  0.78257338268E+02  0.00000000000E+00 0. -1.
          1    1    6    6  503    0  0.22379343553E+02 -0.24676033220E+02  0.76158685718E+02  0.83125730335E+02  0.00000000000E+00 0. -1.
         -1    1    6    6    0  503  0.28632296710E+03 -0.26128719586E+02  0.12020011219E+04  0.12359086732E+04  0.00000000000E+00 0.  1.
<mgrwt>
<rscale>  0 0.16745230E+04</rscale>
<asrwt>0</asrwt>
<pdfrwt beam="1">  1        2 0.26358846E+00 0.16745230E+04</pdfrwt>
<pdfrwt beam="2">  1       -2 0.62946143E-01 0.16745230E+04</pdfrwt>
<totfact> 0.21496114E+01</totfact>
</mgrwt>
</event>
<event>
12    3  0.4769008E-008  0.1738639E+04  0.7818608E-02  0.8739629E-01
          2   -1    0    0  501    0  0.00000000000E+00  0.00000000000E+00  0.22709477248E+04  0.22709477248E+04  0.00000000000E+00 0.  1.
         -2   -1    0    0    0  501 -0.00000000000E+00 -0.00000000000E+00 -0.33277570750E+03  0.33277570750E+03  0.00000000000E+00 0. -1.
         23    2    1    2    0    0  0.36991665406E+02  0.58511012586E+02 -0.22883975754E+03  0.25564080964E+03  0.90513352706E+02 0.  0.
        254    2    1    2    0    0 -0.36991665406E+02 -0.58511012586E+02  0.21670117748E+04  0.23480826226E+04  0.90153205636E+03 0.  0.
         23    2    4    4    0    0 -0.11224523245E+03  0.19461230793E+02 -0.21869318359E+02  0.15450363645E+03  0.10205574399E+03 0.  0.
         23    2    4    4    0    0  0.75253567045E+02 -0.77972243379E+02  0.21888810932E+04  0.21935789862E+04  0.94050829195E+02 0.  0.
          2    1    3    3  502    0 -0.19010140933E+02  0.41372398163E+02 -0.50810329095E+02  0.68225730708E+02  0.00000000000E+00 0.  1.
         -2    1    3    3    0  502  0.56001806339E+02  0.17138614423E+02 -0.17802942845E+03  0.18741507893E+03  0.00000000000E+00 0. -1.
         13    1    5    5    0    0 -0.40617107784E+02  0.55771197238E+02  0.65811829087E+01  0.69307199154E+02  0.00000000000E+00 0.  1.
        -13    1    5    5    0    0 -0.71628124667E+02 -0.36309966444E+02 -0.28450501267E+02  0.85196437301E+02  0.00000000000E+00 0. -1.
          3    1    6    6  503    0  0.29031579974E+02 -0.83268962481E+02  0.10313231857E+04  0.10350865017E+04  0.00000000000E+00 0. -1.
         -3    1    6    6    0  503  0.46221987070E+02  0.52967191021E+01  0.11575579075E+04  0.11584924845E+04  0.00000000000E+00 0.  1.
<mgrwt>
<rscale>  0 0.17386388E+04</rscale>
<asrwt>0</asrwt>
<pdfrwt beam="1">  1        2 0.34937656E+00 0.17386388E+04</pdfrwt>
<pdfrwt beam="2">  1       -2 0.51196264E-01 0.17386388E+04</pdfrwt>
<totfact> 0.16115775E+01</totfact>
</mgrwt>
</event>
<event>
12    3  0.4769008E-008  0.1593857E+04  0.7818608E-02  0.8824331E-01
          2   -1    0    0  501    0  0.00000000000E+00  0.00000000000E+00  0.31996716029E+04  0.31996716029E+04  0.00000000000E+00 0. -1.
         -2   -1    0    0    0  501 -0.00000000000E+00 -0.00000000000E+00 -0.19848758680E+03  0.19848758680E+03  0.00000000000E+00 0.  1.
         23    2    1    2    0    0 -0.20351249355E+03  0.49504819064E+03  0.88714359026E+03  0.10400624078E+04  0.90642243235E+02 0.  0.
        254    2    1    2    0    0  0.20351249355E+03 -0.49504819064E+03  0.21140404258E+04  0.23580967819E+04  0.89719756172E+03 0.  0.
         23    2    4    4    0    0 -0.16328893950E+03 -0.61820458226E+03  0.13644837210E+04  0.15095734071E+04  0.90309819081E+02 0.  0.
         23    2    4    4    0    0  0.36680143305E+03  0.12315639163E+03  0.74955670488E+03  0.84852337481E+03  0.91901445463E+02 0.  0.
          1    1    3    3  502    0 -0.35244152223E+02  0.36853053482E+02  0.12510598793E+03  0.13509924512E+03  0.00000000000E+00 0. -1.
         -1    1    3    3    0  502 -0.16826834132E+03  0.45819513716E+03  0.76203760233E+03  0.90496316266E+03  0.00000000000E+00 0.  1.
         13    1    5    5    0    0 -0.11374440712E+03 -0.25622542951E+03  0.58218666411E+03  0.64616605664E+03  0.00000000000E+00 0. -1.
        -13    1    5    5    0    0 -0.49544532386E+02 -0.36197915275E+03  0.78229705684E+03  0.86340735048E+03  0.00000000000E+00 0.  1.
          1    1    6    6  503    0  0.11533553403E+03  0.39941505500E+02  0.15235728813E+03  0.19521872993E+03  0.00000000000E+00 0. -1.
         -1    1    6    6    0  503  0.25146589902E+03  0.83214886127E+02  0.59719941676E+03  0.65330464488E+03  0.00000000000E+00 0.  1.
<mgrwt>
<rscale>  0 0.15938571E+04</rscale>
<asrwt>0</asrwt>
<pdfrwt beam="1">  1        2 0.49225713E+00 0.15938571E+04</pdfrwt>
<pdfrwt beam="2">  1       -2 0.30536554E-01 0.15938571E+04</pdfrwt>
<totfact> 0.12448657E+01</totfact>
</mgrwt>
</event>
<event>
12    3  0.4769008E-008  0.1808013E+04  0.7818608E-02  0.8702050E-01
          1   -1    0    0  501    0  0.00000000000E+00  0.00000000000E+00  0.33949348127E+04  0.33949348127E+04  0.00000000000E+00 0. -1.
         -1   -1    0    0    0  501 -0.00000000000E+00 -0.00000000000E+00 -0.24071966065E+03  0.24071966065E+03  0.00000000000E+00 0.  1.
         23    2    1    2    0    0  0.46213790560E+03  0.42252205578E+03  0.69001654490E+03  0.93599544685E+03  0.88703511045E+02 0.  0.
        254    2    1    2    0    0 -0.46213790560E+03 -0.42252205578E+03  0.24641986071E+04  0.26996590265E+04  0.90762754062E+03 0.  0.
         23    2    4    4    0    0 -0.47296240592E+03 -0.67247275921E+03  0.17166634477E+04  0.19059187401E+04  0.98385983847E+02 0.  0.
         23    2    4    4    0    0  0.10824500318E+02  0.24995070343E+03  0.74753515939E+03  0.79374028637E+03  0.92856360756E+02 0.  0.
          2    1    3    3  502    0  0.30953286088E+03  0.29772433295E+03  0.52947845471E+03  0.68176081172E+03  0.00000000000E+00 0. -1.
         -2    1    3    3    0  502  0.15260504472E+03  0.12479772283E+03  0.16053809020E+03  0.25423463513E+03  0.00000000000E+00 0.  1.
         13    1    5    5    0    0 -0.12719990442E+03 -0.11297826607E+03  0.36830559688E+03  0.40570052623E+03  0.00000000000E+00 0. -1.
        -13    1    5    5    0    0 -0.34576250150E+03 -0.55949449314E+03  0.13483578508E+04  0.15002182139E+04  0.00000000000E+00 0.  1.
          3    1    6    6  503    0 -0.99773864650E+01 -0.20608190030E+01  0.10938232635E+02  0.14947914530E+02  0.00000000000E+00 0. -1.
         -3    1    6    6    0  503  0.20801886783E+02  0.25201152243E+03  0.73659692676E+03  0.77879237184E+03  0.00000000000E+00 0.  1.
<mgrwt>
<rscale>  0 0.18080128E+04</rscale>
<asrwt>0</asrwt>
<pdfrwt beam="1">  1        1 0.52229763E+00 0.18080128E+04</pdfrwt>
<pdfrwt beam="2">  1       -1 0.37033796E-01 0.18080128E+04</pdfrwt>
<totfact> 0.20065519E+00</totfact>
</mgrwt>
</event>
<event>
12    3  0.4769008E-008  0.1740196E+04  0.7818608E-02  0.8738765E-01
          2   -1    0    0  501    0  0.00000000000E+00  0.00000000000E+00  0.93827256918E+03  0.93827256918E+03  0.00000000000E+00 0. -1.
         -2   -1    0    0    0  501 -0.00000000000E+00 -0.00000000000E+00 -0.80687724253E+03  0.80687724253E+03  0.00000000000E+00 0.  1.
         23    2    1    2    0    0 -0.28525596246E+03 -0.24158766290E+03 -0.46417959750E+03  0.60277474197E+03  0.90217115010E+02 0.  0.
        254    2    1    2    0    0  0.28525596246E+03  0.24158766290E+03  0.59557492414E+03  0.11423750697E+04  0.90031980246E+03 0.  0.
         23    2    4    4    0    0  0.18084442589E+03  0.61053168369E+02  0.80650855010E+03  0.83368777837E+03  0.90261147130E+02 0.  0.
         23    2    4    4    0    0  0.10441153657E+03  0.18053449453E+03 -0.21093362595E+03  0.30868729137E+03  0.85442241368E+02 0.  0.
          3    1    3    3  502    0 -0.47745093133E+02 -0.27008996684E+02 -0.12447296978E+03  0.13602426264E+03  0.00000000000E+00 0. -1.
         -3    1    3    3    0  502 -0.23751086933E+03 -0.21457866621E+03 -0.33970662772E+03  0.46675047934E+03  0.00000000000E+00 0.  1.
         13    1    5    5    0    0  0.64046100886E+02  0.13661953200E+02  0.13028904316E+03  0.14582107794E+03  0.00000000000E+00 0.  1.
        -13    1    5    5    0    0  0.11679832500E+03  0.47391215169E+02  0.67621950694E+03  0.68786670043E+03  0.00000000000E+00 0. -1.
          1    1    6    6  503    0 -0.11014036737E+02  0.25507853292E+02 -0.91015596618E+01  0.29236928243E+02  0.00000000000E+00 0.  1.
         -1    1    6    6    0  503  0.11542557331E+03  0.15502664124E+03 -0.20183206629E+03  0.27945036312E+03  0.00000000000E+00 0. -1.
<mgrwt>
<rscale>  0 0.17401963E+04</rscale>
<asrwt>0</asrwt>
<pdfrwt beam="1">  1        2 0.14434963E+00 0.17401963E+04</pdfrwt>
<pdfrwt beam="2">  1       -2 0.12413496E+00 0.17401963E+04</pdfrwt>
<totfact> 0.12791661E+01</totfact>
</mgrwt>
</event>
<event>
12    3  0.4769008E-008  0.2073809E+04  0.7818608E-02  0.8572869E-01
          1   -1    0    0  501    0  0.00000000000E+00  0.00000000000E+00  0.98337513661E+03  0.98337513661E+03  0.00000000000E+00 0. -1.
         -1   -1    0    0    0  501 -0.00000000000E+00 -0.00000000000E+00 -0.10933478326E+04  0.10933478326E+04  0.00000000000E+00 0.  1.
         23    2    1    2    0    0  0.64474565926E+02  0.41249427331E+03  0.68427439701E+03  0.80688749095E+03  0.92344341916E+02 0.  0.
        254    2    1    2    0    0 -0.64474565926E+02 -0.41249427331E+03 -0.79424709295E+03  0.12698354782E+04  0.89852390170E+03 0.  0.
         23    2    4    4    0    0 -0.37003888100E+03 -0.52733369674E+03 -0.46985309709E+03  0.80275830826E+03  0.93001975550E+02 0.  0.
         23    2    4    4    0    0  0.30556431508E+03  0.11483942343E+03 -0.32439399586E+03  0.46707716996E+03  0.79824647370E+02 0.  0.
          4    1    3    3  502    0  0.47064239330E+02  0.39621730613E+03  0.61019769513E+03  0.72907093169E+03  0.00000000000E+00 0. -1.
         -4    1    3    3    0  502  0.17410326596E+02  0.16276967178E+02  0.74076701885E+02  0.77816559259E+02  0.00000000000E+00 0.  1.
         13    1    5    5    0    0 -0.41580340708E+02 -0.22183181736E+02 -0.22042743536E+02  0.52027885099E+02  0.00000000000E+00 0. -1.
        -13    1    5    5    0    0 -0.32845854030E+03 -0.50515051500E+03 -0.44781035356E+03  0.75073042316E+03  0.00000000000E+00 0.  1.
          4    1    6    6  503    0  0.23323817873E+03  0.85965880564E+02 -0.19450083215E+03  0.31562755638E+03  0.00000000000E+00 0.  1.
         -4    1    6    6    0  503  0.72326136345E+02  0.28873542870E+02 -0.12989316370E+03  0.15144961358E+03  0.00000000000E+00 0. -1.
<mgrwt>
<rscale>  0 0.20738091E+04</rscale>
<asrwt>0</asrwt>
<pdfrwt beam="1">  1        1 0.15128848E+00 0.20738091E+04</pdfrwt>
<pdfrwt beam="2">  1       -1 0.16820736E+00 0.20738091E+04</pdfrwt>
<totfact> 0.36461734E+00</totfact>
</mgrwt>
</event>
<event>
12    3  0.4769008E-008  0.1850631E+04  0.7818608E-02  0.8679829E-01
          2   -1    0    0  501    0  0.00000000000E+00  0.00000000000E+00  0.10377312811E+04  0.10377312811E+04  0.00000000000E+00 0. -1.
         -2   -1    0    0    0  501 -0.00000000000E+00 -0.00000000000E+00 -0.82507729548E+03  0.82507729548E+03  0.00000000000E+00 0.  1.
         23    2    1    2    0    0 -0.11474454795E+03 -0.14107166528E+02  0.78109861674E+03  0.79670194525E+03  0.10608306680E+03 0.  0.
        254    2    1    2    0    0  0.11474454795E+03  0.14107166528E+02 -0.56844463115E+03  0.10661066313E+04  0.89447678963E+03 0.  0.
         23    2    4    4    0    0 -0.55286068960E+02 -0.16713750693E+03 -0.72870164472E+03  0.75520263284E+03  0.91287644200E+02 0.  0.
         23    2    4    4    0    0  0.17003061691E+03  0.18124467346E+03  0.16025701358E+03  0.31090399846E+03  0.96015329566E+02 0.  0.
          1    1    3    3  502    0 -0.67789289697E+02 -0.31366204451E+02  0.67805258734E+03  0.68215433575E+03  0.00000000000E+00 0. -1.
         -1    1    3    3    0  502 -0.46955258256E+02  0.17259037923E+02  0.10304602939E+03  0.11454760950E+03  0.00000000000E+00 0.  1.
         13    1    5    5    0    0 -0.77320115817E+02 -0.14691718943E+03 -0.56904102958E+03  0.59276534498E+03  0.00000000000E+00 0. -1.
        -13    1    5    5    0    0  0.22034046857E+02 -0.20220317500E+02 -0.15966061514E+03  0.16243728786E+03  0.00000000000E+00 0.  1.
          4    1    6    6  503    0  0.26949189211E+02  0.75068793521E+02  0.15302636704E+02  0.81214242901E+02  0.00000000000E+00 0.  1.
         -4    1    6    6    0  503  0.14308142770E+03  0.10617587994E+03  0.14495437687E+03  0.22968975556E+03  0.00000000000E+00 0. -1.
<mgrwt>
<rscale>  0 0.18506307E+04</rscale>
<asrwt>0</asrwt>
<pdfrwt beam="1">  1        2 0.15965097E+00 0.18506307E+04</pdfrwt>
<pdfrwt beam="2">  1       -2 0.12693497E+00 0.18506307E+04</pdfrwt>
<totfact> 0.10336516E+01</totfact>
</mgrwt>
</event>
<event>
12    3  0.4769008E-008  0.2124792E+04  0.7818608E-02  0.8550400E-01
          2   -1    0    0  501    0  0.00000000000E+00  0.00000000000E+00  0.17410180971E+04  0.17410180971E+04  0.00000000000E+00 0. -1.
         -2   -1    0    0    0  501 -0.00000000000E+00 -0.00000000000E+00 -0.64829064718E+03  0.64829064718E+03  0.00000000000E+00 0.  1.
         23    2    1    2    0    0  0.43985331377E+03 -0.20279267536E+03  0.12624939204E+04  0.13559721819E+04  0.10086551635E+03 0.  0.
        254    2    1    2    0    0 -0.43985331377E+03  0.20279267536E+03 -0.16976647046E+03  0.10333365623E+04  0.89686564755E+03 0.  0.
         23    2    4    4    0    0 -0.10703002061E+02 -0.31081465016E+03 -0.14908498652E+03  0.35680808908E+03  0.91462441581E+02 0.  0.
         23    2    4    4    0    0 -0.42915031171E+03  0.51360732552E+03 -0.20681483935E+02  0.67652847326E+03  0.96439496490E+02 0.  0.
          3    1    3    3  502    0  0.37268170815E+03 -0.20721897409E+03  0.11182457799E+04  0.11967894481E+04  0.00000000000E+00 0. -1.
         -3    1    3    3    0  502  0.67171605624E+02  0.44262987298E+01  0.14424814046E+03  0.15918273383E+03  0.00000000000E+00 0.  1.
         13    1    5    5    0    0  0.35185865159E+02 -0.68379896241E+02 -0.26881771754E+02  0.81464624037E+02  0.00000000000E+00 0. -1.
        -13    1    5    5    0    0 -0.45888867220E+02 -0.24243475392E+03 -0.12220321477E+03  0.27534346504E+03  0.00000000000E+00 0.  1.
          1    1    6    6  503    0 -0.12212263919E+03  0.10390053808E+03  0.25949088351E+02  0.16242726373E+03  0.00000000000E+00 0. -1.
         -1    1    6    6    0  503 -0.30702767252E+03  0.40970678744E+03 -0.46630572286E+02  0.51410120953E+03  0.00000000000E+00 0.  1.
<mgrwt>
<rscale>  0 0.21247925E+04</rscale>
<asrwt>0</asrwt>
<pdfrwt beam="1">  1        2 0.26784894E+00 0.21247925E+04</pdfrwt>
<pdfrwt beam="2">  1       -2 0.99737024E-01 0.21247925E+04</pdfrwt>
<totfact> 0.71131832E+00</totfact>
</mgrwt>
</event>
<event>
12    3  0.4769008E-008  0.1806930E+04  0.7818608E-02  0.8702623E-01
         -1   -1    0    0    0  501 -0.00000000000E+00  0.00000000000E+00  0.46980229806E+03  0.46980229806E+03  0.00000000000E+00 0.  1.
          1   -1    0    0  501    0  0.00000000000E+00 -0.00000000000E+00 -0.17374305536E+04  0.17374305536E+04  0.00000000000E+00 0. -1.
         23    2    1    2    0    0  0.13807522088E+03 -0.50214204896E+03  0.54998627846E+02  0.53121329316E+03  0.89170117242E+02 0.  0.
        254    2    1    2    0    0 -0.13807522088E+03  0.50214204896E+03 -0.13226268834E+04  0.16760195585E+04  0.88796862772E+03 0.  0.
         23    2    4    4    0    0 -0.11560938260E+03  0.66426550298E+03 -0.13239767886E+04  0.14884369266E+04  0.88970555822E+02 0.  0.
         23    2    4    4    0    0 -0.22465838286E+02 -0.16212345402E+03  0.13499052919E+01  0.18758263186E+03  0.91633472578E+02 0.  0.
          3    1    3    3  502    0  0.69874220901E+01 -0.72692156833E+02 -0.20611740787E+02  0.75880284598E+02  0.00000000000E+00 0. -1.
         -3    1    3    3    0  502  0.13108779879E+03 -0.42944989213E+03  0.75610368634E+02  0.45533300856E+03  0.00000000000E+00 0.  1.
         13    1    5    5    0    0 -0.33751789723E+02  0.12818487325E+03 -0.19259030247E+03  0.23379813866E+03  0.00000000000E+00 0. -1.
        -13    1    5    5    0    0 -0.81857592874E+02  0.53608062974E+03 -0.11313864862E+04  0.12546387879E+04  0.00000000000E+00 0.  1.
          3    1    6    6  503    0  0.28057340943E+02 -0.21302456121E+02 -0.12389453667E+02  0.37343106187E+02  0.00000000000E+00 0. -1.
         -3    1    6    6    0  503 -0.50523179229E+02 -0.14082099790E+03  0.13739358959E+02  0.15023952567E+03  0.00000000000E+00 0.  1.
<mgrwt>
<rscale>  0 0.18069298E+04</rscale>
<asrwt>0</asrwt>
<pdfrwt beam="1">  1        1 0.26729701E+00 0.18069298E+04</pdfrwt>
<pdfrwt beam="2">  1       -1 0.72277276E-01 0.18069298E+04</pdfrwt>
<totfact> 0.81837248E+00</totfact>
</mgrwt>
</event>
<event>
12    3  0.4769008E-008  0.1635204E+04  0.7818608E-02  0.8799208E-01
          3   -1    0    0  501    0  0.00000000000E+00  0.00000000000E+00  0.56483669155E+03  0.56483669155E+03  0.00000000000E+00 0. -1.
         -3   -1    0    0    0  501 -0.00000000000E+00 -0.00000000000E+00 -0.11834795381E+04  0.11834795381E+04  0.00000000000E+00 0.  1.
         23    2    1    2    0    0  0.14658964642E+03 -0.51874218650E+02 -0.77313757682E+03  0.79396560147E+03  0.91979370698E+02 0.  0.
        254    2    1    2    0    0 -0.14658964642E+03  0.51874218650E+02  0.15449473026E+03  0.95435062819E+03  0.92883639078E+03 0.  0.
         23    2    4    4    0    0 -0.30751963337E+03 -0.19408926405E+03 -0.24636084087E+03  0.44899091976E+03  0.93060275003E+02 0.  0.
         23    2    4    4    0    0  0.16092998695E+03  0.24596348270E+03  0.40085557113E+03  0.50535970843E+03  0.91141376316E+02 0.  0.
          2    1    3    3  502    0 -0.23289332543E+01 -0.28790673742E+02 -0.15953785931E+03  0.16213159895E+03  0.00000000000E+00 0. -1.
         -2    1    3    3    0  502  0.14891857967E+03 -0.23083544909E+02 -0.61359971751E+03  0.63183400253E+03  0.00000000000E+00 0.  1.
         13    1    5    5    0    0 -0.63305264979E+02 -0.59182681062E+02 -0.10524959076E+03  0.13633643191E+03  0.00000000000E+00 0.  1.
        -13    1    5    5    0    0 -0.24421436839E+03 -0.13490658299E+03 -0.14111125011E+03  0.31265448784E+03  0.00000000000E+00 0. -1.
          4    1    6    6  503    0  0.11578578947E+03  0.22227783647E+03  0.28967105946E+03  0.38304452524E+03  0.00000000000E+00 0. -1.
         -4    1    6    6    0  503  0.45144197481E+02  0.23685646233E+02  0.11118451166E+03  0.12231518319E+03  0.00000000000E+00 0.  1.
<mgrwt>
<rscale>  0 0.16352036E+04</rscale>
<asrwt>0</asrwt>
<pdfrwt beam="1">  1        3 0.86897954E-01 0.16352036E+04</pdfrwt>
<pdfrwt beam="2">  1       -3 0.18207377E+00 0.16352036E+04</pdfrwt>
<totfact> 0.57908563E-01</totfact>
</mgrwt>
</event>
<event>
12    3  0.4769008E-008  0.1769970E+04  0.7818608E-02  0.8722434E-01
          2   -1    0    0  501    0  0.00000000000E+00  0.00000000000E+00  0.72925014452E+03  0.72925014452E+03  0.00000000000E+00 0. -1.
         -2   -1    0    0    0  501 -0.00000000000E+00 -0.00000000000E+00 -0.10739779430E+04  0.10739779430E+04  0.00000000000E+00 0.  1.
         23    2    1    2    0    0 -0.17780632883E+02 -0.59296210827E+03  0.14653297148E+03  0.61888874955E+03  0.98138472785E+02 0.  0.
        254    2    1    2    0    0  0.17780632883E+02  0.59296210827E+03 -0.49126076994E+03  0.11843393379E+04  0.89966788904E+03 0.  0.
         23    2    4    4    0    0  0.58919088987E+02 -0.16322280137E+03  0.99156453854E+02  0.21993286215E+03  0.91789539598E+02 0.  0.
         23    2    4    4    0    0 -0.41138456104E+02  0.75618490965E+03 -0.59041722379E+03  0.96440647579E+03  0.89327276019E+02 0.  0.
          1    1    3    3  502    0  0.42515608654E+01 -0.52209433224E+03  0.10091178432E+03  0.53177415859E+03  0.00000000000E+00 0. -1.
         -1    1    3    3    0  502 -0.22032193748E+02 -0.70867776029E+02  0.45621187160E+02  0.87114590962E+02  0.00000000000E+00 0.  1.
         13    1    5    5    0    0  0.66469827747E+02 -0.15264955871E+03  0.11278894997E+03  0.20110065393E+03  0.00000000000E+00 0.  1.
        -13    1    5    5    0    0 -0.75507387600E+01 -0.10573242667E+02 -0.13632496119E+02  0.18832208228E+02  0.00000000000E+00 0. -1.
          4    1    6    6  503    0 -0.63860367460E+02  0.68141428781E+03 -0.53108274106E+03  0.86628659000E+03  0.00000000000E+00 0.  1.
         -4    1    6    6    0  503  0.22721911356E+02  0.74770621832E+02 -0.59334482736E+02  0.98119885784E+02  0.00000000000E+00 0. -1.
<mgrwt>
<rscale>  0 0.17699701E+04</rscale>
<asrwt>0</asrwt>
<pdfrwt beam="1">  1        2 0.11219233E+00 0.17699701E+04</pdfrwt>
<pdfrwt beam="2">  1       -2 0.16522738E+00 0.17699701E+04</pdfrwt>
<totfact> 0.84819258E+00</totfact>
</mgrwt>
</event>
<event>
12    3  0.4769008E-008  0.1357710E+04  0.7818608E-02  0.8985012E-01
         -1   -1    0    0    0  501 -0.00000000000E+00  0.00000000000E+00  0.62082984774E+03  0.62082984774E+03  0.00000000000E+00 0.  1.
          1   -1    0    0  501    0  0.00000000000E+00 -0.00000000000E+00 -0.74230394514E+03  0.74230394514E+03  0.00000000000E+00 0. -1.
         23    2    1    2    0    0 -0.26155716118E+03  0.25170449715E+03  0.10740455350E+03  0.38931989458E+03  0.90922713083E+02 0.  0.
        254    2    1    2    0    0  0.26155716118E+03 -0.25170449715E+03 -0.22887865091E+03  0.97381389830E+03  0.87416289628E+03 0.  0.
         23    2    4    4    0    0 -0.21031673389E+03 -0.36340144431E+03  0.16062748972E+01  0.42975882933E+03  0.91631506517E+02 0.  0.
         23    2    4    4    0    0  0.47187389507E+03  0.11169694716E+03 -0.23048492581E+03  0.54405506896E+03  0.87928585704E+02 0.  0.
          2    1    3    3  502    0 -0.15591879868E+03  0.13553930309E+03  0.10621554304E+03  0.23230005606E+03  0.00000000000E+00 0.  1.
         -2    1    3    3    0  502 -0.10563836250E+03  0.11616519406E+03  0.11890104641E+01  0.15701983852E+03  0.00000000000E+00 0. -1.
         13    1    5    5    0    0 -0.12147046060E+03 -0.27009838765E+03  0.30496748127E+02  0.29772178868E+03  0.00000000000E+00 0. -1.
        -13    1    5    5    0    0 -0.88846273293E+02 -0.93303056667E+02 -0.28890473230E+02  0.13203704065E+03  0.00000000000E+00 0.  1.
          3    1    6    6  503    0  0.87836103753E+02  0.56926759004E+02 -0.55795640358E+02  0.11861277543E+03  0.00000000000E+00 0. -1.
         -3    1    6    6    0  503  0.38403779132E+03  0.54770188160E+02 -0.17468928545E+03  0.42544229353E+03  0.00000000000E+00 0.  1.
<mgrwt>
<rscale>  0 0.13577105E+04</rscale>
<asrwt>0</asrwt>
<pdfrwt beam="1">  1        1 0.11420061E+00 0.13577105E+04</pdfrwt>
<pdfrwt beam="2">  1       -1 0.95512284E-01 0.13577105E+04</pdfrwt>
<totfact> 0.25769614E+01</totfact>
</mgrwt>
</event>
<event>
12    3  0.4769008E-008  0.1227147E+04  0.7818608E-02  0.9089421E-01
         -1   -1    0    0    0  501 -0.00000000000E+00  0.00000000000E+00  0.22060365333E+03  0.22060365333E+03  0.00000000000E+00 0.  1.
          1   -1    0    0  501    0  0.00000000000E+00 -0.00000000000E+00 -0.17065552712E+04  0.17065552712E+04  0.00000000000E+00 0. -1.
         23    2    1    2    0    0  0.25171754833E+03  0.10083358202E+03 -0.35852396245E+03  0.45876000163E+03  0.91608798965E+02 0.  0.
        254    2    1    2    0    0 -0.25171754833E+03 -0.10083358202E+03 -0.11274276554E+04  0.14683989229E+04  0.90087354449E+03 0.  0.
         23    2    4    4    0    0  0.31993796911E+03  0.59334354530E+02 -0.36849677348E+03  0.49984437265E+03  0.90408268960E+02 0.  0.
         23    2    4    4    0    0 -0.57165551744E+03 -0.16016793655E+03 -0.75893088195E+03  0.96855455026E+03  0.98377003081E+02 0.  0.
          1    1    3    3  502    0  0.24228632788E+03  0.71535194402E+02 -0.33711417674E+03  0.42126703749E+03  0.00000000000E+00 0. -1.
         -1    1    3    3    0  502  0.94312204456E+01  0.29298387614E+02 -0.21409785704E+02  0.37492964137E+02  0.00000000000E+00 0.  1.
         13    1    5    5    0    0  0.47921647586E+02 -0.10241548569E+02 -0.99967478481E+02  0.11133225219E+03  0.00000000000E+00 0. -1.
        -13    1    5    5    0    0  0.27201632153E+03  0.69575903099E+02 -0.26852929500E+03  0.38851212046E+03  0.00000000000E+00 0.  1.
          1    1    6    6  503    0 -0.15780449338E+03 -0.90902307457E+02 -0.22432178192E+03  0.28893900649E+03  0.00000000000E+00 0. -1.
         -1    1    6    6    0  503 -0.41385102406E+03 -0.69265629089E+02 -0.53460910003E+03  0.67961554377E+03  0.00000000000E+00 0.  1.
<mgrwt>
<rscale>  0 0.12271468E+04</rscale>
<asrwt>0</asrwt>
<pdfrwt beam="1">  1        1 0.26254696E+00 0.12271468E+04</pdfrwt>
<pdfrwt beam="2">  1       -1 0.33939025E-01 0.12271468E+04</pdfrwt>
<totfact> 0.38219015E+01</totfact>
</mgrwt>
</event>
<event>
12    3  0.4769008E-008  0.1609933E+04  0.7818608E-02  0.8814469E-01
          2   -1    0    0  501    0  0.00000000000E+00  0.00000000000E+00  0.14075002152E+04  0.14075002152E+04  0.00000000000E+00 0. -1.
         -2   -1    0    0    0  501 -0.00000000000E+00 -0.00000000000E+00 -0.46037011986E+03  0.46037011986E+03  0.00000000000E+00 0.  1.
         23    2    1    2    0    0 -0.22869667290E+03  0.43929493549E+03  0.54331496781E+02  0.50642372508E+03  0.90724138153E+02 0.  0.
        254    2    1    2    0    0  0.22869667290E+03 -0.43929493549E+03  0.89279859855E+03  0.13614466100E+04  0.90064717046E+03 0.  0.
         23    2    4    4    0    0  0.43870594866E+03 -0.26763800374E+03  0.11765579621E+03  0.53522458373E+03  0.92355065990E+02 0.  0.
         23    2    4    4    0    0 -0.21000927576E+03 -0.17165693175E+03  0.77514280234E+03  0.82622202623E+03  0.90699914466E+02 0.  0.
          1    1    3    3  502    0 -0.41811613219E+02  0.14315225186E+03 -0.13466802571E+02  0.14974021832E+03  0.00000000000E+00 0. -1.
         -1    1    3    3    0  502 -0.18688505968E+03  0.29614268363E+03  0.67798299352E+02  0.35668350676E+03  0.00000000000E+00 0.  1.
         13    1    5    5    0    0  0.42774566397E+03 -0.27389261066E+03  0.12107147610E+03  0.52215114435E+03  0.00000000000E+00 0.  1.
        -13    1    5    5    0    0  0.10960284693E+02  0.62546069187E+01 -0.34156798929E+01  0.13073439386E+02  0.00000000000E+00 0. -1.
          4    1    6    6  503    0 -0.10189161739E+03 -0.13925761265E+03  0.44257504878E+03  0.47502342908E+03  0.00000000000E+00 0. -1.
         -4    1    6    6    0  503 -0.10811765837E+03 -0.32399319101E+02  0.33256775356E+03  0.35119859715E+03  0.00000000000E+00 0.  1.
<mgrwt>
<rscale>  0 0.16099330E+04</rscale>
<asrwt>0</asrwt>
<pdfrwt beam="1">  1        2 0.21653849E+00 0.16099330E+04</pdfrwt>
<pdfrwt beam="2">  1       -2 0.70826173E-01 0.16099330E+04</pdfrwt>
<totfact> 0.24873844E+01</totfact>
</mgrwt>
</event>
<event>
12    3  0.4769008E-008  0.1504089E+04  0.7818608E-02  0.8881738E-01
         -2   -1    0    0    0  501 -0.00000000000E+00  0.00000000000E+00  0.18087160251E+03  0.18087160251E+03  0.00000000000E+00 0.  1.
          2   -1    0    0  501    0  0.00000000000E+00 -0.00000000000E+00 -0.31269199519E+04  0.31269199519E+04  0.00000000000E+00 0. -1.
         23    2    1    2    0    0  0.43851997611E+03 -0.45022105129E+02 -0.13516901647E+04  0.14246397980E+04  0.90584177719E+02 0.  0.
        254    2    1    2    0    0 -0.43851997611E+03  0.45022105129E+02 -0.15943581846E+04  0.18831517564E+04  0.89997542035E+03 0.  0.
         23    2    4    4    0    0 -0.23880156841E+03  0.34186074626E+03 -0.26220155945E+03  0.50077828136E+03  0.90190190137E+02 0.  0.
         23    2    4    4    0    0 -0.19971840770E+03 -0.29683864113E+03 -0.13321566252E+04  0.13823734750E+04  0.91184040086E+02 0.  0.
          3    1    3    3  502    0  0.40508155392E+03 -0.42236299470E+02 -0.11457585839E+04  0.12159924765E+04  0.00000000000E+00 0. -1.
         -3    1    3    3    0  502  0.33438422194E+02 -0.27858056590E+01 -0.20593158084E+03  0.20864732153E+03  0.00000000000E+00 0.  1.
         13    1    5    5    0    0 -0.84006905774E+02  0.94168672586E+02 -0.35652409249E+02  0.13113349458E+03  0.00000000000E+00 0.  1.
        -13    1    5    5    0    0 -0.15479466264E+03  0.24769207367E+03 -0.22654915020E+03  0.36964478678E+03  0.00000000000E+00 0. -1.
          1    1    6    6  503    0  0.42022353340E+01 -0.43180390624E+02 -0.13795823076E+03  0.14461908017E+03  0.00000000000E+00 0. -1.
         -1    1    6    6    0  503 -0.20392064304E+03 -0.25365825050E+03 -0.11941983944E+04  0.12377543948E+04  0.00000000000E+00 0.  1.
<mgrwt>
<rscale>  0 0.15040891E+04</rscale>
<asrwt>0</asrwt>
<pdfrwt beam="1">  1        2 0.48106461E+00 0.15040891E+04</pdfrwt>
<pdfrwt beam="2">  1       -2 0.27826400E-01 0.15040891E+04</pdfrwt>
<totfact> 0.16616824E+01</totfact>
</mgrwt>
</event>
<event>
12    3  0.4769008E-008  0.1799235E+04  0.7818608E-02  0.8706707E-01
          2   -1    0    0  501    0  0.00000000000E+00  0.00000000000E+00  0.29374533207E+04  0.29374533207E+04  0.00000000000E+00 0. -1.
         -2   -1    0    0    0  501 -0.00000000000E+00 -0.00000000000E+00 -0.27551465095E+03  0.27551465095E+03  0.00000000000E+00 0.  1.
         23    2    1    2    0    0  0.40882404850E+03 -0.53234409041E+02  0.62752661018E+02  0.42705310787E+03  0.92007910203E+02 0.  0.
        254    2    1    2    0    0 -0.40882404850E+03  0.53234409041E+02  0.25991860087E+04  0.27859148637E+04  0.91410213612E+03 0.  0.
         23    2    4    4    0    0 -0.63340797287E+02  0.19197660988E+03  0.77407841274E+02  0.23518717323E+03  0.91945403484E+02 0.  0.
         23    2    4    4    0    0 -0.34548325121E+03 -0.13874220084E+03  0.25217781674E+04  0.25507276905E+04  0.90766459961E+02 0.  0.
          4    1    3    3  502    0 -0.88637061936E+00 -0.94988426773E+01 -0.25433081502E+01  0.98733014453E+01  0.00000000000E+00 0. -1.
         -4    1    3    3    0  502  0.40971041912E+03 -0.43735566364E+02  0.65295969168E+02  0.41717980642E+03  0.00000000000E+00 0.  1.
         13    1    5    5    0    0 -0.25514485986E+02  0.18051575031E+03  0.67823898434E+02  0.19451736762E+03  0.00000000000E+00 0. -1.
        -13    1    5    5    0    0 -0.37826311301E+02  0.11460859568E+02  0.95839428399E+01  0.40669805619E+02  0.00000000000E+00 0.  1.
          1    1    6    6  503    0 -0.33910265728E+03 -0.14310157393E+03  0.23385876379E+04  0.23673742443E+04  0.00000000000E+00 0. -1.
         -1    1    6    6    0  503 -0.63805939301E+01  0.43593730893E+01  0.18319052954E+03  0.18335344618E+03  0.00000000000E+00 0.  1.
<mgrwt>
<rscale>  0 0.17992348E+04</rscale>
<asrwt>0</asrwt>
<pdfrwt beam="1">  1        2 0.45191587E+00 0.17992348E+04</pdfrwt>
<pdfrwt beam="2">  1       -2 0.42386871E-01 0.17992348E+04</pdfrwt>
<totfact> 0.95206465E+00</totfact>
</mgrwt>
</event>
<event>
12    3  0.4769008E-008  0.1344270E+04  0.7818608E-02  0.8995177E-01
          1   -1    0    0  501    0  0.00000000000E+00  0.00000000000E+00  0.14242372480E+04  0.14242372480E+04  0.00000000000E+00 0. -1.
         -1   -1    0    0    0  501 -0.00000000000E+00 -0.00000000000E+00 -0.31719816250E+03  0.31719816250E+03  0.00000000000E+00 0.  1.
         23    2    1    2    0    0 -0.32240982260E+03  0.95009922086E+02  0.31687406997E+03  0.47357154051E+03  0.10433527090E+03 0.  0.
        254    2    1    2    0    0  0.32240982260E+03 -0.95009922086E+02  0.79016501549E+03  0.12678638699E+04  0.93281459144E+03 0.  0.
         23    2    4    4    0    0  0.53064485548E+03 -0.31427969097E+03  0.70317865575E+03  0.93976686359E+03  0.91355619328E+02 0.  0.
         23    2    4    4    0    0 -0.20823503288E+03  0.21926976888E+03  0.86986359737E+02  0.32809700636E+03  0.92951376173E+02 0.  0.
          3    1    3    3  502    0 -0.19860265827E+03  0.52646215718E+02  0.25871202620E+03  0.33037335305E+03  0.00000000000E+00 0. -1.
         -3    1    3    3    0  502 -0.12380716433E+03  0.42363706368E+02  0.58162043766E+02  0.14319818746E+03  0.00000000000E+00 0.  1.
         13    1    5    5    0    0  0.41702486058E+03 -0.28509460416E+03  0.59067793093E+03  0.77723168088E+03  0.00000000000E+00 0.  1.
        -13    1    5    5    0    0  0.11361999491E+03 -0.29185086805E+02  0.11250072482E+03  0.16253518271E+03  0.00000000000E+00 0. -1.
          1    1    6    6  503    0 -0.30181885133E+02  0.30348379036E+02  0.50086928776E+02  0.65883766851E+02  0.00000000000E+00 0. -1.
         -1    1    6    6    0  503 -0.17805314775E+03  0.18892138985E+03  0.36899430962E+02  0.26221323950E+03  0.00000000000E+00 0.  1.
<mgrwt>
<rscale>  0 0.13442700E+04</rscale>
<asrwt>0</asrwt>
<pdfrwt beam="1">  1        1 0.21911342E+00 0.13442700E+04</pdfrwt>
<pdfrwt beam="2">  1       -1 0.48799718E-01 0.13442700E+04</pdfrwt>
<totfact> 0.30407566E+01</totfact>
</mgrwt>
</event>
<event>
12    3  0.4769008E-008  0.1532738E+04  0.7818608E-02  0.8862970E-01
          2   -1    0    0  501    0  0.00000000000E+00  0.00000000000E+00  0.12855386046E+04  0.12855386046E+04  0.00000000000E+00 0. -1.
         -2   -1    0    0    0  501 -0.00000000000E+00 -0.00000000000E+00 -0.45686814831E+03  0.45686814831E+03  0.00000000000E+00 0.  1.
         23    2    1    2    0    0  0.24301830619E+02  0.67048860559E+02  0.80705102817E+03  0.81518424600E+03  0.90043679308E+02 0.  0.
        254    2    1    2    0    0 -0.24301830619E+02 -0.67048860559E+02  0.21619428103E+02  0.92722250689E+03  0.92422294331E+03 0.  0.
         23    2    4    4    0    0 -0.82111034731E+02  0.22436136057E+03  0.37675680887E+03  0.45558281199E+03  0.92356718247E+02 0.  0.
         23    2    4    4    0    0  0.57809204112E+02 -0.29141022113E+03 -0.35513738077E+03  0.47163969491E+03  0.89775394909E+02 0.  0.
          1    1    3    3  502    0 -0.96127448200E+01  0.35964621935E+01  0.48856333460E+03  0.48867112798E+03  0.00000000000E+00 0. -1.
         -1    1    3    3    0  502  0.33914575439E+02  0.63452398366E+02  0.31848769357E+03  0.32651311802E+03  0.00000000000E+00 0.  1.
         13    1    5    5    0    0 -0.27912646109E+02  0.17502009843E+03  0.21977471247E+03  0.28233326922E+03  0.00000000000E+00 0.  1.
        -13    1    5    5    0    0 -0.54198388622E+02  0.49341262146E+02  0.15698209640E+03  0.17324954277E+03  0.00000000000E+00 0. -1.
          1    1    6    6  503    0  0.44774055547E+02 -0.28958237274E+03 -0.31888059952E+03  0.43306755062E+03  0.00000000000E+00 0.  1.
         -1    1    6    6    0  503  0.13035148565E+02 -0.18278483886E+01 -0.36256781253E+02  0.38572144284E+02  0.00000000000E+00 0. -1.
<mgrwt>
<rscale>  0 0.15327383E+04</rscale>
<asrwt>0</asrwt>
<pdfrwt beam="1">  1        2 0.19777517E+00 0.15327383E+04</pdfrwt>
<pdfrwt beam="2">  1       -2 0.70287408E-01 0.15327383E+04</pdfrwt>
<totfact> 0.29932797E+01</totfact>
</mgrwt>
</event>
<event>
12    3  0.4769008E-008  0.2040361E+04  0.7818608E-02  0.8587980E-01
          2   -1    0    0  501    0  0.00000000000E+00  0.00000000000E+00  0.13205458569E+04  0.13205458569E+04  0.00000000000E+00 0. -1.
         -2   -1    0    0    0  501 -0.00000000000E+00 -0.00000000000E+00 -0.78813513164E+03  0.78813513164E+03  0.00000000000E+00 0.  1.
         23    2    1    2    0    0 -0.21301677984E+03 -0.72414705223E+03 -0.95700481197E+02  0.76624084269E+03  0.90561278485E+02 0.  0.
        254    2    1    2    0    0  0.21301677984E+03  0.72414705223E+03  0.62811120647E+03  0.13424401459E+04  0.91534515663E+03 0.  0.
         23    2    4    4    0    0 -0.33178506542E+03  0.35546332852E+03  0.12801962091E+03  0.51094897584E+03  0.90798265474E+02 0.  0.
         23    2    4    4    0    0  0.54480184526E+03  0.36868372371E+03  0.50009158555E+03  0.83149117002E+03  0.92462063299E+02 0.  0.
          4    1    3    3  502    0  0.35590290119E+01 -0.17758599102E+02 -0.14004158980E+02  0.22894344243E+02  0.00000000000E+00 0. -1.
         -4    1    3    3    0  502 -0.21657580885E+03 -0.70638845312E+03 -0.81696322217E+02  0.74334649844E+03  0.00000000000E+00 0.  1.
         13    1    5    5    0    0 -0.23153645309E+03  0.22231413829E+03  0.43020492214E+02  0.32385717214E+03  0.00000000000E+00 0.  1.
        -13    1    5    5    0    0 -0.10024861233E+03  0.13314919023E+03  0.84999128698E+02  0.18709180370E+03  0.00000000000E+00 0. -1.
          4    1    6    6  503    0  0.53659110734E+03  0.35181897405E+03  0.49875034404E+03  0.81268598651E+03  0.00000000000E+00 0. -1.
         -4    1    6    6    0  503  0.82107379162E+01  0.16864749656E+02  0.13412415135E+01  0.18805183511E+02  0.00000000000E+00 0.  1.
<mgrwt>
<rscale>  0 0.20403613E+04</rscale>
<asrwt>0</asrwt>
<pdfrwt beam="1">  1        2 0.20316090E+00 0.20403613E+04</pdfrwt>
<pdfrwt beam="2">  1       -2 0.12125156E+00 0.20403613E+04</pdfrwt>
<totfact> 0.77074770E+00</totfact>
</mgrwt>
</event>
<event>
12    3  0.4769008E-008  0.2194371E+04  0.7818608E-02  0.8520775E-01
          2   -1    0    0  501    0  0.00000000000E+00  0.00000000000E+00  0.21697449168E+04  0.21697449168E+04  0.00000000000E+00 0.  1.
         -2   -1    0    0    0  501 -0.00000000000E+00 -0.00000000000E+00 -0.55481911105E+03  0.55481911105E+03  0.00000000000E+00 0. -1.
         23    2    1    2    0    0  0.66883009827E+02 -0.50516256746E+03  0.16087084376E+04  0.16892390937E+04  0.76963121102E+02 0.  0.
        254    2    1    2    0    0 -0.66883009827E+02  0.50516256746E+03  0.62173681198E+01  0.10353249341E+04  0.90121945547E+03 0.  0.
         23    2    4    4    0    0 -0.27234745209E+03  0.63455915131E+03  0.18496939707E+03  0.72067386684E+03  0.91206870996E+02 0.  0.
         23    2    4    4    0    0  0.20546444226E+03 -0.12939658385E+03 -0.17875202895E+03  0.31465106725E+03  0.89966067629E+02 0.  0.
          4    1    3    3  502    0  0.34409200845E+02 -0.15612600718E+03  0.40128940205E+03  0.43196354871E+03  0.00000000000E+00 0. -1.
         -4    1    3    3    0  502  0.32473808982E+02 -0.34903656029E+03  0.12074190355E+04  0.12572755450E+04  0.00000000000E+00 0.  1.
         13    1    5    5    0    0 -0.64999596570E+02  0.23612501618E+03  0.94424414598E+02  0.26248036287E+03  0.00000000000E+00 0.  1.
        -13    1    5    5    0    0 -0.20734785552E+03  0.39843413513E+03  0.90544982472E+02  0.45819350396E+03  0.00000000000E+00 0. -1.
          4    1    6    6  503    0  0.20427978559E+03 -0.97194621678E+02 -0.16267148214E+03  0.27863782296E+03  0.00000000000E+00 0. -1.
         -4    1    6    6    0  503  0.11846566775E+01 -0.32201962168E+02 -0.16080546814E+02  0.36013244296E+02  0.00000000000E+00 0.  1.
<mgrwt>
<rscale>  0 0.21943709E+04</rscale>
<asrwt>0</asrwt>
<pdfrwt beam="1">  1        2 0.33380691E+00 0.21943709E+04</pdfrwt>
<pdfrwt beam="2">  1       -2 0.85356787E-01 0.21943709E+04</pdfrwt>
<totfact> 0.58601112E+00</totfact>
</mgrwt>
</event>
<event>
12    3  0.4769008E-008  0.1843305E+04  0.7818608E-02  0.8683603E-01
          2   -1    0    0  501    0  0.00000000000E+00  0.00000000000E+00  0.43385931917E+04  0.43385931917E+04  0.00000000000E+00 0.  1.
         -2   -1    0    0    0  501 -0.00000000000E+00 -0.00000000000E+00 -0.19578783899E+03  0.19578783899E+03  0.00000000000E+00 0. -1.
         23    2    1    2    0    0 -0.32745553636E+03  0.67190734384E+02  0.77060224674E+02  0.35682983560E+03  0.98221842120E+02 0.  0.
        254    2    1    2    0    0  0.32745553636E+03 -0.67190734384E+02  0.40657451280E+04  0.41775511951E+04  0.89994934210E+03 0.  0.
         23    2    4    4    0    0  0.10946720767E+03 -0.39033659335E+02  0.51983897486E+02  0.15677824768E+03  0.91489875021E+02 0.  0.
         23    2    4    4    0    0  0.21798832869E+03 -0.28157075049E+02  0.40137612305E+04  0.40207729474E+04  0.89577600112E+02 0.  0.
          2    1    3    3  502    0 -0.23938195801E+03  0.76400246874E+02  0.21291930057E+02  0.25217863872E+03  0.00000000000E+00 0. -1.
         -2    1    3    3    0  502 -0.88073578349E+02 -0.92095124893E+01  0.55768294617E+02  0.10465119688E+03  0.00000000000E+00 0.  1.
         13    1    5    5    0    0  0.10487479346E+03  0.32021850466E+01  0.31085426869E+02  0.10943162274E+03  0.00000000000E+00 0. -1.
        -13    1    5    5    0    0  0.45924142110E+01 -0.42235844382E+02  0.20898470617E+02  0.47346624939E+02  0.00000000000E+00 0.  1.
          2    1    6    6  503    0  0.13022699650E+03  0.20465173905E+02  0.26820125147E+04  0.26852502719E+04  0.00000000000E+00 0. -1.
         -2    1    6    6    0  503  0.87761332190E+02 -0.48622248954E+02  0.13317487159E+04  0.13355226755E+04  0.00000000000E+00 0.  1.
<mgrwt>
<rscale>  0 0.18433055E+04</rscale>
<asrwt>0</asrwt>
<pdfrwt beam="1">  1        2 0.66747581E+00 0.18433055E+04</pdfrwt>
<pdfrwt beam="2">  1       -2 0.30121209E-01 0.18433055E+04</pdfrwt>
<totfact> 0.17066109E+00</totfact>
</mgrwt>
</event>
<event>
12    3  0.4769008E-008  0.1854701E+04  0.7818608E-02  0.8677739E-01
          1   -1    0    0  501    0  0.00000000000E+00  0.00000000000E+00  0.34642892277E+04  0.34642892277E+04  0.00000000000E+00 0. -1.
         -1   -1    0    0    0  501 -0.00000000000E+00 -0.00000000000E+00 -0.24824114914E+03  0.24824114914E+03  0.00000000000E+00 0.  1.
         23    2    1    2    0    0 -0.73354267321E+02 -0.36473514747E+03  0.24192699222E+04  0.24494358452E+04  0.91958832860E+02 0.  0.
        254    2    1    2    0    0  0.73354267321E+02  0.36473514747E+03  0.79677815636E+03  0.12630945316E+04  0.90671924491E+03 0.  0.
         23    2    4    4    0    0  0.23623913290E+03 -0.10934119452E+03  0.69058680688E+03  0.74342371594E+03  0.89466523691E+02 0.  0.
         23    2    4    4    0    0 -0.16288486558E+03  0.47407634199E+03  0.10619134948E+03  0.51967081571E+03  0.86610025535E+02 0.  0.
          4    1    3    3  502    0 -0.28373561767E+02 -0.28555172604E+03  0.16465610834E+04  0.16713791457E+04  0.00000000000E+00 0. -1.
         -4    1    3    3    0  502 -0.44980705553E+02 -0.79183421430E+02  0.77270883882E+03  0.77805669953E+03  0.00000000000E+00 0.  1.
         13    1    5    5    0    0  0.20938896475E+02 -0.13142664712E+02  0.17164099984E+03  0.17341222520E+03  0.00000000000E+00 0.  1.
        -13    1    5    5    0    0  0.21530023643E+03 -0.96198529807E+02  0.51894580703E+03  0.57001149074E+03  0.00000000000E+00 0. -1.
          4    1    6    6  503    0 -0.17312005038E+03  0.45746435301E+03  0.10047810461E+03  0.49933959950E+03  0.00000000000E+00 0. -1.
         -4    1    6    6    0  503  0.10235184797E+02  0.16611988977E+02  0.57132448762E+01  0.20331216211E+02  0.00000000000E+00 0.  1.
<mgrwt>
<rscale>  0 0.18547012E+04</rscale>
<asrwt>0</asrwt>
<pdfrwt beam="1">  1        1 0.53296754E+00 0.18547012E+04</pdfrwt>
<pdfrwt beam="2">  1       -1 0.38190949E-01 0.18547012E+04</pdfrwt>
<totfact> 0.16688904E+00</totfact>
</mgrwt>
</event>
<event>
12    3  0.4769008E-008  0.2204509E+04  0.7818608E-02  0.8516554E-01
         -2   -1    0    0    0  501 -0.00000000000E+00  0.00000000000E+00  0.15061694186E+04  0.15061694186E+04  0.00000000000E+00 0.  1.
          2   -1    0    0  501    0  0.00000000000E+00 -0.00000000000E+00 -0.80665922411E+03  0.80665922411E+03  0.00000000000E+00 0. -1.
         23    2    1    2    0    0 -0.81057402428E+03 -0.17024887535E+03  0.69643361088E+03  0.10861393162E+04  0.93080133944E+02 0.  0.
        254    2    1    2    0    0  0.81057402428E+03  0.17024887535E+03  0.30765836405E+01  0.12266893266E+04  0.90484380432E+03 0.  0.
         23    2    4    4    0    0 -0.21635368803E+02 -0.17240739518E+03  0.22124957155E+03  0.29589610076E+03  0.91710034544E+02 0.  0.
         23    2    4    4    0    0  0.83220939309E+03  0.34265627053E+03 -0.21817298791E+03  0.93079322583E+03  0.93759175134E+02 0.  0.
          3    1    3    3  502    0 -0.79120577056E+03 -0.16592197092E+03  0.65597813156E+03  0.10410782780E+04  0.00000000000E+00 0. -1.
         -3    1    3    3    0  502 -0.19368253723E+02 -0.43269044322E+01  0.40455479322E+02  0.45061038175E+02  0.00000000000E+00 0.  1.
         13    1    5    5    0    0  0.10251182440E+02  0.80875510678E+01  0.17521849968E+02  0.21852012493E+02  0.00000000000E+00 0. -1.
        -13    1    5    5    0    0 -0.31886551243E+02 -0.18049494625E+03  0.20372772158E+03  0.27404408827E+03  0.00000000000E+00 0.  1.
          4    1    6    6  503    0  0.12895840335E+03  0.69500781315E+02 -0.68209324290E+02  0.16159560736E+03  0.00000000000E+00 0. -1.
         -4    1    6    6    0  503  0.70325098973E+03  0.27315548922E+03 -0.14996366362E+03  0.76919761847E+03  0.00000000000E+00 0.  1.
<mgrwt>
<rscale>  0 0.22045094E+04</rscale>
<asrwt>0</asrwt>
<pdfrwt beam="1">  1        2 0.12410142E+00 0.22045094E+04</pdfrwt>
<pdfrwt beam="2">  1       -2 0.23171837E+00 0.22045094E+04</pdfrwt>
<totfact> 0.25953937E+00</totfact>
</mgrwt>
</event>
<event>
12    3  0.4769008E-008  0.1692599E+04  0.7818608E-02  0.8765597E-01
          1   -1    0    0  501    0  0.00000000000E+00  0.00000000000E+00  0.58604094940E+03  0.58604094940E+03  0.00000000000E+00 0. -1.
         -1   -1    0    0    0  501 -0.00000000000E+00 -0.00000000000E+00 -0.12221374335E+04  0.12221374335E+04  0.00000000000E+00 0.  1.
         23    2    1    2    0    0  0.10874140585E+03 -0.36447075162E+03 -0.70592987952E+03  0.80703148441E+03  0.91099944562E+02 0.  0.
        254    2    1    2    0    0 -0.10874140585E+03  0.36447075162E+03  0.69833395403E+02  0.10011468985E+04  0.92344723030E+03 0.  0.
         23    2    4    4    0    0 -0.21055060060E+03 -0.26695626952E+03  0.48458040026E+02  0.35515448110E+03  0.90494853730E+02 0.  0.
         23    2    4    4    0    0  0.10180919475E+03  0.63142702113E+03  0.21375355377E+02  0.64599241741E+03  0.88227560211E+02 0.  0.
          2    1    3    3  502    0  0.77283625693E+02 -0.28878048988E+03 -0.61983046323E+03  0.68815458531E+03  0.00000000000E+00 0.  1.
         -2    1    3    3    0  502  0.31457780157E+02 -0.75690261734E+02 -0.86099416289E+02  0.11887689910E+03  0.00000000000E+00 0. -1.
         13    1    5    5    0    0  0.47958298177E+01 -0.17138445396E+02  0.15658735450E+02  0.23704900129E+02  0.00000000000E+00 0. -1.
        -13    1    5    5    0    0 -0.21534643042E+03 -0.24981782412E+03  0.32799304577E+02  0.33144958097E+03  0.00000000000E+00 0.  1.
          3    1    6    6  503    0 -0.14305623495E+02  0.60252961571E+02  0.11884496603E+02  0.63058001088E+02  0.00000000000E+00 0. -1.
         -3    1    6    6    0  503  0.11611481825E+03  0.57117405956E+03  0.94908587742E+01  0.58293441632E+03  0.00000000000E+00 0.  1.
<mgrwt>
<rscale>  0 0.16925987E+04</rscale>
<asrwt>0</asrwt>
<pdfrwt beam="1">  1        1 0.90160148E-01 0.16925987E+04</pdfrwt>
<pdfrwt beam="2">  1       -1 0.18802114E+00 0.16925987E+04</pdfrwt>
<totfact> 0.61549715E+00</totfact>
</mgrwt>
</event>
<event>
12    3  0.4769008E-008  0.1687496E+04  0.7818608E-02  0.8768528E-01
          2   -1    0    0  501    0  0.00000000000E+00  0.00000000000E+00  0.13739121062E+04  0.13739121062E+04  0.00000000000E+00 0.  1.
         -2   -1    0    0    0  501 -0.00000000000E+00 -0.00000000000E+00 -0.51816326535E+03  0.51816326535E+03  0.00000000000E+00 0. -1.
         23    2    1    2    0    0  0.15816065536E+03 -0.24253748078E+03 -0.28249734281E+03  0.41394124069E+03  0.87768898601E+02 0.  0.
        254    2    1    2    0    0 -0.15816065536E+03  0.24253748078E+03  0.11382461836E+04  0.14781341308E+04  0.89746137060E+03 0.  0.
         23    2    4    4    0    0 -0.50657276340E+03  0.19455921279E+03  0.49991442919E+03  0.74346946250E+03  0.91450277523E+02 0.  0.
         23    2    4    4    0    0  0.34841210804E+03  0.47978267984E+02  0.63833175445E+03  0.73466466834E+03  0.92584204643E+02 0.  0.
          3    1    3    3  502    0  0.12579365687E+03 -0.22291717324E+03 -0.20588222271E+03  0.32848683362E+03  0.00000000000E+00 0. -1.
         -3    1    3    3    0  502  0.32366998486E+02 -0.19620307538E+02 -0.76615120104E+02  0.85454407069E+02  0.00000000000E+00 0.  1.
         13    1    5    5    0    0 -0.24352566664E+03  0.13813923674E+03  0.28040287588E+03  0.39624862377E+03  0.00000000000E+00 0.  1.
        -13    1    5    5    0    0 -0.26304709675E+03  0.56419976050E+02  0.21951155332E+03  0.34722083873E+03  0.00000000000E+00 0. -1.
          3    1    6    6  503    0  0.27518717725E+03  0.39877309431E+02  0.41540086720E+03  0.49987604743E+03  0.00000000000E+00 0. -1.
         -3    1    6    6    0  503  0.73224930790E+02  0.81009585527E+01  0.22293088725E+03  0.23478862091E+03  0.00000000000E+00 0.  1.
<mgrwt>
<rscale>  0 0.16874961E+04</rscale>
<asrwt>0</asrwt>
<pdfrwt beam="1">  1        2 0.21137109E+00 0.16874961E+04</pdfrwt>
<pdfrwt beam="2">  1       -2 0.79717426E-01 0.16874961E+04</pdfrwt>
<totfact> 0.19879375E+01</totfact>
</mgrwt>
</event>
<event>
12    3  0.4769008E-008  0.1500361E+04  0.7818608E-02  0.8884213E-01
          2   -1    0    0  501    0  0.00000000000E+00  0.00000000000E+00  0.17597646749E+04  0.17597646749E+04  0.00000000000E+00 0.  1.
         -2   -1    0    0    0  501 -0.00000000000E+00 -0.00000000000E+00 -0.31979878114E+03  0.31979878114E+03  0.00000000000E+00 0. -1.
         23    2    1    2    0    0  0.20657663263E+03  0.12712778318E+03 -0.94233252065E+02  0.27583327256E+03  0.91480653993E+02 0.  0.
        254    2    1    2    0    0 -0.20657663263E+03 -0.12712778318E+03  0.15341991458E+04  0.18037301835E+04  0.91697337877E+03 0.  0.
         23    2    4    4    0    0 -0.22838646748E+03  0.25740656570E+03  0.19239824778E+03  0.40459439726E+03  0.90890164220E+02 0.  0.
         23    2    4    4    0    0  0.21809834852E+02 -0.38453434887E+03  0.13418008981E+04  0.13991357862E+04  0.93856081037E+02 0.  0.
          2    1    3    3  502    0  0.17235024659E+03  0.57641895975E+02 -0.68436428598E+02  0.19419253443E+03  0.00000000000E+00 0. -1.
         -2    1    3    3    0  502  0.34226386042E+02  0.69485887201E+02 -0.25796823467E+02  0.81640738131E+02  0.00000000000E+00 0.  1.
         13    1    5    5    0    0 -0.30129104870E+02  0.81176677708E+02  0.74852394423E+02  0.11445652849E+03  0.00000000000E+00 0. -1.
        -13    1    5    5    0    0 -0.19825736261E+03  0.17622988799E+03  0.11754585336E+03  0.29013786876E+03  0.00000000000E+00 0.  1.
          1    1    6    6  503    0  0.19479983432E+02 -0.80349918355E+02  0.17845276059E+03  0.19667477443E+03  0.00000000000E+00 0. -1.
         -1    1    6    6    0  503  0.23298514197E+01 -0.30418443052E+03  0.11633481375E+04  0.12024610118E+04  0.00000000000E+00 0.  1.
<mgrwt>
<rscale>  0 0.15003608E+04</rscale>
<asrwt>0</asrwt>
<pdfrwt beam="1">  1        2 0.27073302E+00 0.15003608E+04</pdfrwt>
<pdfrwt beam="2">  1       -2 0.49199813E-01 0.15003608E+04</pdfrwt>
<totfact> 0.34323389E+01</totfact>
</mgrwt>
</event>
<event>
12    3  0.4769008E-008  0.2234696E+04  0.7818608E-02  0.8504124E-01
         -2   -1    0    0    0  501 -0.00000000000E+00  0.00000000000E+00  0.63706909768E+03  0.63706909768E+03  0.00000000000E+00 0.  1.
          2   -1    0    0  501    0  0.00000000000E+00 -0.00000000000E+00 -0.19597029633E+04  0.19597029633E+04  0.00000000000E+00 0. -1.
         23    2    1    2    0    0  0.58009889528E+03 -0.54314550871E+03  0.18226549784E+02  0.80070521007E+03  0.96306045326E+02 0.  0.
        254    2    1    2    0    0 -0.58009889528E+03  0.54314550871E+03 -0.13408604154E+04  0.17960668509E+04  0.89242798446E+03 0.  0.
         23    2    4    4    0    0 -0.44377153969E+03  0.61189066104E+03 -0.44300916070E+03  0.88062264099E+03  0.88858082702E+02 0.  0.
         23    2    4    4    0    0 -0.13632735559E+03 -0.68745152324E+02 -0.89785125473E+03  0.91544420995E+03  0.92683235070E+02 0.  0.
          1    1    3    3  502    0  0.40652340148E+03 -0.35746564576E+03 -0.29288324464E+02  0.54212615672E+03  0.00000000000E+00 0. -1.
         -1    1    3    3    0  502  0.17357549381E+03 -0.18567986295E+03  0.47514874248E+02  0.25857905335E+03  0.00000000000E+00 0.  1.
         13    1    5    5    0    0 -0.36635610851E+03  0.47297564351E+03 -0.38450434478E+03  0.71117251687E+03  0.00000000000E+00 0.  1.
        -13    1    5    5    0    0 -0.77415431181E+02  0.13891501753E+03 -0.58504815921E+02  0.16945012413E+03  0.00000000000E+00 0. -1.
          4    1    6    6  503    0 -0.12938469706E+03 -0.84030925952E+02 -0.86391472270E+03  0.87758204428E+03  0.00000000000E+00 0.  1.
         -4    1    6    6    0  503 -0.69426585335E+01  0.15285773628E+02 -0.33936532027E+02  0.37862165666E+02  0.00000000000E+00 0. -1.
<mgrwt>
<rscale>  0 0.22346957E+04</rscale>
<asrwt>0</asrwt>
<pdfrwt beam="1">  1        2 0.30149276E+00 0.22346957E+04</pdfrwt>
<pdfrwt beam="2">  1       -2 0.98010630E-01 0.22346957E+04</pdfrwt>
<totfact> 0.55537096E+00</totfact>
</mgrwt>
</event>
<event>
12    3  0.4769008E-008  0.1721626E+04  0.7818608E-02  0.8749126E-01
         -2   -1    0    0    0  501 -0.00000000000E+00  0.00000000000E+00  0.31421865837E+03  0.31421865837E+03  0.00000000000E+00 0.  1.
          2   -1    0    0  501    0  0.00000000000E+00 -0.00000000000E+00 -0.23582261526E+04  0.23582261526E+04  0.00000000000E+00 0. -1.
         23    2    1    2    0    0  0.58828723084E+03 -0.67013748140E+02 -0.45783542156E+03  0.75135072657E+03  0.65893343196E+02 0.  0.
        254    2    1    2    0    0 -0.58828723084E+03  0.67013748140E+02 -0.15861720727E+04  0.19210940844E+04  0.90779288858E+03 0.  0.
         23    2    4    4    0    0  0.13355550471E+03  0.26914013463E+03 -0.33609028116E+03  0.46064172362E+03  0.94660633499E+02 0.  0.
         23    2    4    4    0    0 -0.72184273555E+03 -0.20212638649E+03 -0.12500817915E+04  0.14604523608E+04  0.91129587149E+02 0.  0.
          4    1    3    3  502    0  0.32302084869E+03 -0.38104470081E+02 -0.20991036387E+03  0.38711339449E+03  0.00000000000E+00 0. -1.
         -4    1    3    3    0  502  0.26526638215E+03 -0.28909278059E+02 -0.24792505769E+03  0.36423733209E+03  0.00000000000E+00 0.  1.
         13    1    5    5    0    0  0.91920841762E+02  0.10915475984E+03 -0.20440122030E+03  0.24928710678E+03  0.00000000000E+00 0. -1.
        -13    1    5    5    0    0  0.41634662948E+02  0.15998537480E+03 -0.13168906086E+03  0.21135461683E+03  0.00000000000E+00 0.  1.
          3    1    6    6  503    0 -0.22437950961E+03 -0.67948071361E+02 -0.31304423129E+03  0.39110074850E+03  0.00000000000E+00 0. -1.
         -3    1    6    6    0  503 -0.49746322594E+03 -0.13417831513E+03 -0.93703756022E+03  0.10693516123E+04  0.00000000000E+00 0.  1.
<mgrwt>
<rscale>  0 0.17216256E+04</rscale>
<asrwt>0</asrwt>
<pdfrwt beam="1">  1        2 0.36280403E+00 0.17216256E+04</pdfrwt>
<pdfrwt beam="2">  1       -2 0.48341331E-01 0.17216256E+04</pdfrwt>
<totfact> 0.16189135E+01</totfact>
</mgrwt>
</event>
<event>
12    3  0.4769008E-008  0.1950471E+04  0.7818608E-02  0.8630134E-01
         -2   -1    0    0    0  501 -0.00000000000E+00  0.00000000000E+00  0.58394840994E+03  0.58394840994E+03  0.00000000000E+00 0.  1.
          2   -1    0    0  501    0  0.00000000000E+00 -0.00000000000E+00 -0.16287122743E+04  0.16287122743E+04  0.00000000000E+00 0. -1.
         23    2    1    2    0    0 -0.68408915424E+02  0.64834977826E+03  0.46251227914E+02  0.66009854469E+03  0.92486204050E+02 0.  0.
        254    2    1    2    0    0  0.68408915424E+02 -0.64834977826E+03 -0.10910150923E+04  0.15525621396E+04  0.89168270753E+03 0.  0.
         23    2    4    4    0    0 -0.18409554992E+03 -0.94769506957E+02 -0.86659006234E+03  0.89653551192E+03  0.99625082376E+02 0.  0.
         23    2    4    4    0    0  0.25250446534E+03 -0.55358027131E+03 -0.22442502994E+03  0.65602662763E+03  0.98968279264E+02 0.  0.
          2    1    3    3  502    0 -0.41426224530E+02  0.36460973160E+03 -0.19927495029E+02  0.36749624966E+03  0.00000000000E+00 0.  1.
         -2    1    3    3    0  502 -0.26982690894E+02  0.28374004666E+03  0.66178722943E+02  0.29260229503E+03  0.00000000000E+00 0. -1.
         13    1    5    5    0    0 -0.11476238993E+03 -0.99279112227E+01 -0.53681024232E+03  0.54903024126E+03  0.00000000000E+00 0.  1.
        -13    1    5    5    0    0 -0.69333159990E+02 -0.84841595734E+02 -0.32977982002E+03  0.34750527066E+03  0.00000000000E+00 0. -1.
          2    1    6    6  503    0  0.25932342472E+03 -0.55121716600E+03 -0.22081256909E+03  0.64795616624E+03  0.00000000000E+00 0.  1.
         -2    1    6    6    0  503 -0.68189593754E+01 -0.23631053050E+01 -0.36124608569E+01  0.80704613926E+01  0.00000000000E+00 0. -1.
<mgrwt>
<rscale>  0 0.19504707E+04</rscale>
<asrwt>0</asrwt>
<pdfrwt beam="1">  1        2 0.25057112E+00 0.19504707E+04</pdfrwt>
<pdfrwt beam="2">  1       -2 0.89838217E-01 0.19504707E+04</pdfrwt>
<totfact> 0.10638329E+01</totfact>
</mgrwt>
</event>
<event>
12    3  0.4769008E-008  0.1922472E+04  0.7818608E-02  0.8643751E-01
          1   -1    0    0  501    0  0.00000000000E+00  0.00000000000E+00  0.91082764463E+03  0.91082764463E+03  0.00000000000E+00 0. -1.
         -1   -1    0    0    0  501 -0.00000000000E+00 -0.00000000000E+00 -0.10144338838E+04  0.10144338838E+04  0.00000000000E+00 0.  1.
         23    2    1    2    0    0  0.59351878545E+03  0.34515266197E+03  0.25240491957E+03  0.73760029722E+03  0.94609969299E+02 0.  0.
        254    2    1    2    0    0 -0.59351878545E+03 -0.34515266197E+03 -0.35601115877E+03  0.11876612312E+04  0.90133253921E+03 0.  0.
         23    2    4    4    0    0 -0.37028252013E+03  0.51984187613E+02 -0.56068856038E+03  0.68001257368E+03  0.90741049932E+02 0.  0.
         23    2    4    4    0    0 -0.22323626532E+03 -0.39713684958E+03  0.20467740162E+03  0.50764865755E+03  0.90896717919E+02 0.  0.
          3    1    3    3  502    0  0.39534286960E+03  0.22035626646E+03  0.11865095034E+03  0.46790054149E+03  0.00000000000E+00 0. -1.
         -3    1    3    3    0  502  0.19817591585E+03  0.12479639551E+03  0.13375396924E+03  0.26969975573E+03  0.00000000000E+00 0.  1.
         13    1    5    5    0    0 -0.86279003067E+02  0.46455995776E+02 -0.11041806974E+03  0.14762918424E+03  0.00000000000E+00 0. -1.
        -13    1    5    5    0    0 -0.28400351706E+03  0.55281918365E+01 -0.45027049065E+03  0.53238338944E+03  0.00000000000E+00 0.  1.
          4    1    6    6  503    0 -0.13318317378E+03 -0.19885550611E+03  0.15223929796E+03  0.28365132457E+03  0.00000000000E+00 0. -1.
         -4    1    6    6    0  503 -0.90053091541E+02 -0.19828134347E+03  0.52438103656E+02  0.22399733298E+03  0.00000000000E+00 0.  1.
<mgrwt>
<rscale>  0 0.19224718E+04</rscale>
<asrwt>0</asrwt>
<pdfrwt beam="1">  1        1 0.14012733E+00 0.19224718E+04</pdfrwt>
<pdfrwt beam="2">  1       -1 0.15606675E+00 0.19224718E+04</pdfrwt>
<totfact> 0.52140005E+00</totfact>
</mgrwt>
</event>
<event>
12    3  0.4769008E-008  0.3240178E+04  0.7818608E-02  0.8178286E-01
          1   -1    0    0  501    0  0.00000000000E+00  0.00000000000E+00  0.10479182523E+04  0.10479182523E+04  0.00000000000E+00 0. -1.
         -1   -1    0    0    0  501 -0.00000000000E+00 -0.00000000000E+00 -0.25046697028E+04  0.25046697028E+04  0.00000000000E+00 0.  1.
         23    2    1    2    0    0  0.10446061654E+04  0.67856461488E+03  0.19193915219E+03  0.12639168426E+04  0.94832322308E+02 0.  0.
        254    2    1    2    0    0 -0.10446061654E+04 -0.67856461488E+03 -0.16486906026E+04  0.22886711126E+04  0.98396279444E+03 0.  0.
         23    2    4    4    0    0 -0.64288273752E+02 -0.47498453178E+03 -0.93664123509E+03  0.10565834490E+04  0.96584128522E+02 0.  0.
         23    2    4    4    0    0 -0.98031789167E+03 -0.20358008309E+03 -0.71204936754E+03  0.12320876635E+04  0.92507782817E+02 0.  0.
          3    1    3    3  502    0  0.94840243768E+03  0.62063979712E+03  0.14683265135E+03  0.11429001571E+04  0.00000000000E+00 0. -1.
         -3    1    3    3    0  502  0.96203727741E+02  0.57924817759E+02  0.45106500849E+02  0.12101668547E+03  0.00000000000E+00 0.  1.
         13    1    5    5    0    0  0.22254821971E+02 -0.85540973356E+02 -0.20501559269E+03  0.22325753844E+03  0.00000000000E+00 0.  1.
        -13    1    5    5    0    0 -0.86543095723E+02 -0.38944355843E+03 -0.73162564240E+03  0.83332591058E+03  0.00000000000E+00 0. -1.
          2    1    6    6  503    0 -0.45785625934E+03 -0.48265301873E+02 -0.33191853429E+03  0.56756656613E+03  0.00000000000E+00 0. -1.
         -2    1    6    6    0  503 -0.52246163233E+03 -0.15531478122E+03 -0.38013083325E+03  0.66452109741E+03  0.00000000000E+00 0.  1.
<mgrwt>
<rscale>  0 0.32401785E+04</rscale>
<asrwt>0</asrwt>
<pdfrwt beam="1">  1        1 0.16121819E+00 0.32401785E+04</pdfrwt>
<pdfrwt beam="2">  1       -1 0.38533380E+00 0.32401785E+04</pdfrwt>
<totfact> 0.10419795E-01</totfact>
</mgrwt>
</event>
<event>
12    3  0.4769008E-008  0.1688687E+04  0.7818608E-02  0.8767843E-01
         -2   -1    0    0    0  501 -0.00000000000E+00  0.00000000000E+00  0.55051632025E+03  0.55051632025E+03  0.00000000000E+00 0. -1.
          2   -1    0    0  501    0  0.00000000000E+00 -0.00000000000E+00 -0.12949955709E+04  0.12949955709E+04  0.00000000000E+00 0.  1.
         23    2    1    2    0    0  0.11036135149E+03 -0.45294142397E+03 -0.68205350318E+03  0.83121930219E+03  0.91613239667E+02 0.  0.
        254    2    1    2    0    0 -0.11036135149E+03  0.45294142397E+03 -0.62425747415E+02  0.10142925889E+04  0.89864170865E+03 0.  0.
         23    2    4    4    0    0 -0.24052153089E+03  0.24364404385E+03  0.36627111314E+03  0.51077889508E+03  0.97609038566E+02 0.  0.
         23    2    4    4    0    0  0.13016017940E+03  0.20929738012E+03 -0.42869686056E+03  0.50351369383E+03  0.94857661755E+02 0.  0.
          4    1    3    3  502    0  0.86016895119E+02 -0.36836986639E+03 -0.60862883419E+03  0.71660611393E+03  0.00000000000E+00 0. -1.
         -4    1    3    3    0  502  0.24344456375E+02 -0.84571557579E+02 -0.73424668992E+02  0.11461318826E+03  0.00000000000E+00 0.  1.
         13    1    5    5    0    0 -0.79600384225E+01  0.16898851332E+02  0.65471520105E+02  0.68084163599E+02  0.00000000000E+00 0. -1.
        -13    1    5    5    0    0 -0.23256149247E+03  0.22674519252E+03  0.30079959304E+03  0.44269473148E+03  0.00000000000E+00 0.  1.
          2    1    6    6  503    0  0.41311619303E+02  0.92760375273E+02 -0.94988117337E+02  0.13904632158E+03  0.00000000000E+00 0. -1.
         -2    1    6    6    0  503  0.88848560093E+02  0.11653700485E+03 -0.33370874322E+03  0.36446737225E+03  0.00000000000E+00 0.  1.
<mgrwt>
<rscale>  0 0.16886873E+04</rscale>
<asrwt>0</asrwt>
<pdfrwt beam="1">  1        2 0.19923009E+00 0.16886873E+04</pdfrwt>
<pdfrwt beam="2">  1       -2 0.84694819E-01 0.16886873E+04</pdfrwt>
<totfact> 0.19257819E+01</totfact>
</mgrwt>
</event>
<event>
12    3  0.4769008E-008  0.1692864E+04  0.7818608E-02  0.8765445E-01
         -2   -1    0    0    0  501 -0.00000000000E+00  0.00000000000E+00  0.13983750095E+04  0.13983750095E+04  0.00000000000E+00 0. -1.
          2   -1    0    0  501    0  0.00000000000E+00 -0.00000000000E+00 -0.51234289846E+03  0.51234289846E+03  0.00000000000E+00 0.  1.
         23    2    1    2    0    0 -0.23219119432E+03 -0.56007617040E+03  0.27855691111E+03  0.67340016741E+03  0.90971233738E+02 0.  0.
        254    2    1    2    0    0  0.23219119432E+03  0.56007617040E+03  0.60747519994E+03  0.12373177406E+04  0.89125249239E+03 0.  0.
         23    2    4    4    0    0  0.83824813012E+02  0.15755001017E+03  0.75030963261E+03  0.77610939121E+03  0.86790767733E+02 0.  0.
         23    2    4    4    0    0  0.14836638131E+03  0.40252616023E+03 -0.14283443267E+03  0.46120834935E+03  0.90948191718E+02 0.  0.
          3    1    3    3  502    0 -0.18793062729E+03 -0.44067661865E+03  0.25888502611E+03  0.54455051157E+03  0.00000000000E+00 0. -1.
         -3    1    3    3    0  502 -0.44260567027E+02 -0.11939955175E+03  0.19671884998E+02  0.12884965584E+03  0.00000000000E+00 0.  1.
         13    1    5    5    0    0 -0.16576381023E+02  0.12311791374E+02  0.55493505043E+02  0.59210520321E+02  0.00000000000E+00 0. -1.
        -13    1    5    5    0    0  0.10040119404E+03  0.14523821879E+03  0.69481612756E+03  0.71689887089E+03  0.00000000000E+00 0.  1.
          4    1    6    6  503    0  0.75764879236E+02  0.10927033305E+03 -0.70750193830E+02  0.15061843359E+03  0.00000000000E+00 0. -1.
         -4    1    6    6    0  503  0.72601502073E+02  0.29325582718E+03 -0.72084238841E+02  0.31058991576E+03  0.00000000000E+00 0.  1.
<mgrwt>
<rscale>  0 0.16928644E+04</rscale>
<asrwt>0</asrwt>
<pdfrwt beam="1">  1        2 0.78821985E-01 0.16928644E+04</pdfrwt>
<pdfrwt beam="2">  1       -2 0.21513461E+00 0.16928644E+04</pdfrwt>
<totfact> 0.60434925E+00</totfact>
</mgrwt>
</event>
<event>
12    3  0.4769008E-008  0.1958324E+04  0.7818608E-02  0.8626357E-01
          2   -1    0    0  501    0  0.00000000000E+00  0.00000000000E+00  0.31890064088E+04  0.31890064088E+04  0.00000000000E+00 0. -1.
         -2   -1    0    0    0  501 -0.00000000000E+00 -0.00000000000E+00 -0.30064489339E+03  0.30064489339E+03  0.00000000000E+00 0.  1.
         23    2    1    2    0    0 -0.41956680337E+03 -0.63413200627E+03  0.12965404545E+04  0.15049044565E+04  0.74569223571E+02 0.  0.
        254    2    1    2    0    0  0.41956680337E+03  0.63413200627E+03  0.15918210609E+04  0.19847468457E+04  0.90948669465E+03 0.  0.
         23    2    4    4    0    0  0.94400013060E+02  0.32670443489E+03  0.14692303116E+04  0.15108345091E+04  0.91302000368E+02 0.  0.
         23    2    4    4    0    0  0.32516679031E+03  0.30742757138E+03  0.12259074933E+03  0.47391233658E+03  0.96536302897E+02 0.  0.
          1    1    3    3  502    0 -0.13024975496E+03 -0.14811495364E+03  0.37257678106E+03  0.42156434378E+03  0.00000000000E+00 0. -1.
         -1    1    3    3    0  502 -0.28931704842E+03 -0.48601705264E+03  0.92396367342E+03  0.10833401127E+04  0.00000000000E+00 0.  1.
         13    1    5    5    0    0 -0.12316203941E+02  0.52036284638E+02  0.31946053889E+03  0.32390507824E+03  0.00000000000E+00 0.  1.
        -13    1    5    5    0    0  0.10671621700E+03  0.27466815026E+03  0.11497697727E+04  0.11869294309E+04  0.00000000000E+00 0. -1.
          2    1    6    6  503    0  0.29861620548E+03  0.28471648972E+03  0.82552730954E+02  0.42077318246E+03  0.00000000000E+00 0. -1.
         -2    1    6    6    0  503  0.26550584837E+02  0.22711081658E+02  0.40038018371E+02  0.53139154118E+02  0.00000000000E+00 0.  1.
<mgrwt>
<rscale>  0 0.19583243E+04</rscale>
<asrwt>0</asrwt>
<pdfrwt beam="1">  1        2 0.49061635E+00 0.19583243E+04</pdfrwt>
<pdfrwt beam="2">  1       -2 0.46253063E-01 0.19583243E+04</pdfrwt>
<totfact> 0.54673063E+00</totfact>
</mgrwt>
</event>
<event>
12    3  0.4769008E-008  0.2536035E+04  0.7818608E-02  0.8390259E-01
          2   -1    0    0  501    0  0.00000000000E+00  0.00000000000E+00  0.16466880954E+04  0.16466880954E+04  0.00000000000E+00 0. -1.
         -2   -1    0    0    0  501 -0.00000000000E+00 -0.00000000000E+00 -0.97642576676E+03  0.97642576676E+03  0.00000000000E+00 0.  1.
         23    2    1    2    0    0  0.48226412144E+03 -0.11823273032E+03 -0.72844241906E+03  0.88619102856E+03  0.90269152304E+02 0.  0.
        254    2    1    2    0    0 -0.48226412144E+03  0.11823273032E+03  0.13987047477E+04  0.17369228336E+04  0.90220191602E+03 0.  0.
         23    2    4    4    0    0 -0.45051582767E+03 -0.27677810745E+03  0.11260961299E+04  0.12474207008E+04  0.91625756490E+02 0.  0.
         23    2    4    4    0    0 -0.31748293772E+02  0.39501083777E+03  0.27260861773E+03  0.48950213274E+03  0.90859030281E+02 0.  0.
          3    1    3    3  502    0  0.19576190467E+03 -0.13955466394E+02 -0.33751076154E+03  0.39042411878E+03  0.00000000000E+00 0. -1.
         -3    1    3    3    0  502  0.28650221677E+03 -0.10427726392E+03 -0.39093165752E+03  0.49576690978E+03  0.00000000000E+00 0.  1.
         13    1    5    5    0    0 -0.33649168316E+03 -0.19089030335E+03  0.90529648430E+03  0.98449351711E+03  0.00000000000E+00 0. -1.
        -13    1    5    5    0    0 -0.11402414451E+03 -0.85887804101E+02  0.22079964565E+03  0.26292718373E+03  0.00000000000E+00 0.  1.
          2    1    6    6  503    0  0.18599454812E+01  0.37989176715E+02  0.64530327462E+02  0.74905274227E+02  0.00000000000E+00 0.  1.
         -2    1    6    6    0  503 -0.33608239253E+02  0.35702166105E+03  0.20807829026E+03  0.41459685851E+03  0.00000000000E+00 0. -1.
<mgrwt>
<rscale>  0 0.25360352E+04</rscale>
<asrwt>0</asrwt>
<pdfrwt beam="1">  1        2 0.25333663E+00 0.25360352E+04</pdfrwt>
<pdfrwt beam="2">  1       -2 0.15021935E+00 0.25360352E+04</pdfrwt>
<totfact> 0.27875463E+00</totfact>
</mgrwt>
</event>
<event>
12    3  0.4769008E-008  0.1174214E+04  0.7818608E-02  0.9135731E-01
          2   -1    0    0  501    0  0.00000000000E+00  0.00000000000E+00  0.17486722554E+04  0.17486722554E+04  0.00000000000E+00 0. -1.
         -2   -1    0    0    0  501 -0.00000000000E+00 -0.00000000000E+00 -0.19711806791E+03  0.19711806791E+03  0.00000000000E+00 0.  1.
         23    2    1    2    0    0  0.22825750436E+03 -0.38431379343E+02  0.27251066759E+03  0.36919094706E+03  0.91986043640E+02 0.  0.
        254    2    1    2    0    0 -0.22825750436E+03  0.38431379343E+02  0.12790435199E+04  0.15765993763E+04  0.89226386693E+03 0.  0.
         23    2    4    4    0    0  0.47693281865E+02 -0.39117728194E+03  0.53130273935E+03  0.66664017120E+03  0.82657135016E+02 0.  0.
         23    2    4    4    0    0 -0.27595078623E+03  0.42960866129E+03  0.74774078058E+03  0.90995920509E+03  0.90537515545E+02 0.  0.
          3    1    3    3  502    0  0.90476067589E+02  0.10856014936E+02  0.16180574262E+03  0.18570102372E+03  0.00000000000E+00 0. -1.
         -3    1    3    3    0  502  0.13778143677E+03 -0.49287394278E+02  0.11070492497E+03  0.18348992334E+03  0.00000000000E+00 0.  1.
         13    1    5    5    0    0  0.60435590355E+02 -0.35501707443E+03  0.44693119089E+03  0.57396609055E+03  0.00000000000E+00 0.  1.
        -13    1    5    5    0    0 -0.12742308490E+02 -0.36160207516E+02  0.84371548464E+02  0.92674080645E+02  0.00000000000E+00 0. -1.
          4    1    6    6  503    0  0.44835628829E+01  0.19349474483E+02  0.45732015253E+02  0.49859018421E+02  0.00000000000E+00 0. -1.
         -4    1    6    6    0  503 -0.28043434911E+03  0.41025918680E+03  0.70200876533E+03  0.86010018667E+03  0.00000000000E+00 0.  1.
<mgrwt>
<rscale>  0 0.11742145E+04</rscale>
<asrwt>0</asrwt>
<pdfrwt beam="1">  1        2 0.26902649E+00 0.11742145E+04</pdfrwt>
<pdfrwt beam="2">  1       -2 0.30325858E-01 0.11742145E+04</pdfrwt>
<totfact> 0.91526330E+01</totfact>
</mgrwt>
</event>
<event>
12    3  0.4769008E-008  0.1609039E+04  0.7818608E-02  0.8815014E-01
          1   -1    0    0  501    0  0.00000000000E+00  0.00000000000E+00  0.60592706358E+03  0.60592706358E+03  0.00000000000E+00 0. -1.
         -1   -1    0    0    0  501 -0.00000000000E+00 -0.00000000000E+00 -0.10682009564E+04  0.10682009564E+04  0.00000000000E+00 0.  1.
         23    2    1    2    0    0 -0.41233040839E+03 -0.22196314697E+03 -0.45358706012E+03  0.65810820037E+03  0.89895372485E+02 0.  0.
        254    2    1    2    0    0  0.41233040839E+03  0.22196314697E+03 -0.86868327122E+01  0.10160198196E+04  0.90163008407E+03 0.  0.
         23    2    4    4    0    0  0.31144751146E+03  0.32697472649E+02 -0.42638269685E+03  0.53735173627E+03  0.94212563847E+02 0.  0.
         23    2    4    4    0    0  0.10088289693E+03  0.18926567432E+03  0.41769586414E+03  0.47866808335E+03  0.93029268097E+02 0.  0.
          2    1    3    3  502    0 -0.18569131096E+02  0.38658423921E+01 -0.43315875438E+01  0.19455590912E+02  0.00000000000E+00 0. -1.
         -2    1    3    3    0  502 -0.39376127729E+03 -0.22582898936E+03 -0.44925547258E+03  0.63865260946E+03  0.00000000000E+00 0.  1.
         13    1    5    5    0    0  0.27963128391E+03  0.26399462382E+02 -0.31829321861E+03  0.42450107134E+03  0.00000000000E+00 0.  1.
        -13    1    5    5    0    0  0.31816227547E+02  0.62980102675E+01 -0.10808947824E+03  0.11285066493E+03  0.00000000000E+00 0. -1.
          1    1    6    6  503    0  0.32877369137E+02  0.67927920112E+02  0.65234430924E+02  0.99752968428E+02  0.00000000000E+00 0. -1.
         -1    1    6    6    0  503  0.68005527792E+02  0.12133775421E+03  0.35246143322E+03  0.37891511492E+03  0.00000000000E+00 0.  1.
<mgrwt>
<rscale>  0 0.16090393E+04</rscale>
<asrwt>0</asrwt>
<pdfrwt beam="1">  1        1 0.93219549E-01 0.16090393E+04</pdfrwt>
<pdfrwt beam="2">  1       -1 0.16433861E+00 0.16090393E+04</pdfrwt>
<totfact> 0.87745595E+00</totfact>
</mgrwt>
</event>
<event>
12    3  0.4769008E-008  0.2823636E+04  0.7818608E-02  0.8295968E-01
         -1   -1    0    0    0  501 -0.00000000000E+00  0.00000000000E+00  0.47088013823E+04  0.47088013823E+04  0.00000000000E+00 0.  1.
          1   -1    0    0  501    0  0.00000000000E+00 -0.00000000000E+00 -0.42329874606E+03  0.42329874606E+03  0.00000000000E+00 0. -1.
         23    2    1    2    0    0 -0.34678393236E+03 -0.83377885925E+03  0.35325475751E+04  0.36471986378E+04  0.87859268031E+02 0.  0.
        254    2    1    2    0    0  0.34678393236E+03  0.83377885925E+03  0.75295506114E+03  0.14849014906E+04  0.90694257305E+03 0.  0.
         23    2    4    4    0    0  0.32951234852E+03  0.69050899327E+03  0.61071051655E+02  0.77301911697E+03  0.91912046157E+02 0.  0.
         23    2    4    4    0    0  0.17271583843E+02  0.14326986598E+03  0.69188400949E+03  0.71188237364E+03  0.85137942212E+02 0.  0.
          4    1    3    3  502    0 -0.17504310082E+03 -0.42630155644E+03  0.16260528172E+04  0.16900949288E+04  0.00000000000E+00 0. -1.
         -4    1    3    3    0  502 -0.17174083154E+03 -0.40747730282E+03  0.19064947579E+04  0.19571037090E+04  0.00000000000E+00 0.  1.
         13    1    5    5    0    0  0.14542701209E+03  0.37090299294E+03  0.67830068404E+02  0.40412741085E+03  0.00000000000E+00 0. -1.
        -13    1    5    5    0    0  0.18408533643E+03  0.31960600033E+03 -0.67590167491E+01  0.36889170612E+03  0.00000000000E+00 0.  1.
          2    1    6    6  503    0  0.10453324173E+01  0.20396992038E+01  0.19626555591E+03  0.19627893807E+03  0.00000000000E+00 0. -1.
         -2    1    6    6    0  503  0.16226251426E+02  0.14123016678E+03  0.49561845358E+03  0.51560343557E+03  0.00000000000E+00 0.  1.
<mgrwt>
<rscale>  0 0.28236358E+04</rscale>
<asrwt>0</asrwt>
<pdfrwt beam="1">  1        1 0.65122887E-01 0.28236358E+04</pdfrwt>
<pdfrwt beam="2">  1       -1 0.72443095E+00 0.28236358E+04</pdfrwt>
<totfact> 0.77766245E-03</totfact>
</mgrwt>
</event>
<event>
12    3  0.4769008E-008  0.1124704E+04  0.7818608E-02  0.9181443E-01
         -1   -1    0    0    0  501 -0.00000000000E+00  0.00000000000E+00  0.14461870616E+03  0.14461870616E+03  0.00000000000E+00 0.  1.
          1   -1    0    0  501    0  0.00000000000E+00 -0.00000000000E+00 -0.21867128773E+04  0.21867128773E+04  0.00000000000E+00 0. -1.
         23    2    1    2    0    0  0.18113281877E+03  0.13731212828E+03 -0.40025764555E+03  0.47350099683E+03  0.11105535815E+03 0.  0.
        254    2    1    2    0    0 -0.18113281877E+03 -0.13731212828E+03 -0.16418365256E+04  0.18578305867E+04  0.83919222663E+03 0.  0.
         23    2    4    4    0    0 -0.21371362651E+02 -0.47368742744E+03 -0.99169220637E+03  0.11029643760E+04  0.90777026733E+02 0.  0.
         23    2    4    4    0    0 -0.15976145612E+03  0.33637529916E+03 -0.65014431925E+03  0.75486621062E+03  0.91996170169E+02 0.  0.
          1    1    3    3  502    0  0.10929193273E+02  0.68442626833E+02 -0.11423104315E+03  0.13361351598E+03  0.00000000000E+00 0. -1.
         -1    1    3    3    0  502  0.17020362549E+03  0.68869501445E+02 -0.28602660240E+03  0.33988748085E+03  0.00000000000E+00 0.  1.
         13    1    5    5    0    0  0.11877538935E+02 -0.35617823324E+03 -0.79838608168E+03  0.87431364234E+03  0.00000000000E+00 0.  1.
        -13    1    5    5    0    0 -0.33248901586E+02 -0.11750919420E+03 -0.19330612469E+03  0.22865073370E+03  0.00000000000E+00 0. -1.
          2    1    6    6  503    0  0.69877923487E+01 -0.30596908768E+00 -0.20337508040E+02  0.21506675528E+02  0.00000000000E+00 0. -1.
         -2    1    6    6    0  503 -0.16674924846E+03  0.33668126825E+03 -0.62980681121E+03  0.73335953509E+03  0.00000000000E+00 0.  1.
<mgrwt>
<rscale>  0 0.11247037E+04</rscale>
<asrwt>0</asrwt>
<pdfrwt beam="1">  1        1 0.33641737E+00 0.11247037E+04</pdfrwt>
<pdfrwt beam="2">  1       -1 0.22249032E-01 0.11247037E+04</pdfrwt>
<totfact> 0.37989495E+01</totfact>
</mgrwt>
</event>
<event>
12    3  0.4769008E-008  0.1867085E+04  0.7818608E-02  0.8671416E-01
          1   -1    0    0  501    0  0.00000000000E+00  0.00000000000E+00  0.96157266452E+03  0.96157266452E+03  0.00000000000E+00 0. -1.
         -1   -1    0    0    0  501 -0.00000000000E+00 -0.00000000000E+00 -0.90632939463E+03  0.90632939463E+03  0.00000000000E+00 0.  1.
         23    2    1    2    0    0  0.42247942309E+03  0.28487714538E+03  0.52254169302E+03  0.73559750461E+03  0.91706144566E+02 0.  0.
        254    2    1    2    0    0 -0.42247942309E+03 -0.28487714538E+03 -0.46729842313E+03  0.11323045545E+04  0.89671731169E+03 0.  0.
         23    2    4    4    0    0 -0.18685322174E+03 -0.32422226463E+03 -0.69193089495E+03  0.79196809152E+03  0.91710911180E+02 0.  0.
         23    2    4    4    0    0 -0.23562620134E+03  0.39345119254E+02  0.22463247182E+03  0.34033646302E+03  0.91112103994E+02 0.  0.
          3    1    3    3  502    0  0.31694480384E+03  0.21157027041E+03  0.44353110749E+03  0.58475279505E+03  0.00000000000E+00 0. -1.
         -3    1    3    3    0  502  0.10553461925E+03  0.73306874971E+02  0.79010585533E+02  0.15084470957E+03  0.00000000000E+00 0.  1.
         13    1    5    5    0    0 -0.52635132065E+02 -0.18137874891E+03 -0.35797286256E+03  0.40473853042E+03  0.00000000000E+00 0. -1.
        -13    1    5    5    0    0 -0.13421808968E+03 -0.14284351573E+03 -0.33395803240E+03  0.38722956109E+03  0.00000000000E+00 0.  1.
          1    1    6    6  503    0 -0.23815478470E+03  0.36889804048E+02  0.19366138738E+03  0.30916547686E+03  0.00000000000E+00 0. -1.
         -1    1    6    6    0  503  0.25285833584E+01  0.24553152054E+01  0.30971084446E+02  0.31170986162E+02  0.00000000000E+00 0.  1.
<mgrwt>
<rscale>  0 0.18670850E+04</rscale>
<asrwt>0</asrwt>
<pdfrwt beam="1">  1        1 0.14793426E+00 0.18670850E+04</pdfrwt>
<pdfrwt beam="2">  1       -1 0.13943529E+00 0.18670850E+04</pdfrwt>
<totfact> 0.64497696E+00</totfact>
</mgrwt>
</event>
<event>
12    3  0.4769008E-008  0.3022410E+04  0.7818608E-02  0.8237360E-01
          2   -1    0    0  501    0  0.00000000000E+00  0.00000000000E+00  0.11030198019E+04  0.11030198019E+04  0.00000000000E+00 0.  1.
         -2   -1    0    0    0  501 -0.00000000000E+00 -0.00000000000E+00 -0.20704439502E+04  0.20704439502E+04  0.00000000000E+00 0. -1.
         23    2    1    2    0    0 -0.31927159446E+02 -0.15962024704E+03  0.99140909497E+03  0.10087750249E+04  0.90758417795E+02 0.  0.
        254    2    1    2    0    0  0.31927159446E+02  0.15962024704E+03 -0.19588332433E+04  0.21646887272E+04  0.90683606225E+03 0.  0.
         23    2    4    4    0    0 -0.41117964268E+03  0.18182544286E+03 -0.11443930661E+04  0.12327893695E+04  0.89470384083E+02 0.  0.
         23    2    4    4    0    0  0.44310680213E+03 -0.22205195818E+02 -0.81444017718E+03  0.93189935766E+03  0.91032421601E+02 0.  0.
          3    1    3    3  502    0  0.31383091761E+01  0.80871005557E+01  0.14164345991E+03  0.14190884368E+03  0.00000000000E+00 0. -1.
         -3    1    3    3    0  502 -0.35065468622E+02 -0.16770734760E+03  0.84976563506E+03  0.86686618117E+03  0.00000000000E+00 0.  1.
         13    1    5    5    0    0 -0.37769074412E+03  0.17147003545E+03 -0.97094229653E+03  0.10558320011E+04  0.00000000000E+00 0. -1.
        -13    1    5    5    0    0 -0.33488898560E+02  0.10355407410E+02 -0.17345076959E+03  0.17695736849E+03  0.00000000000E+00 0.  1.
          1    1    6    6  503    0  0.25693996154E+03 -0.57501800013E+02 -0.46269354315E+03  0.53236257918E+03  0.00000000000E+00 0. -1.
         -1    1    6    6    0  503  0.18616684059E+03  0.35296604195E+02 -0.35174663403E+03  0.39953677848E+03  0.00000000000E+00 0.  1.
<mgrwt>
<rscale>  0 0.30224101E+04</rscale>
<asrwt>0</asrwt>
<pdfrwt beam="1">  1        2 0.16969536E+00 0.30224101E+04</pdfrwt>
<pdfrwt beam="2">  1       -2 0.31852984E+00 0.30224101E+04</pdfrwt>
<totfact> 0.45312976E-01</totfact>
</mgrwt>
</event>
<event>
12    3  0.4769008E-008  0.2875354E+04  0.7818608E-02  0.8280248E-01
          2   -1    0    0  501    0  0.00000000000E+00  0.00000000000E+00  0.32959257453E+04  0.32959257453E+04  0.00000000000E+00 0. -1.
         -2   -1    0    0    0  501 -0.00000000000E+00 -0.00000000000E+00 -0.62711206200E+03  0.62711206200E+03  0.00000000000E+00 0.  1.
         23    2    1    2    0    0 -0.21988878939E+03  0.19890919582E+03  0.29325756494E+04  0.29489304539E+04  0.90966667626E+02 0.  0.
        254    2    1    2    0    0  0.21988878939E+03 -0.19890919582E+03 -0.26376196605E+03  0.97410735345E+03  0.88960598775E+03 0.  0.
         23    2    4    4    0    0  0.89195086893E+02 -0.42523796082E+03  0.15667203064E+03  0.47078227595E+03  0.91141315084E+02 0.  0.
         23    2    4    4    0    0  0.13069370250E+03  0.22632876500E+03 -0.42043399668E+03  0.50332507751E+03  0.90916634017E+02 0.  0.
          3    1    3    3  502    0 -0.22031590818E+03  0.17744262230E+03  0.28317011255E+04  0.28457962415E+04  0.00000000000E+00 0. -1.
         -3    1    3    3    0  502  0.42711879112E+00  0.21466573518E+02  0.10087452384E+03  0.10313421240E+03  0.00000000000E+00 0.  1.
         13    1    5    5    0    0  0.70487953677E+02 -0.32372096577E+03  0.76356303736E+02  0.33999132403E+03  0.00000000000E+00 0. -1.
        -13    1    5    5    0    0  0.18707133216E+02 -0.10151699505E+03  0.80315726900E+02  0.13079095192E+03  0.00000000000E+00 0.  1.
          4    1    6    6  503    0  0.88537848578E+02  0.21484224313E+03 -0.36584437362E+03  0.43340309848E+03  0.00000000000E+00 0. -1.
         -4    1    6    6    0  503  0.42155853922E+02  0.11486521867E+02 -0.54589623065E+02  0.69921979025E+02  0.00000000000E+00 0.  1.
<mgrwt>
<rscale>  0 0.28753537E+04</rscale>
<asrwt>0</asrwt>
<pdfrwt beam="1">  1        2 0.50706549E+00 0.28753537E+04</pdfrwt>
<pdfrwt beam="2">  1       -2 0.96478780E-01 0.28753537E+04</pdfrwt>
<totfact> 0.87085508E-01</totfact>
</mgrwt>
</event>
<event>
12    3  0.4769008E-008  0.1743195E+04  0.7818608E-02  0.8737105E-01
         -2   -1    0    0    0  501 -0.00000000000E+00  0.00000000000E+00  0.45203478465E+03  0.45203478465E+03  0.00000000000E+00 0.  1.
          2   -1    0    0  501    0  0.00000000000E+00 -0.00000000000E+00 -0.16805837607E+04  0.16805837607E+04  0.00000000000E+00 0. -1.
         23    2    1    2    0    0  0.59650554743E+03  0.83688516904E+02 -0.66055202418E+03  0.89866648340E+03  0.91922988140E+02 0.  0.
        254    2    1    2    0    0 -0.59650554743E+03 -0.83688516904E+02 -0.56799695182E+03  0.12339520619E+04  0.91498334293E+03 0.  0.
         23    2    4    4    0    0 -0.61234482274E+03 -0.41723980019E+03 -0.42353475233E+03  0.85891401115E+03  0.96417629714E+02 0.  0.
         23    2    4    4    0    0  0.15839275314E+02  0.33355128328E+03 -0.14446219950E+03  0.37503805076E+03  0.90977311531E+02 0.  0.
          1    1    3    3  502    0  0.47355640335E+03  0.10311143669E+03 -0.53462154606E+03  0.72160088210E+03  0.00000000000E+00 0. -1.
         -1    1    3    3    0  502  0.12294914408E+03 -0.19422919787E+02 -0.12593047812E+03  0.17706560130E+03  0.00000000000E+00 0.  1.
         13    1    5    5    0    0 -0.50827833178E+03 -0.30960166107E+03 -0.31020273144E+03  0.67113768012E+03  0.00000000000E+00 0.  1.
        -13    1    5    5    0    0 -0.10406649097E+03 -0.10763813912E+03 -0.11333202089E+03  0.18777633103E+03  0.00000000000E+00 0. -1.
          3    1    6    6  503    0  0.31840656361E+02  0.11239147988E+03 -0.87921954824E+02  0.14620513769E+03  0.00000000000E+00 0. -1.
         -3    1    6    6    0  503 -0.16001381048E+02  0.22115980340E+03 -0.56540244673E+02  0.22883291307E+03  0.00000000000E+00 0.  1.
<mgrwt>
<rscale>  0 0.17431951E+04</rscale>
<asrwt>0</asrwt>
<pdfrwt beam="1">  1        2 0.25855135E+00 0.17431951E+04</pdfrwt>
<pdfrwt beam="2">  1       -2 0.69543813E-01 0.17431951E+04</pdfrwt>
<totfact> 0.17977347E+01</totfact>
</mgrwt>
</event>
<event>
12    3  0.4769008E-008  0.1275245E+04  0.7818608E-02  0.9049430E-01
          1   -1    0    0  501    0  0.00000000000E+00  0.00000000000E+00  0.22808108329E+04  0.22808108329E+04  0.00000000000E+00 0. -1.
         -1   -1    0    0    0  501 -0.00000000000E+00 -0.00000000000E+00 -0.17825344324E+03  0.17825344324E+03  0.00000000000E+00 0.  1.
         23    2    1    2    0    0  0.12363935400E+03  0.14747744631E+03  0.10503273916E+04  0.10716805890E+04  0.90969051566E+02 0.  0.
        254    2    1    2    0    0 -0.12363935400E+03 -0.14747744631E+03  0.10522299981E+04  0.13873836871E+04  0.88352093319E+03 0.  0.
         23    2    4    4    0    0  0.95213203228E+02 -0.22177854278E+03  0.11044131721E+04  0.11339908033E+04  0.89193112127E+02 0.  0.
         23    2    4    4    0    0 -0.21885255723E+03  0.74301096470E+02 -0.52183174008E+02  0.25339288379E+03  0.89820794694E+02 0.  0.
          3    1    3    3  502    0  0.12801175455E+03  0.15631571434E+03  0.10190300997E+04  0.10388666690E+04  0.00000000000E+00 0. -1.
         -3    1    3    3    0  502 -0.43724005436E+01 -0.88382680264E+01  0.31297291861E+02  0.32813920004E+02  0.00000000000E+00 0.  1.
         13    1    5    5    0    0  0.50961098254E+02 -0.19220178157E+03  0.95219023651E+03  0.97273059213E+03  0.00000000000E+00 0. -1.
        -13    1    5    5    0    0  0.44252104974E+02 -0.29576761209E+02  0.15222293558E+03  0.16126021119E+03  0.00000000000E+00 0.  1.
          2    1    6    6  503    0 -0.22481948185E+03  0.63179596569E+02 -0.42222111108E+02  0.23731449072E+03  0.00000000000E+00 0. -1.
         -2    1    6    6    0  503  0.59669246137E+01  0.11121499900E+02 -0.99610629006E+01  0.16078393063E+02  0.00000000000E+00 0.  1.
<mgrwt>
<rscale>  0 0.12752449E+04</rscale>
<asrwt>0</asrwt>
<pdfrwt beam="1">  1        1 0.35089395E+00 0.12752449E+04</pdfrwt>
<pdfrwt beam="2">  1       -1 0.27423608E-01 0.12752449E+04</pdfrwt>
<totfact> 0.22613788E+01</totfact>
</mgrwt>
</event>
<event>
12    3  0.4769008E-008  0.2032168E+04  0.7818608E-02  0.8591727E-01
         -2   -1    0    0    0  501 -0.00000000000E+00  0.00000000000E+00  0.12033809442E+04  0.12033809442E+04  0.00000000000E+00 0.  1.
          2   -1    0    0  501    0  0.00000000000E+00 -0.00000000000E+00 -0.85793856470E+03  0.85793856470E+03  0.00000000000E+00 0. -1.
         23    2    1    2    0    0  0.86559910973E+02  0.43348470845E+02 -0.68012492992E+03  0.69291249499E+03  0.90477053998E+02 0.  0.
        254    2    1    2    0    0 -0.86559910973E+02 -0.43348470845E+02  0.10255673094E+04  0.13684070139E+04  0.90076508673E+03 0.  0.
         23    2    4    4    0    0  0.34588025064E+03 -0.58487359730E+02  0.78648355033E+03  0.86564499360E+03  0.87925883359E+02 0.  0.
         23    2    4    4    0    0 -0.43244016162E+03  0.15138888885E+02  0.23908375910E+03  0.50276202033E+03  0.91514621146E+02 0.  0.
          3    1    3    3  502    0  0.60706861097E+02  0.50075610413E+02 -0.63929227239E+03  0.64411761292E+03  0.00000000000E+00 0. -1.
         -3    1    3    3    0  502  0.25853049876E+02 -0.67271395677E+01 -0.40832657531E+02  0.48794882065E+02  0.00000000000E+00 0.  1.
         13    1    5    5    0    0  0.92818996147E+02  0.21142829921E+02  0.17841713305E+03  0.20222526714E+03  0.00000000000E+00 0. -1.
        -13    1    5    5    0    0  0.25306125450E+03 -0.79630189652E+02  0.60806641728E+03  0.66341972646E+03  0.00000000000E+00 0.  1.
          3    1    6    6  503    0 -0.62954023669E+00  0.52109904375E+01  0.15571153707E+02  0.16432028786E+02  0.00000000000E+00 0. -1.
         -3    1    6    6    0  503 -0.43181062138E+03  0.99278984479E+01  0.22351260539E+03  0.48632999154E+03  0.00000000000E+00 0.  1.
<mgrwt>
<rscale>  0 0.20321682E+04</rscale>
<asrwt>0</asrwt>
<pdfrwt beam="1">  1        2 0.13199055E+00 0.20321682E+04</pdfrwt>
<pdfrwt beam="2">  1       -2 0.18513553E+00 0.20321682E+04</pdfrwt>
<totfact> 0.48529973E+00</totfact>
</mgrwt>
</event>
<event>
12    3  0.4769008E-008  0.1480241E+04  0.7818608E-02  0.8897700E-01
          2   -1    0    0  501    0  0.00000000000E+00  0.00000000000E+00  0.17020089806E+04  0.17020089806E+04  0.00000000000E+00 0. -1.
         -2   -1    0    0    0  501 -0.00000000000E+00 -0.00000000000E+00 -0.32184219103E+03  0.32184219103E+03  0.00000000000E+00 0.  1.
         23    2    1    2    0    0  0.28623131004E+03  0.19858236293E+03  0.86894870204E+03  0.94021309352E+03  0.86979863979E+02 0.  0.
        254    2    1    2    0    0 -0.28623131004E+03 -0.19858236293E+03  0.51121808756E+03  0.10836380782E+04  0.88969895676E+03 0.  0.
         23    2    4    4    0    0 -0.28328167466E+03 -0.30615684390E+03 -0.11431423155E+03  0.44184977999E+03  0.90459738447E+02 0.  0.
         23    2    4    4    0    0 -0.29496353777E+01  0.10757448098E+03  0.62553231911E+03  0.64178829816E+03  0.94976671321E+02 0.  0.
          2    1    3    3  502    0  0.27188384757E+03  0.20073437026E+03  0.85761855767E+03  0.92180513365E+03  0.00000000000E+00 0. -1.
         -2    1    3    3    0  502  0.14347462471E+02 -0.21520073363E+01  0.11330144369E+02  0.18407959864E+02  0.00000000000E+00 0.  1.
         13    1    5    5    0    0 -0.28448932289E+03 -0.28884613488E+03 -0.12124723126E+03  0.42316327294E+03  0.00000000000E+00 0.  1.
        -13    1    5    5    0    0  0.12076482271E+01 -0.17310709018E+02  0.69329997140E+01  0.18686507056E+02  0.00000000000E+00 0. -1.
          1    1    6    6  503    0 -0.18469475125E+02  0.16287149635E+02  0.28703784534E+02  0.37819307254E+02  0.00000000000E+00 0. -1.
         -1    1    6    6    0  503  0.15519839747E+02  0.91287331340E+02  0.59682853458E+03  0.60396899090E+03  0.00000000000E+00 0.  1.
<mgrwt>
<rscale>  0 0.14802409E+04</rscale>
<asrwt>0</asrwt>
<pdfrwt beam="1">  1        2 0.26184753E+00 0.14802409E+04</pdfrwt>
<pdfrwt beam="2">  1       -2 0.49514184E-01 0.14802409E+04</pdfrwt>
<totfact> 0.36534195E+01</totfact>
</mgrwt>
</event>
<event>
12    3  0.4769008E-008  0.1580539E+04  0.7818608E-02  0.8832594E-01
         -2   -1    0    0    0  501 -0.00000000000E+00  0.00000000000E+00  0.50279455870E+03  0.50279455870E+03  0.00000000000E+00 0.  1.
          2   -1    0    0  501    0  0.00000000000E+00 -0.00000000000E+00 -0.12421097805E+04  0.12421097805E+04  0.00000000000E+00 0. -1.
         23    2    1    2    0    0 -0.11745330209E+03 -0.40090024616E+03 -0.61503616105E+03  0.74897967925E+03  0.90469856806E+02 0.  0.
        254    2    1    2    0    0  0.11745330209E+03  0.40090024616E+03 -0.12427906070E+03  0.99592465990E+03  0.89549112655E+03 0.  0.
         23    2    4    4    0    0 -0.94660094349E+01 -0.11429769783E+03 -0.37485669781E+03  0.40233568531E+03  0.90569811326E+02 0.  0.
         23    2    4    4    0    0  0.12691931152E+03  0.51519794399E+03  0.25057763711E+03  0.59358897459E+03  0.89561629110E+02 0.  0.
          4    1    3    3  502    0 -0.73034250083E+02 -0.11189372100E+03 -0.22193713912E+03  0.25905655793E+03  0.00000000000E+00 0.  1.
         -4    1    3    3    0  502 -0.44419052002E+02 -0.28900652516E+03 -0.39309902193E+03  0.48992312132E+03  0.00000000000E+00 0. -1.
         13    1    5    5    0    0 -0.35246783359E+02 -0.25050368452E+02 -0.59316489008E+02  0.73405058170E+02  0.00000000000E+00 0.  1.
        -13    1    5    5    0    0  0.25780773924E+02 -0.89247329375E+02 -0.31554020880E+03  0.32893062714E+03  0.00000000000E+00 0. -1.
          4    1    6    6  503    0  0.13132641866E+03  0.51516566216E+03  0.24238958502E+03  0.58429016647E+03  0.00000000000E+00 0. -1.
         -4    1    6    6    0  503 -0.44071071382E+01  0.32281828897E-01  0.81880520912E+01  0.92988081222E+01  0.00000000000E+00 0.  1.
<mgrwt>
<rscale>  0 0.15805392E+04</rscale>
<asrwt>0</asrwt>
<pdfrwt beam="1">  1        2 0.19109381E+00 0.15805392E+04</pdfrwt>
<pdfrwt beam="2">  1       -2 0.77353010E-01 0.15805392E+04</pdfrwt>
<totfact> 0.25596816E+01</totfact>
</mgrwt>
</event>
<event>
12    3  0.4769008E-008  0.1134561E+04  0.7818608E-02  0.9172146E-01
         -2   -1    0    0    0  501 -0.00000000000E+00  0.00000000000E+00  0.50504747643E+03  0.50504747643E+03  0.00000000000E+00 0.  1.
          2   -1    0    0  501    0  0.00000000000E+00 -0.00000000000E+00 -0.63718240533E+03  0.63718240533E+03  0.00000000000E+00 0. -1.
         23    2    1    2    0    0  0.68488901379E+02 -0.16194260286E+03  0.53996569052E+02  0.20558580254E+03  0.91835486078E+02 0.  0.
        254    2    1    2    0    0 -0.68488901379E+02  0.16194260286E+03 -0.18613149795E+03  0.93664407922E+03  0.90096673656E+03 0.  0.
         23    2    4    4    0    0  0.35927938980E+03 -0.94466866142E+02 -0.19579290815E+03  0.42983648172E+03  0.91754397196E+02 0.  0.
         23    2    4    4    0    0 -0.42776829118E+03  0.25640946900E+03  0.96614101968E+01  0.50680759751E+03  0.89605085316E+02 0.  0.
          1    1    3    3  502    0  0.18872335074E+02 -0.18819773032E+02 -0.23411141815E+02  0.35474363267E+02  0.00000000000E+00 0. -1.
         -1    1    3    3    0  502  0.49616566305E+02 -0.14312282983E+03  0.77407710866E+02  0.17011143927E+03  0.00000000000E+00 0.  1.
         13    1    5    5    0    0  0.20421700366E+02  0.10807385356E+02  0.26916829805E+01  0.23261353815E+02  0.00000000000E+00 0. -1.
        -13    1    5    5    0    0  0.33885768943E+03 -0.10527425150E+03 -0.19848459113E+03  0.40657512790E+03  0.00000000000E+00 0.  1.
          1    1    6    6  503    0 -0.92956793574E+02  0.15779470628E+02 -0.24306965874E+01  0.94317895708E+02  0.00000000000E+00 0. -1.
         -1    1    6    6    0  503 -0.33481149760E+03  0.24062999837E+03  0.12092106784E+02  0.41248970180E+03  0.00000000000E+00 0.  1.
<mgrwt>
<rscale>  0 0.11345614E+04</rscale>
<asrwt>0</asrwt>
<pdfrwt beam="1">  1        2 0.98028061E-01 0.11345614E+04</pdfrwt>
<pdfrwt beam="2">  1       -2 0.77699613E-01 0.11345614E+04</pdfrwt>
<totfact> 0.67425368E+01</totfact>
</mgrwt>
</event>
<event>
12    3  0.4769008E-008  0.3138656E+04  0.7818608E-02  0.8205209E-01
          2   -1    0    0  501    0  0.00000000000E+00  0.00000000000E+00  0.28529036694E+04  0.28529036694E+04  0.00000000000E+00 0. -1.
         -2   -1    0    0    0  501 -0.00000000000E+00 -0.00000000000E+00 -0.86325738319E+03  0.86325738319E+03  0.00000000000E+00 0.  1.
         23    2    1    2    0    0  0.12484300017E+04  0.50292861701E+03  0.31522290159E+03  0.13853554578E+04  0.91266663512E+02 0.  0.
        254    2    1    2    0    0 -0.12484300017E+04 -0.50292861701E+03  0.16744233847E+04  0.23308055949E+04  0.90412741751E+03 0.  0.
         23    2    4    4    0    0 -0.95077865178E+03 -0.75199046150E+03  0.13263560119E+04  0.17994022004E+04  0.95699056958E+02 0.  0.
         23    2    4    4    0    0 -0.29765134987E+03  0.24906184449E+03  0.34806737272E+03  0.53140339447E+03  0.10300749116E+03 0.  0.
          3    1    3    3  502    0  0.51198337185E+03  0.20732981516E+03  0.83400985955E+02  0.55863078126E+03  0.00000000000E+00 0. -1.
         -3    1    3    3    0  502  0.73644662980E+03  0.29559880185E+03  0.23182191564E+03  0.82672467652E+03  0.00000000000E+00 0.  1.
         13    1    5    5    0    0 -0.30414233201E+03 -0.25208791708E+03  0.49858054980E+03  0.63610804169E+03  0.00000000000E+00 0.  1.
        -13    1    5    5    0    0 -0.64663631976E+03 -0.49990254442E+03  0.82777546214E+03  0.11632941587E+04  0.00000000000E+00 0. -1.
          4    1    6    6  503    0 -0.12159507833E+03  0.11200588456E+03  0.21644293288E+03  0.27235679622E+03  0.00000000000E+00 0. -1.
         -4    1    6    6    0  503 -0.17605627155E+03  0.13705595993E+03  0.13162443984E+03  0.25904659825E+03  0.00000000000E+00 0.  1.
<mgrwt>
<rscale>  0 0.31386559E+04</rscale>
<asrwt>0</asrwt>
<pdfrwt beam="1">  1        2 0.43890825E+00 0.31386559E+04</pdfrwt>
<pdfrwt beam="2">  1       -2 0.13280883E+00 0.31386559E+04</pdfrwt>
<totfact> 0.74712537E-01</totfact>
</mgrwt>
</event>
<event>
12    3  0.4769008E-008  0.2909277E+04  0.7818608E-02  0.8270123E-01
          2   -1    0    0  501    0  0.00000000000E+00  0.00000000000E+00  0.24756948303E+04  0.24756948303E+04  0.00000000000E+00 0. -1.
         -2   -1    0    0    0  501 -0.00000000000E+00 -0.00000000000E+00 -0.85469849517E+03  0.85469849517E+03  0.00000000000E+00 0.  1.
         23    2    1    2    0    0 -0.70638183809E+03 -0.99493547178E+03  0.17661991604E+03  0.12361679484E+04  0.89692294514E+02 0.  0.
        254    2    1    2    0    0  0.70638183809E+03  0.99493547178E+03  0.14443764191E+04  0.20942253771E+04  0.90038036174E+03 0.  0.
         23    2    4    4    0    0 -0.39312057085E+02  0.22096029391E+03  0.80429338418E+03  0.84011497455E+03  0.92392820689E+02 0.  0.
         23    2    4    4    0    0  0.74569389517E+03  0.77397517787E+03  0.64008303490E+03  0.12541104025E+04  0.89384835931E+02 0.  0.
          4    1    3    3  502    0 -0.62901589352E+03 -0.92545596163E+03  0.15153489568E+03  0.11291999627E+04  0.00000000000E+00 0.  1.
         -4    1    3    3    0  502 -0.77365944569E+02 -0.69479510146E+02  0.25085020359E+02  0.10696798566E+03  0.00000000000E+00 0. -1.
         13    1    5    5    0    0 -0.25281280531E+02  0.22626579694E+03  0.75767434240E+03  0.79114206255E+03  0.00000000000E+00 0.  1.
        -13    1    5    5    0    0 -0.14030776555E+02 -0.53055030319E+01  0.46619041779E+02  0.48972911997E+02  0.00000000000E+00 0. -1.
          3    1    6    6  503    0  0.25847310700E+03  0.24943371212E+03  0.16788637944E+03  0.39649887791E+03  0.00000000000E+00 0. -1.
         -3    1    6    6    0  503  0.48722078817E+03  0.52454146575E+03  0.47219665546E+03  0.85761152461E+03  0.00000000000E+00 0.  1.
<mgrwt>
<rscale>  0 0.29092766E+04</rscale>
<asrwt>0</asrwt>
<pdfrwt beam="1">  1        2 0.38087612E+00 0.29092766E+04</pdfrwt>
<pdfrwt beam="2">  1       -2 0.13149208E+00 0.29092766E+04</pdfrwt>
<totfact> 0.13080789E+00</totfact>
</mgrwt>
</event>
<event>
12    3  0.4769008E-008  0.1564149E+04  0.7818608E-02  0.8842881E-01
         -2   -1    0    0    0  501 -0.00000000000E+00  0.00000000000E+00  0.24905195208E+03  0.24905195208E+03  0.00000000000E+00 0.  1.
          2   -1    0    0  501    0  0.00000000000E+00 -0.00000000000E+00 -0.24558748971E+04  0.24558748971E+04  0.00000000000E+00 0. -1.
         23    2    1    2    0    0  0.78772917782E+02  0.32767401650E+03 -0.13360214618E+04  0.13809775946E+04  0.92576112965E+02 0.  0.
        254    2    1    2    0    0 -0.78772917782E+02 -0.32767401650E+03 -0.87080148323E+03  0.13239492546E+04  0.93860053905E+03 0.  0.
         23    2    4    4    0    0 -0.50741896437E+02  0.31169666883E+03 -0.16899334593E+03  0.36979604049E+03  0.91982646079E+02 0.  0.
         23    2    4    4    0    0 -0.28031021345E+02 -0.63937068532E+03 -0.70180813730E+03  0.95415321412E+03  0.91066366038E+02 0.  0.
          2    1    3    3  502    0  0.26216751092E+02  0.17783146614E+03 -0.53565901522E+03  0.56501498120E+03  0.00000000000E+00 0.  1.
         -2    1    3    3    0  502  0.52556166690E+02  0.14984255035E+03 -0.80036244659E+03  0.81596261340E+03  0.00000000000E+00 0. -1.
         13    1    5    5    0    0 -0.16531266276E+02  0.57426314195E+02  0.47398614423E+01  0.59946064201E+02  0.00000000000E+00 0. -1.
        -13    1    5    5    0    0 -0.34210630161E+02  0.25427035463E+03 -0.17373320737E+03  0.30984997629E+03  0.00000000000E+00 0.  1.
          3    1    6    6  503    0 -0.19854884179E+02 -0.17977413183E+03 -0.14294513955E+03  0.23053474320E+03  0.00000000000E+00 0. -1.
         -3    1    6    6    0  503 -0.81761371654E+01 -0.45959655350E+03 -0.55886299775E+03  0.72361847092E+03  0.00000000000E+00 0.  1.
<mgrwt>
<rscale>  0 0.15641489E+04</rscale>
<asrwt>0</asrwt>
<pdfrwt beam="1">  1        2 0.37782691E+00 0.15641489E+04</pdfrwt>
<pdfrwt beam="2">  1       -2 0.38315685E-01 0.15641489E+04</pdfrwt>
<totfact> 0.22883303E+01</totfact>
</mgrwt>
</event>
<event>
12    3  0.4769008E-008  0.1322342E+04  0.7818608E-02  0.9012033E-01
          1   -1    0    0  501    0  0.00000000000E+00  0.00000000000E+00  0.13898131963E+04  0.13898131963E+04  0.00000000000E+00 0. -1.
         -1   -1    0    0    0  501 -0.00000000000E+00 -0.00000000000E+00 -0.31453644022E+03  0.31453644022E+03  0.00000000000E+00 0.  1.
         23    2    1    2    0    0 -0.42086160049E+02 -0.31100316575E+03  0.48075418191E+03  0.58123736757E+03  0.90653626838E+02 0.  0.
        254    2    1    2    0    0  0.42086160049E+02  0.31100316575E+03  0.59452257420E+03  0.11231122690E+04  0.89968320177E+03 0.  0.
         23    2    4    4    0    0 -0.23955738850E+03  0.46637060159E+03  0.12490021396E+03  0.54678341957E+03  0.92101922081E+02 0.  0.
         23    2    4    4    0    0  0.28164354855E+03 -0.15536743584E+03  0.46962236024E+03  0.57632884942E+03  0.90264349992E+02 0.  0.
          1    1    3    3  502    0  0.31935421086E+01 -0.20490226939E+03  0.35997437846E+03  0.41421816940E+03  0.00000000000E+00 0. -1.
         -1    1    3    3    0  502 -0.45279702157E+02 -0.10610089636E+03  0.12077980345E+03  0.16701919817E+03  0.00000000000E+00 0.  1.
         13    1    5    5    0    0 -0.75760161146E+02  0.10666099282E+03  0.68049558555E+02  0.14746834177E+03  0.00000000000E+00 0.  1.
        -13    1    5    5    0    0 -0.16379722736E+03  0.35970960877E+03  0.56850655405E+02  0.39931507779E+03  0.00000000000E+00 0. -1.
          1    1    6    6  503    0  0.72568968321E+02 -0.24722745459E+00  0.12328235059E+03  0.14305542371E+03  0.00000000000E+00 0.  1.
         -1    1    6    6    0  503  0.20907458023E+03 -0.15512020839E+03  0.34634000965E+03  0.43327342572E+03  0.00000000000E+00 0. -1.
<mgrwt>
<rscale>  0 0.13223417E+04</rscale>
<asrwt>0</asrwt>
<pdfrwt beam="1">  1        1 0.21381741E+00 0.13223417E+04</pdfrwt>
<pdfrwt beam="2">  1       -1 0.48390222E-01 0.13223417E+04</pdfrwt>
<totfact> 0.32719873E+01</totfact>
</mgrwt>
</event>
<event>
12    3  0.4769008E-008  0.2215895E+04  0.7818608E-02  0.8511841E-01
         -1   -1    0    0    0  501 -0.00000000000E+00  0.00000000000E+00  0.10153476440E+04  0.10153476440E+04  0.00000000000E+00 0.  1.
          1   -1    0    0  501    0  0.00000000000E+00 -0.00000000000E+00 -0.12089927805E+04  0.12089927805E+04  0.00000000000E+00 0. -1.
         23    2    1    2    0    0  0.78043573143E+03  0.39483470589E+03  0.21307382717E+03  0.90469244981E+03  0.89964421048E+02 0.  0.
        254    2    1    2    0    0 -0.78043573143E+03 -0.39483470589E+03 -0.40671896363E+03  0.13196479747E+04  0.90059762708E+03 0.  0.
         23    2    4    4    0    0 -0.35312074585E+03  0.89919829435E+02  0.20308912566E+03  0.42694460858E+03  0.90866214615E+02 0.  0.
         23    2    4    4    0    0 -0.42731498558E+03 -0.48475453533E+03 -0.60980808929E+03  0.89270336613E+03  0.86419544759E+02 0.  0.
          4    1    3    3  502    0  0.64367738483E+02  0.78405555405E+01  0.82607326256E+01  0.65367574317E+02  0.00000000000E+00 0. -1.
         -4    1    3    3    0  502  0.71606799295E+03  0.38699415035E+03  0.20481309455E+03  0.83932487550E+03  0.00000000000E+00 0.  1.
         13    1    5    5    0    0 -0.12180549591E+03 -0.11539382181E+02  0.54985364005E+02  0.13413845992E+03  0.00000000000E+00 0.  1.
        -13    1    5    5    0    0 -0.23131524995E+03  0.10145921162E+03  0.14810376165E+03  0.29280614866E+03  0.00000000000E+00 0. -1.
          2    1    6    6  503    0 -0.22990946979E+03 -0.23397428181E+03 -0.25508535363E+03  0.41553684130E+03  0.00000000000E+00 0. -1.
         -2    1    6    6    0  503 -0.19740551579E+03 -0.25078025352E+03 -0.35472273566E+03  0.47716652482E+03  0.00000000000E+00 0.  1.
<mgrwt>
<rscale>  0 0.22158953E+04</rscale>
<asrwt>0</asrwt>
<pdfrwt beam="1">  1        1 0.18599889E+00 0.22158953E+04</pdfrwt>
<pdfrwt beam="2">  1       -1 0.15620733E+00 0.22158953E+04</pdfrwt>
<totfact> 0.29936279E+00</totfact>
</mgrwt>
</event>
<event>
12    3  0.5021150E-008  0.1472549E+04  0.7818608E-02  0.8902916E-01
          2   -1    0    0  501    0  0.00000000000E+00  0.00000000000E+00  0.16578298950E+04  0.16578298950E+04  0.00000000000E+00 0. -1.
         -2   -1    0    0    0  501 -0.00000000000E+00 -0.00000000000E+00 -0.32699383038E+03  0.32699383038E+03  0.00000000000E+00 0.  1.
         23    2    1    2    0    0 -0.92922172791E+02  0.90757649691E+02 -0.16788479483E+03  0.23106683579E+03  0.91296752910E+02 0.  0.
        254    2    1    2    0    0  0.92922172791E+02 -0.90757649691E+02  0.14987208594E+04  0.17537568896E+04  0.90145855815E+03 0.  0.
         23    2    4    4    0    0 -0.18226003512E+03 -0.36576127948E+03  0.38035872678E+03  0.56590618136E+03  0.92612154119E+02 0.  0.
         23    2    4    4    0    0  0.27518220791E+03  0.27500362979E+03  0.11183621327E+04  0.11878507082E+04  0.94356776729E+02 0.  0.
          1    1    3    3  502    0 -0.43932819290E+02  0.18668649032E+02 -0.72128787627E+01  0.48276668149E+02  0.00000000000E+00 0. -1.
         -1    1    3    3    0  502 -0.48989353500E+02  0.72089000659E+02 -0.16067191607E+03  0.18279016764E+03  0.00000000000E+00 0.  1.
         13    1    5    5    0    0 -0.21310290873E+02 -0.70080341025E+01  0.65406631590E+01  0.23367098956E+02  0.00000000000E+00 0. -1.
        -13    1    5    5    0    0 -0.16094974425E+03 -0.35875324538E+03  0.37381806362E+03  0.54253908240E+03  0.00000000000E+00 0.  1.
          2    1    6    6  503    0  0.77169095541E+02  0.29371463665E+02  0.18456843283E+03  0.20219608944E+03  0.00000000000E+00 0. -1.
         -2    1    6    6    0  503  0.19801311237E+03  0.24563216613E+03  0.93379369982E+03  0.98565461878E+03  0.00000000000E+00 0.  1.
<mgrwt>
<rscale>  0 0.14725490E+04</rscale>
<asrwt>0</asrwt>
<pdfrwt beam="1">  1        2 0.25505075E+00 0.14725490E+04</pdfrwt>
<pdfrwt beam="2">  1       -2 0.50306744E-01 0.14725490E+04</pdfrwt>
<totfact> 0.37451232E+01</totfact>
</mgrwt>
</event>
<event>
12    3  0.4769008E-008  0.1193753E+04  0.7818608E-02  0.9118342E-01
          1   -1    0    0  501    0  0.00000000000E+00  0.00000000000E+00  0.13659562023E+04  0.13659562023E+04  0.00000000000E+00 0. -1.
         -1   -1    0    0    0  501 -0.00000000000E+00 -0.00000000000E+00 -0.26081492132E+03  0.26081492132E+03  0.00000000000E+00 0.  1.
         23    2    1    2    0    0 -0.14512158067E+03 -0.17561557321E+03  0.12376145379E+03  0.27487051790E+03  0.91300610268E+02 0.  0.
        254    2    1    2    0    0  0.14512158067E+03  0.17561557321E+03  0.98137982717E+03  0.13519006057E+04  0.90145869554E+03 0.  0.
         23    2    4    4    0    0  0.28142381263E+03  0.30436768291E+03  0.10496440407E+04  0.11323771675E+04  0.93200797143E+02 0.  0.
         23    2    4    4    0    0 -0.13630223196E+03 -0.12875210970E+03 -0.68264213488E+02  0.21952343823E+03  0.91515752207E+02 0.  0.
          1    1    3    3  502    0 -0.33794952577E+02  0.31101435584E+01  0.25825735039E+02  0.42646692754E+02  0.00000000000E+00 0. -1.
         -1    1    3    3    0  502 -0.11132662810E+03 -0.17872571677E+03  0.97935718751E+02  0.23222382515E+03  0.00000000000E+00 0.  1.
         13    1    5    5    0    0  0.23044707142E+03  0.18684329761E+03  0.72151768370E+03  0.78013078293E+03  0.00000000000E+00 0. -1.
        -13    1    5    5    0    0  0.50976741215E+02  0.11752438530E+03  0.32812635695E+03  0.35224638453E+03  0.00000000000E+00 0.  1.
          3    1    6    6  503    0 -0.11537036233E+03 -0.12109753895E+03 -0.22687091600E+02  0.16878873947E+03  0.00000000000E+00 0. -1.
         -3    1    6    6    0  503 -0.20931869624E+02 -0.76545707457E+01 -0.45577121889E+02  0.50734698766E+02  0.00000000000E+00 0.  1.
<mgrwt>
<rscale>  0 0.11937533E+04</rscale>
<asrwt>0</asrwt>
<pdfrwt beam="1">  1        1 0.21014710E+00 0.11937533E+04</pdfrwt>
<pdfrwt beam="2">  1       -1 0.40125373E-01 0.11937533E+04</pdfrwt>
<totfact> 0.48668343E+01</totfact>
</mgrwt>
</event>
<event>
12    3  0.4769008E-008  0.1546281E+04  0.7818608E-02  0.8854247E-01
          1   -1    0    0  501    0  0.00000000000E+00  0.00000000000E+00  0.49467525048E+03  0.49467525048E+03  0.00000000000E+00 0. -1.
         -1   -1    0    0    0  501 -0.00000000000E+00 -0.00000000000E+00 -0.12083603463E+04  0.12083603463E+04  0.00000000000E+00 0.  1.
         23    2    1    2    0    0  0.46878952510E+03  0.18375258169E+03 -0.27023921827E+03  0.57875751127E+03  0.91664560426E+02 0.  0.
        254    2    1    2    0    0 -0.46878952510E+03 -0.18375258169E+03 -0.44344587753E+03  0.11242780855E+04  0.90212434680E+03 0.  0.
         23    2    4    4    0    0 -0.41805221141E+03  0.80665549251E+02  0.15438453707E+03  0.46257648376E+03  0.94169186791E+02 0.  0.
         23    2    4    4    0    0 -0.50737313692E+02 -0.26441813094E+03 -0.59783041461E+03  0.66170160173E+03  0.89199675589E+02 0.  0.
          1    1    3    3  502    0  0.34608745833E+03  0.15056124281E+03 -0.15790037483E+03  0.40911825310E+03  0.00000000000E+00 0. -1.
         -1    1    3    3    0  502  0.12270206677E+03  0.33191338879E+02 -0.11233884344E+03  0.16963925817E+03  0.00000000000E+00 0.  1.
         13    1    5    5    0    0  0.35679705233E+01 -0.21950800662E+01  0.72957393590E+01  0.84128831531E+01  0.00000000000E+00 0. -1.
        -13    1    5    5    0    0 -0.42162018194E+03  0.82860629318E+02  0.14708879772E+03  0.45416360061E+03  0.00000000000E+00 0.  1.
          2    1    6    6  503    0 -0.20422266926E+01  0.68026712499E+01 -0.25804461951E+02  0.26764104368E+02  0.00000000000E+00 0. -1.
         -2    1    6    6    0  503 -0.48695086999E+02 -0.27122080219E+03 -0.57202595266E+03  0.63493749736E+03  0.00000000000E+00 0.  1.
<mgrwt>
<rscale>  0 0.15462806E+04</rscale>
<asrwt>0</asrwt>
<pdfrwt beam="1">  1        1 0.76103885E-01 0.15462806E+04</pdfrwt>
<pdfrwt beam="2">  1       -1 0.18590159E+00 0.15462806E+04</pdfrwt>
<totfact> 0.81864298E+00</totfact>
</mgrwt>
</event>
<event>
12    3  0.4769008E-008  0.1962544E+04  0.7818608E-02  0.8624336E-01
          2   -1    0    0  501    0  0.00000000000E+00  0.00000000000E+00  0.26557146301E+04  0.26557146301E+04  0.00000000000E+00 0.  1.
         -2   -1    0    0    0  501 -0.00000000000E+00 -0.00000000000E+00 -0.36257444466E+03  0.36257444466E+03  0.00000000000E+00 0. -1.
         23    2    1    2    0    0 -0.59541433079E+02 -0.24032024327E+03  0.20224296581E+04  0.20396373711E+04  0.92735549214E+02 0.  0.
        254    2    1    2    0    0  0.59541433079E+02  0.24032024327E+03  0.27071052736E+03  0.97865170368E+03  0.90729045290E+03 0.  0.
         23    2    4    4    0    0 -0.28514978451E+03  0.21078972902E+03 -0.17579068275E+03  0.40674350930E+03  0.93782774268E+02 0.  0.
         23    2    4    4    0    0  0.34469121759E+03  0.29530514249E+02  0.44650121012E+03  0.57190819438E+03  0.89619001375E+02 0.  0.
          4    1    3    3  502    0 -0.58038382906E+00 -0.49100653198E+01  0.31587975726E+03  0.31591844934E+03  0.00000000000E+00 0. -1.
         -4    1    3    3    0  502 -0.58961049250E+02 -0.23541017795E+03  0.17065499008E+04  0.17237189218E+04  0.00000000000E+00 0.  1.
         13    1    5    5    0    0 -0.10094685161E+03  0.12056484068E+03 -0.45300256314E+02  0.16364064556E+03  0.00000000000E+00 0. -1.
        -13    1    5    5    0    0 -0.18420293290E+03  0.90224888336E+02 -0.13049042644E+03  0.24310286374E+03  0.00000000000E+00 0.  1.
          3    1    6    6  503    0  0.69584611503E+02 -0.30075941255E+02  0.89929355890E+02  0.11761747086E+03  0.00000000000E+00 0. -1.
         -3    1    6    6    0  503  0.27510660609E+03  0.59606455504E+02  0.35657185423E+03  0.45429072352E+03  0.00000000000E+00 0.  1.
<mgrwt>
<rscale>  0 0.19625435E+04</rscale>
<asrwt>0</asrwt>
<pdfrwt beam="1">  1        2 0.40857147E+00 0.19625435E+04</pdfrwt>
<pdfrwt beam="2">  1       -2 0.55780686E-01 0.19625435E+04</pdfrwt>
<totfact> 0.79463877E+00</totfact>
</mgrwt>
</event>
<event>
12    3  0.4769008E-008  0.2070366E+04  0.7818608E-02  0.8574411E-01
         -1   -1    0    0    0  501 -0.00000000000E+00  0.00000000000E+00  0.49684701519E+03  0.49684701519E+03  0.00000000000E+00 0.  1.
          1   -1    0    0  501    0  0.00000000000E+00 -0.00000000000E+00 -0.21568088790E+04  0.21568088790E+04  0.00000000000E+00 0. -1.
         23    2    1    2    0    0 -0.11881732552E+03 -0.78047069667E+03 -0.33682395555E+03  0.86337100352E+03  0.93311561317E+02 0.  0.
        254    2    1    2    0    0  0.11881732552E+03  0.78047069667E+03 -0.13231379083E+04  0.17902848907E+04  0.91168744662E+03 0.  0.
         23    2    4    4    0    0  0.25531014696E+03  0.19731869911E+03 -0.65482741619E+00  0.33565712862E+03  0.92451820088E+02 0.  0.
         23    2    4    4    0    0 -0.13649282143E+03  0.58315199756E+03 -0.13224830809E+04  0.14546277621E+04  0.91015847358E+02 0.  0.
          2    1    3    3  502    0 -0.11068021766E+03 -0.60520715799E+03 -0.29826857239E+03  0.68373237157E+03  0.00000000000E+00 0. -1.
         -2    1    3    3    0  502 -0.81371078583E+01 -0.17526353868E+03 -0.38555383161E+02  0.17963863195E+03  0.00000000000E+00 0.  1.
         13    1    5    5    0    0  0.20968391035E+03  0.17455682362E+03  0.32614083142E+02  0.27477464467E+03  0.00000000000E+00 0.  1.
        -13    1    5    5    0    0  0.45626236609E+02  0.22761875486E+02 -0.33268910558E+02  0.60882483955E+02  0.00000000000E+00 0. -1.
          1    1    6    6  503    0 -0.11515080441E+02  0.10865992920E+03 -0.17062988407E+03  0.20261819916E+03  0.00000000000E+00 0. -1.
         -1    1    6    6    0  503 -0.12497774099E+03  0.47449206836E+03 -0.11518531968E+04  0.12520095629E+04  0.00000000000E+00 0.  1.
<mgrwt>
<rscale>  0 0.20703662E+04</rscale>
<asrwt>0</asrwt>
<pdfrwt beam="1">  1        1 0.33181675E+00 0.20703662E+04</pdfrwt>
<pdfrwt beam="2">  1       -1 0.76438003E-01 0.20703662E+04</pdfrwt>
<totfact> 0.36928234E+00</totfact>
</mgrwt>
</event>
<event>
12    3  0.4769008E-008  0.1155183E+04  0.7818608E-02  0.9153015E-01
         -2   -1    0    0    0  501 -0.00000000000E+00  0.00000000000E+00  0.43346959968E+03  0.43346959968E+03  0.00000000000E+00 0.  1.
          2   -1    0    0  501    0  0.00000000000E+00 -0.00000000000E+00 -0.76963174925E+03  0.76963174925E+03  0.00000000000E+00 0. -1.
         23    2    1    2    0    0  0.11946506407E+03  0.15550638601E+03  0.13936219496E+02  0.21673082549E+03  0.91235381727E+02 0.  0.
        254    2    1    2    0    0 -0.11946506407E+03 -0.15550638601E+03 -0.35009836907E+03  0.98637052344E+03  0.90105704807E+03 0.  0.
         23    2    4    4    0    0  0.37100102824E+03 -0.63859982567E+02 -0.27280589173E+03  0.47369048686E+03  0.90773137300E+02 0.  0.
         23    2    4    4    0    0 -0.49046609231E+03 -0.91646403444E+02 -0.77292477340E+02  0.51268003658E+03  0.88941789287E+02 0.  0.
          2    1    3    3  502    0  0.45846018592E+02  0.12166711804E+03 -0.14584863416E+02  0.13083372376E+03  0.00000000000E+00 0. -1.
         -2    1    3    3    0  502  0.73619045479E+02  0.33839267970E+02  0.28521082911E+02  0.85897101723E+02  0.00000000000E+00 0.  1.
         13    1    5    5    0    0  0.35958000916E+03 -0.57241667241E+02 -0.27938202815E+03  0.45894303471E+03  0.00000000000E+00 0. -1.
        -13    1    5    5    0    0  0.11421019082E+02 -0.66183153268E+01  0.65761364282E+01  0.14747452151E+02  0.00000000000E+00 0.  1.
          1    1    6    6  503    0 -0.38646489214E+01  0.86709199166E+01 -0.46235157434E+01  0.10559226360E+02  0.00000000000E+00 0.  1.
         -1    1    6    6    0  503 -0.48660144339E+03 -0.10031732336E+03 -0.72668961597E+02  0.50212081022E+03  0.00000000000E+00 0. -1.
<mgrwt>
<rscale>  0 0.11551830E+04</rscale>
<asrwt>0</asrwt>
<pdfrwt beam="1">  1        2 0.11840488E+00 0.11551830E+04</pdfrwt>
<pdfrwt beam="2">  1       -2 0.66687631E-01 0.11551830E+04</pdfrwt>
<totfact> 0.74143312E+01</totfact>
</mgrwt>
</event>
<event>
12    3  0.4769008E-008  0.1475892E+04  0.7818608E-02  0.8900644E-01
         -1   -1    0    0    0  501 -0.00000000000E+00  0.00000000000E+00  0.28801014515E+03  0.28801014515E+03  0.00000000000E+00 0.  1.
          1   -1    0    0  501    0  0.00000000000E+00 -0.00000000000E+00 -0.18907821606E+04  0.18907821606E+04  0.00000000000E+00 0. -1.
         23    2    1    2    0    0 -0.45003921760E+02 -0.26500158642E+03 -0.10499182727E+04  0.10877072924E+04  0.92344900894E+02 0.  0.
        254    2    1    2    0    0  0.45003921760E+02  0.26500158642E+03 -0.55285374275E+03  0.10910850134E+04  0.90142556642E+03 0.  0.
         23    2    4    4    0    0 -0.28233286844E+03 -0.93272099671E+02  0.46797711670E+02  0.31451431280E+03  0.91201392341E+02 0.  0.
         23    2    4    4    0    0  0.32733679020E+03  0.35827368610E+03 -0.59965145442E+03  0.77657070058E+03  0.89279212901E+02 0.  0.
          1    1    3    3  502    0 -0.11678411526E+02 -0.18244998048E+03 -0.84046918722E+03  0.86012373258E+03  0.00000000000E+00 0. -1.
         -1    1    3    3    0  502 -0.33325510234E+02 -0.82551605944E+02 -0.20944908552E+03  0.22758355982E+03  0.00000000000E+00 0.  1.
         13    1    5    5    0    0 -0.27658364864E+03 -0.97834287071E+02  0.59962291094E+02  0.29944204577E+03  0.00000000000E+00 0. -1.
        -13    1    5    5    0    0 -0.57492197955E+01  0.45621873999E+01 -0.13164579424E+02  0.15072267034E+02  0.00000000000E+00 0.  1.
          3    1    6    6  503    0  0.20649557458E+03  0.26185163650E+03 -0.35412031477E+03  0.48642358001E+03  0.00000000000E+00 0. -1.
         -3    1    6    6    0  503  0.12084121562E+03  0.96422049597E+02 -0.24553113965E+03  0.29014712057E+03  0.00000000000E+00 0.  1.
<mgrwt>
<rscale>  0 0.14758922E+04</rscale>
<asrwt>0</asrwt>
<pdfrwt beam="1">  1        1 0.29088957E+00 0.14758922E+04</pdfrwt>
<pdfrwt beam="2">  1       -1 0.44309252E-01 0.14758922E+04</pdfrwt>
<totfact> 0.17277128E+01</totfact>
</mgrwt>
</event>
<event>
12    3  0.4769008E-008  0.1716795E+04  0.7818608E-02  0.8751843E-01
         -2   -1    0    0    0  501 -0.00000000000E+00  0.00000000000E+00  0.25553035602E+03  0.25553035602E+03  0.00000000000E+00 0.  1.
          2   -1    0    0  501    0  0.00000000000E+00 -0.00000000000E+00 -0.28835964911E+04  0.28835964911E+04  0.00000000000E+00 0. -1.
         23    2    1    2    0    0  0.23391033620E+03  0.53338512329E+03 -0.57798103872E+03  0.82550635766E+03  0.90470604576E+02 0.  0.
        254    2    1    2    0    0 -0.23391033620E+03 -0.53338512329E+03 -0.20500850964E+04  0.23136204895E+04  0.90043163639E+03 0.  0.
         23    2    4    4    0    0 -0.53709016302E+03 -0.13657293575E+03 -0.98587883363E+03  0.11346256385E+04  0.91105735566E+02 0.  0.
         23    2    4    4    0    0  0.30317982682E+03 -0.39681218754E+03 -0.10642062627E+04  0.11789948509E+04  0.90088674500E+02 0.  0.
          1    1    3    3  502    0  0.96198283337E+02  0.13177034563E+03 -0.13320919561E+03  0.21062341631E+03  0.00000000000E+00 0. -1.
         -1    1    3    3    0  502  0.13771205287E+03  0.40161477766E+03 -0.44477184311E+03  0.61488294135E+03  0.00000000000E+00 0.  1.
         13    1    5    5    0    0 -0.40042487169E+03 -0.75760359060E+02 -0.65380244131E+03  0.77041374738E+03  0.00000000000E+00 0. -1.
        -13    1    5    5    0    0 -0.13666529133E+03 -0.60812576687E+02 -0.33207639232E+03  0.36421189117E+03  0.00000000000E+00 0.  1.
          2    1    6    6  503    0  0.17957448122E+03 -0.27847979418E+03 -0.77653681921E+03  0.84427923204E+03  0.00000000000E+00 0. -1.
         -2    1    6    6    0  503  0.12360534560E+03 -0.11833239336E+03 -0.28766944352E+03  0.33471561887E+03  0.00000000000E+00 0.  1.
<mgrwt>
<rscale>  0 0.17167952E+04</rscale>
<asrwt>0</asrwt>
<pdfrwt beam="1">  1        2 0.44363022E+00 0.17167952E+04</pdfrwt>
<pdfrwt beam="2">  1       -2 0.39312363E-01 0.17167952E+04</pdfrwt>
<totfact> 0.12001448E+01</totfact>
</mgrwt>
</event>
<event>
12    3  0.4769008E-008  0.1382721E+04  0.7818608E-02  0.8966422E-01
         -1   -1    0    0    0  501 -0.00000000000E+00  0.00000000000E+00  0.10640622425E+04  0.10640622425E+04  0.00000000000E+00 0.  1.
          1   -1    0    0  501    0  0.00000000000E+00 -0.00000000000E+00 -0.44920233806E+03  0.44920233806E+03  0.00000000000E+00 0. -1.
         23    2    1    2    0    0  0.46126724121E+02  0.91488655745E+02 -0.22971574212E+03  0.26742343235E+03  0.90819167494E+02 0.  0.
        254    2    1    2    0    0 -0.46126724121E+02 -0.91488655745E+02  0.84457564654E+03  0.12458411482E+04  0.91011773690E+03 0.  0.
         23    2    4    4    0    0  0.17063157207E+03  0.34849643658E+03  0.24913172033E+03  0.46857864335E+03  0.83273232430E+02 0.  0.
         23    2    4    4    0    0 -0.21675829619E+03 -0.43998509232E+03  0.59544392621E+03  0.77726250485E+03  0.94934144301E+02 0.  0.
          1    1    3    3  502    0  0.86241896069E+01 -0.55430675878E+00 -0.11630005793E+03  0.11662069875E+03  0.00000000000E+00 0. -1.
         -1    1    3    3    0  502  0.37502534515E+02  0.92042962504E+02 -0.11341568419E+03  0.15080273360E+03  0.00000000000E+00 0.  1.
         13    1    5    5    0    0 -0.24491952658E+01 -0.22482613952E+01 -0.18961252423E+01  0.38273395049E+01  0.00000000000E+00 0. -1.
        -13    1    5    5    0    0  0.17308076733E+03  0.35074469797E+03  0.25102784557E+03  0.46475130385E+03  0.00000000000E+00 0.  1.
          2    1    6    6  503    0 -0.89668924528E+02 -0.27751585926E+03  0.31715541321E+03  0.43086323154E+03  0.00000000000E+00 0. -1.
         -2    1    6    6    0  503 -0.12708937166E+03 -0.16246923306E+03  0.27828851300E+03  0.34639927331E+03  0.00000000000E+00 0.  1.
<mgrwt>
<rscale>  0 0.13827209E+04</rscale>
<asrwt>0</asrwt>
<pdfrwt beam="1">  1        1 0.69108053E-01 0.13827209E+04</pdfrwt>
<pdfrwt beam="2">  1       -1 0.16370188E+00 0.13827209E+04</pdfrwt>
<totfact> 0.13733156E+01</totfact>
</mgrwt>
</event>
<event>
12    3  0.4769008E-008  0.1245876E+04  0.7818608E-02  0.9073623E-01
         -1   -1    0    0    0  501 -0.00000000000E+00  0.00000000000E+00  0.24821189276E+03  0.24821189276E+03  0.00000000000E+00 0.  1.
          1   -1    0    0  501    0  0.00000000000E+00 -0.00000000000E+00 -0.15633891480E+04  0.15633891480E+04  0.00000000000E+00 0. -1.
         23    2    1    2    0    0 -0.17753613501E+03  0.21330547826E+03 -0.30744880795E+03  0.42414744481E+03  0.91421983882E+02 0.  0.
        254    2    1    2    0    0  0.17753613501E+03 -0.21330547826E+03 -0.10077284473E+04  0.13874535960E+04  0.91241029761E+03 0.  0.
         23    2    4    4    0    0  0.27568562909E+03 -0.32096565612E+03 -0.75980664003E+02  0.43950567726E+03  0.91491314031E+02 0.  0.
         23    2    4    4    0    0 -0.98149494081E+02  0.10766017786E+03 -0.93174778330E+03  0.94794791872E+03  0.96058772764E+02 0.  0.
          3    1    3    3  502    0 -0.12309654852E+03  0.16872928734E+03 -0.16833368377E+03  0.26825093058E+03  0.00000000000E+00 0. -1.
         -3    1    3    3    0  502 -0.54439586497E+02  0.44576190921E+02 -0.13911512418E+03  0.15589651423E+03  0.00000000000E+00 0.  1.
         13    1    5    5    0    0  0.95065536362E+02 -0.16600383442E+03 -0.57875149979E+01  0.19138501659E+03  0.00000000000E+00 0. -1.
        -13    1    5    5    0    0  0.18062009273E+03 -0.15496182170E+03 -0.70193149006E+02  0.24812066067E+03  0.00000000000E+00 0.  1.
          4    1    6    6  503    0 -0.71630031524E+02  0.12148389692E+03 -0.82999646462E+03  0.84189270689E+03  0.00000000000E+00 0. -1.
         -4    1    6    6    0  503 -0.26519462557E+02 -0.13823719055E+02 -0.10175131868E+03  0.10605521183E+03  0.00000000000E+00 0.  1.
<mgrwt>
<rscale>  0 0.12458760E+04</rscale>
<asrwt>0</asrwt>
<pdfrwt beam="1">  1        1 0.24052141E+00 0.12458760E+04</pdfrwt>
<pdfrwt beam="2">  1       -1 0.38186444E-01 0.12458760E+04</pdfrwt>
<totfact> 0.38668689E+01</totfact>
</mgrwt>
</event>
<event>
12    3  0.4769008E-008  0.1574517E+04  0.7818608E-02  0.8836358E-01
          1   -1    0    0  501    0  0.00000000000E+00  0.00000000000E+00  0.96343393852E+03  0.96343393852E+03  0.00000000000E+00 0. -1.
         -1   -1    0    0    0  501 -0.00000000000E+00 -0.00000000000E+00 -0.64329866273E+03  0.64329866273E+03  0.00000000000E+00 0.  1.
         23    2    1    2    0    0  0.23638788860E+03 -0.42150671136E+03  0.30899077078E+03  0.58098285639E+03  0.92296486336E+02 0.  0.
        254    2    1    2    0    0 -0.23638788860E+03  0.42150671136E+03  0.11144505007E+02  0.10257497449E+04  0.90470503342E+03 0.  0.
         23    2    4    4    0    0 -0.34984371321E+03  0.34815642604E+03  0.37546345199E+03  0.62681505771E+03  0.91218376000E+02 0.  0.
         23    2    4    4    0    0  0.11345582460E+03  0.73350285321E+02 -0.36431894698E+03  0.39893468715E+03  0.90377546938E+02 0.  0.
          2    1    3    3  502    0  0.24162537016E+03 -0.42242386161E+03  0.30487768772E+03  0.57426051827E+03  0.00000000000E+00 0. -1.
         -2    1    3    3    0  502 -0.52374815562E+01  0.91715025216E+00  0.41130830596E+01  0.67223381269E+01  0.00000000000E+00 0.  1.
         13    1    5    5    0    0 -0.86115573413E+02  0.56792943325E+02  0.11925202943E+03  0.15767808002E+03  0.00000000000E+00 0.  1.
        -13    1    5    5    0    0 -0.26372813980E+03  0.29136348272E+03  0.25621142256E+03  0.46913697768E+03  0.00000000000E+00 0. -1.
          1    1    6    6  503    0  0.30667169104E+02 -0.20843454828E+02 -0.87726820189E+02  0.95241376778E+02  0.00000000000E+00 0. -1.
         -1    1    6    6    0  503  0.82788655501E+02  0.94193740150E+02 -0.27659212679E+03  0.30369331038E+03  0.00000000000E+00 0.  1.
<mgrwt>
<rscale>  0 0.15745168E+04</rscale>
<asrwt>0</asrwt>
<pdfrwt beam="1">  1        1 0.14822061E+00 0.15745168E+04</pdfrwt>
<pdfrwt beam="2">  1       -1 0.98969025E-01 0.15745168E+04</pdfrwt>
<totfact> 0.15178733E+01</totfact>
</mgrwt>
</event>
<event>
12    3  0.4769008E-008  0.2150876E+04  0.7818608E-02  0.8539157E-01
          3   -1    0    0  501    0  0.00000000000E+00  0.00000000000E+00  0.18185970366E+04  0.18185970366E+04  0.00000000000E+00 0. -1.
         -3   -1    0    0    0  501 -0.00000000000E+00 -0.00000000000E+00 -0.63596641431E+03  0.63596641431E+03  0.00000000000E+00 0.  1.
         23    2    1    2    0    0 -0.32904951966E+03 -0.68353667637E+03  0.10079880384E+04  0.12648491798E+04  0.91145969741E+02 0.  0.
        254    2    1    2    0    0  0.32904951966E+03  0.68353667637E+03  0.17464258386E+03  0.11897142711E+04  0.89967996550E+03 0.  0.
         23    2    4    4    0    0  0.21888718379E+03  0.13693218809E+03  0.47634031467E+03  0.54942943299E+03  0.91162399550E+02 0.  0.
         23    2    4    4    0    0  0.11016233587E+03  0.54660448829E+03 -0.30169773081E+03  0.64028483806E+03  0.89615546719E+02 0.  0.
          2    1    3    3  502    0 -0.32189113426E+03 -0.64878897650E+03  0.92660025156E+03  0.11760650767E+04  0.00000000000E+00 0. -1.
         -2    1    3    3    0  502 -0.71583853997E+01 -0.34747699877E+02  0.81387786832E+02  0.88784103158E+02  0.00000000000E+00 0.  1.
         13    1    5    5    0    0  0.19545396413E+03  0.93592576728E+02  0.32801777301E+03  0.39313799349E+03  0.00000000000E+00 0.  1.
        -13    1    5    5    0    0  0.23433219657E+02  0.43339611358E+02  0.14832254166E+03  0.15629143950E+03  0.00000000000E+00 0. -1.
          1    1    6    6  503    0  0.25207573783E+02  0.26342976550E+02 -0.99903779168E+01  0.37804521429E+02  0.00000000000E+00 0. -1.
         -1    1    6    6    0  503  0.84954762084E+02  0.52026151174E+03 -0.29170735290E+03  0.60248031663E+03  0.00000000000E+00 0.  1.
<mgrwt>
<rscale>  0 0.21508758E+04</rscale>
<asrwt>0</asrwt>
<pdfrwt beam="1">  1        3 0.27978416E+00 0.21508758E+04</pdfrwt>
<pdfrwt beam="2">  1       -3 0.97840988E-01 0.21508758E+04</pdfrwt>
<totfact> 0.11041175E-01</totfact>
</mgrwt>
</event>
<event>
12    3  0.4769008E-008  0.1336998E+04  0.7818608E-02  0.9000729E-01
          2   -1    0    0  501    0  0.00000000000E+00  0.00000000000E+00  0.64603121720E+03  0.64603121720E+03  0.00000000000E+00 0.  1.
         -2   -1    0    0    0  501 -0.00000000000E+00 -0.00000000000E+00 -0.69174846726E+03  0.69174846726E+03  0.00000000000E+00 0. -1.
         23    2    1    2    0    0 -0.27585454192E+03 -0.42919690249E+02 -0.23248883500E+03  0.37499237051E+03  0.92899900055E+02 0.  0.
        254    2    1    2    0    0  0.27585454192E+03  0.42919690249E+02  0.18677158495E+03  0.96278731395E+03  0.90229593751E+03 0.  0.
         23    2    4    4    0    0  0.57136259210E+03 -0.11501455809E+03  0.16655313617E+03  0.61304350849E+03  0.91645163039E+02 0.  0.
         23    2    4    4    0    0 -0.29550805018E+03  0.15793424834E+03  0.20218448777E+02  0.34974380546E+03  0.98202389303E+02 0.  0.
          3    1    3    3  502    0 -0.14151909644E+03  0.10511382607E+02 -0.15795368194E+03  0.21233819595E+03  0.00000000000E+00 0. -1.
         -3    1    3    3    0  502 -0.13433544548E+03 -0.53431072856E+02 -0.74535153059E+02  0.16265417455E+03  0.00000000000E+00 0.  1.
         13    1    5    5    0    0  0.72735914611E+02 -0.67353124040E+01  0.53172427546E+02  0.90350344540E+02  0.00000000000E+00 0.  1.
        -13    1    5    5    0    0  0.49862667749E+03 -0.10827924569E+03  0.11338070862E+03  0.52269316395E+03  0.00000000000E+00 0. -1.
          1    1    6    6  503    0 -0.26937632013E+03  0.17040631745E+03  0.27353877715E+02  0.31992209911E+03  0.00000000000E+00 0. -1.
         -1    1    6    6    0  503 -0.26131730055E+02 -0.12472069109E+02 -0.71354289374E+01  0.29821706351E+02  0.00000000000E+00 0.  1.
<mgrwt>
<rscale>  0 0.13369983E+04</rscale>
<asrwt>0</asrwt>
<pdfrwt beam="1">  1        2 0.99389418E-01 0.13369983E+04</pdfrwt>
<pdfrwt beam="2">  1       -2 0.10642284E+00 0.13369983E+04</pdfrwt>
<totfact> 0.31525345E+01</totfact>
</mgrwt>
</event>
<event>
12    3  0.4769008E-008  0.3034531E+04  0.7818608E-02  0.8233939E-01
         -2   -1    0    0    0  501 -0.00000000000E+00  0.00000000000E+00  0.21579116869E+04  0.21579116869E+04  0.00000000000E+00 0.  1.
          2   -1    0    0  501    0  0.00000000000E+00 -0.00000000000E+00 -0.10668158704E+04  0.10668158704E+04  0.00000000000E+00 0. -1.
         23    2    1    2    0    0 -0.12838974335E+04 -0.13342600288E+03 -0.22027756548E+02  0.12942465468E+04  0.91617595053E+02 0.  0.
        254    2    1    2    0    0  0.12838974335E+04  0.13342600288E+03  0.11131235730E+04  0.19304810105E+04  0.90637614987E+03 0.  0.
         23    2    4    4    0    0  0.12858235688E+02  0.22974575872E+02 -0.12068396520E+03  0.15301964759E+03  0.90317372263E+02 0.  0.
         23    2    4    4    0    0  0.12710391978E+04  0.11045142701E+03  0.12338075382E+04  0.17774613629E+04  0.96683479057E+02 0.  0.
          2    1    3    3  502    0 -0.83575959019E+03 -0.47737613160E+02  0.58035349435E+01  0.83714195530E+03  0.00000000000E+00 0. -1.
         -2    1    3    3    0  502 -0.44813784334E+03 -0.85688389721E+02 -0.27831291492E+02  0.45710459148E+03  0.00000000000E+00 0.  1.
         13    1    5    5    0    0  0.21143918561E+01  0.55243200114E+02 -0.96753916649E+02  0.11143429543E+03  0.00000000000E+00 0. -1.
        -13    1    5    5    0    0  0.10743843831E+02 -0.32268624242E+02 -0.23930048548E+02  0.41585352160E+02  0.00000000000E+00 0.  1.
          1    1    6    6  503    0  0.10607163895E+04  0.78170478457E+02  0.97987998691E+03  0.14461655062E+04  0.00000000000E+00 0. -1.
         -1    1    6    6    0  503  0.21032280835E+03  0.32280948552E+02  0.25392755129E+03  0.33129585668E+03  0.00000000000E+00 0.  1.
<mgrwt>
<rscale>  0 0.30345309E+04</rscale>
<asrwt>0</asrwt>
<pdfrwt beam="1">  1        2 0.16412552E+00 0.30345309E+04</pdfrwt>
<pdfrwt beam="2">  1       -2 0.33198641E+00 0.30345309E+04</pdfrwt>
<totfact> 0.39338815E-01</totfact>
</mgrwt>
</event>
<event>
12    3  0.4769008E-008  0.1731286E+04  0.7818608E-02  0.8743719E-01
          2   -1    0    0  501    0  0.00000000000E+00  0.00000000000E+00  0.89740743550E+03  0.89740743550E+03  0.00000000000E+00 0. -1.
         -2   -1    0    0    0  501 -0.00000000000E+00 -0.00000000000E+00 -0.83500287990E+03  0.83500287990E+03  0.00000000000E+00 0.  1.
         23    2    1    2    0    0 -0.16558018932E+03  0.38479078438E+03  0.49346423569E+03  0.65371371706E+03  0.91399809172E+02 0.  0.
        254    2    1    2    0    0  0.16558018932E+03 -0.38479078438E+03 -0.43105968009E+03  0.10786965983E+04  0.89570818721E+03 0.  0.
         23    2    4    4    0    0 -0.27533081492E+03  0.11935806391E+03 -0.14711006889E+03  0.34556596688E+03  0.87869562604E+02 0.  0.
         23    2    4    4    0    0  0.44091100424E+03 -0.50414884830E+03 -0.28394961120E+03  0.73313063146E+03  0.91019592305E+02 0.  0.
          2    1    3    3  502    0  0.24944136631E+01  0.82689524475E+02  0.85478392829E+02  0.11895518147E+03  0.00000000000E+00 0.  1.
         -2    1    3    3    0  502 -0.16807460298E+03  0.30210125991E+03  0.40798584286E+03  0.53475853559E+03  0.00000000000E+00 0. -1.
         13    1    5    5    0    0 -0.14459963857E+03  0.10365639564E+03 -0.60309227242E+02  0.18785874141E+03  0.00000000000E+00 0.  1.
        -13    1    5    5    0    0 -0.13073117635E+03  0.15701668272E+02 -0.86800841649E+02  0.15770722548E+03  0.00000000000E+00 0. -1.
          1    1    6    6  503    0  0.15135674298E+02  0.10971199659E+01 -0.58406813971E+01  0.16260561733E+02  0.00000000000E+00 0. -1.
         -1    1    6    6    0  503  0.42577532994E+03 -0.50524596826E+03 -0.27810892980E+03  0.71687006973E+03  0.00000000000E+00 0.  1.
<mgrwt>
<rscale>  0 0.17312860E+04</rscale>
<asrwt>0</asrwt>
<pdfrwt beam="1">  1        2 0.13806268E+00 0.17312860E+04</pdfrwt>
<pdfrwt beam="2">  1       -2 0.12846198E+00 0.17312860E+04</pdfrwt>
<totfact> 0.12506997E+01</totfact>
</mgrwt>
</event>
<event>
12    3  0.4769008E-008  0.2471777E+04  0.7818608E-02  0.8413109E-01
         -3   -1    0    0    0  501 -0.00000000000E+00  0.00000000000E+00  0.94432104536E+03  0.94432104536E+03  0.00000000000E+00 0.  1.
          3   -1    0    0  501    0  0.00000000000E+00 -0.00000000000E+00 -0.16174805548E+04  0.16174805548E+04  0.00000000000E+00 0. -1.
         23    2    1    2    0    0  0.20021609955E+03  0.85994944823E+03  0.33634630112E+03  0.94838939631E+03  0.81939445481E+02 0.  0.
        254    2    1    2    0    0 -0.20021609955E+03 -0.85994944823E+03 -0.10095058106E+04  0.16134122039E+04  0.89688205357E+03 0.  0.
         23    2    4    4    0    0  0.14045672073E+03 -0.63863587969E+03 -0.17826709549E+03  0.68375012945E+03  0.90284023822E+02 0.  0.
         23    2    4    4    0    0 -0.34067282028E+03 -0.22131356853E+03 -0.83123871510E+03  0.92966207444E+03  0.90973100849E+02 0.  0.
          2    1    3    3  502    0  0.97069456961E+02  0.29295417243E+03  0.14649928141E+03  0.34162357365E+03  0.00000000000E+00 0. -1.
         -2    1    3    3    0  502  0.10314664258E+03  0.56699527580E+03  0.18984701971E+03  0.60676582266E+03  0.00000000000E+00 0.  1.
         13    1    5    5    0    0  0.23817190345E+02 -0.31444735563E+03 -0.76351267425E+02  0.32445941819E+03  0.00000000000E+00 0. -1.
        -13    1    5    5    0    0  0.11663953039E+03 -0.32418852407E+03 -0.10191582807E+03  0.35929071126E+03  0.00000000000E+00 0.  1.
          2    1    6    6  503    0 -0.90697489228E+02 -0.50496375103E+02 -0.13383989213E+03  0.16937837871E+03  0.00000000000E+00 0. -1.
         -2    1    6    6    0  503 -0.24997533105E+03 -0.17081719343E+03 -0.69739882297E+03  0.76028369572E+03  0.00000000000E+00 0.  1.
<mgrwt>
<rscale>  0 0.24717774E+04</rscale>
<asrwt>0</asrwt>
<pdfrwt beam="1">  1        3 0.24884316E+00 0.24717774E+04</pdfrwt>
<pdfrwt beam="2">  1       -3 0.14528016E+00 0.24717774E+04</pdfrwt>
<totfact> 0.61199913E-02</totfact>
</mgrwt>
</event>
<event>
12    3  0.4769008E-008  0.1331516E+04  0.7818608E-02  0.9004939E-01
         -3   -1    0    0    0  501 -0.00000000000E+00  0.00000000000E+00  0.90128836976E+03  0.90128836976E+03  0.00000000000E+00 0. -1.
          3   -1    0    0  501    0  0.00000000000E+00 -0.00000000000E+00 -0.49177786839E+03  0.49177786839E+03  0.00000000000E+00 0.  1.
         23    2    1    2    0    0  0.67068695008E+02 -0.44777317532E+02  0.47174465588E+03  0.48725187652E+03  0.91477608219E+02 0.  0.
        254    2    1    2    0    0 -0.67068695008E+02  0.44777317532E+02 -0.62234154511E+02  0.90581436163E+03  0.90006852502E+03 0.  0.
         23    2    4    4    0    0 -0.11284011180E+03  0.44829893457E+03  0.49074977113E+02  0.47400259750E+03  0.92548816792E+02 0.  0.
         23    2    4    4    0    0  0.45771416788E+02 -0.40352161704E+03 -0.11130913162E+03  0.43181176413E+03  0.95639734661E+02 0.  0.
          3    1    3    3  502    0  0.60097948507E+02  0.63465235177E+01  0.15558037593E+03  0.16690504830E+03  0.00000000000E+00 0. -1.
         -3    1    3    3    0  502  0.69707465012E+01 -0.51123841050E+02  0.31616427995E+03  0.32034682822E+03  0.00000000000E+00 0.  1.
         13    1    5    5    0    0 -0.10891044201E+03  0.38943509718E+03  0.12461257306E+02  0.40456947762E+03  0.00000000000E+00 0. -1.
        -13    1    5    5    0    0 -0.39296697857E+01  0.58863837393E+02  0.36613719806E+02  0.69433119873E+02  0.00000000000E+00 0.  1.
          4    1    6    6  503    0  0.21340072108E+02 -0.36927983268E+03 -0.77697355667E+02  0.37796808407E+03  0.00000000000E+00 0. -1.
         -4    1    6    6    0  503  0.24431344680E+02 -0.34241784360E+02 -0.33611775957E+02  0.53843680056E+02  0.00000000000E+00 0.  1.
<mgrwt>
<rscale>  0 0.13315159E+04</rscale>
<asrwt>0</asrwt>
<pdfrwt beam="1">  1        3 0.75658134E-01 0.13315159E+04</pdfrwt>
<pdfrwt beam="2">  1       -3 0.13865975E+00 0.13315159E+04</pdfrwt>
<totfact> 0.16656228E+00</totfact>
</mgrwt>
</event>
<event>
12    3  0.4769008E-008  0.1510712E+04  0.7818608E-02  0.8877361E-01
          1   -1    0    0  501    0  0.00000000000E+00  0.00000000000E+00  0.22650339128E+04  0.22650339128E+04  0.00000000000E+00 0. -1.
         -1   -1    0    0    0  501 -0.00000000000E+00 -0.00000000000E+00 -0.25190015599E+03  0.25190015599E+03  0.00000000000E+00 0.  1.
         23    2    1    2    0    0  0.32619288884E+03 -0.71593576968E+02  0.11865795388E+04  0.12360336472E+04  0.90998539273E+02 0.  0.
        254    2    1    2    0    0 -0.32619288884E+03  0.71593576968E+02  0.82655421800E+03  0.12809004216E+04  0.91977528434E+03 0.  0.
         23    2    4    4    0    0 -0.37531071986E+02 -0.55763136008E+02  0.93037639975E+03  0.93731206858E+03  0.91845304602E+02 0.  0.
         23    2    4    4    0    0 -0.28866181685E+03  0.12735671298E+03 -0.10382218176E+03  0.34358835298E+03  0.87912081265E+02 0.  0.
          1    1    3    3  502    0  0.17733296823E+03 -0.39388644788E+02  0.47994586789E+03  0.51317295628E+03  0.00000000000E+00 0. -1.
         -1    1    3    3    0  502  0.14885992061E+03 -0.32204932180E+02  0.70663367095E+03  0.72286069096E+03  0.00000000000E+00 0.  1.
         13    1    5    5    0    0 -0.55682438840E+02 -0.47911905342E+02  0.88193855810E+03  0.88499248863E+03  0.00000000000E+00 0. -1.
        -13    1    5    5    0    0  0.18151366854E+02 -0.78512306668E+01  0.48437841658E+02  0.52319579949E+02  0.00000000000E+00 0.  1.
          4    1    6    6  503    0 -0.26474480949E+03  0.12080601375E+03 -0.11913098164E+03  0.31444569945E+03  0.00000000000E+00 0. -1.
         -4    1    6    6    0  503 -0.23917007358E+02  0.65506992234E+01  0.15308799885E+02  0.29142653537E+02  0.00000000000E+00 0.  1.
<mgrwt>
<rscale>  0 0.15107116E+04</rscale>
<asrwt>0</asrwt>
<pdfrwt beam="1">  1        1 0.34846674E+00 0.15107116E+04</pdfrwt>
<pdfrwt beam="2">  1       -1 0.38753872E-01 0.15107116E+04</pdfrwt>
<totfact> 0.12285284E+01</totfact>
</mgrwt>
</event>
<event>
12    3  0.4769008E-008  0.1912613E+04  0.7818608E-02  0.8648604E-01
          2   -1    0    0  501    0  0.00000000000E+00  0.00000000000E+00  0.25708867285E+04  0.25708867285E+04  0.00000000000E+00 0. -1.
         -2   -1    0    0    0  501 -0.00000000000E+00 -0.00000000000E+00 -0.35572239718E+03  0.35572239718E+03  0.00000000000E+00 0.  1.
         23    2    1    2    0    0  0.10478450406E+03 -0.19671987244E+03 -0.21386048897E+03  0.32252327728E+03  0.92770982208E+02 0.  0.
        254    2    1    2    0    0 -0.10478450406E+03  0.19671987244E+03  0.24290248203E+04  0.26040858484E+04  0.91182401141E+03 0.  0.
         23    2    4    4    0    0 -0.18043017040E+03  0.48541619167E+03  0.20263061203E+04  0.20934042332E+04  0.90779208771E+02 0.  0.
         23    2    4    4    0    0  0.75645666338E+02 -0.28869631923E+03  0.40271869998E+03  0.51068161523E+03  0.97701224393E+02 0.  0.
          1    1    3    3  502    0  0.47039398780E+02 -0.62928245680E+02 -0.21982410935E+02  0.81583671972E+02  0.00000000000E+00 0. -1.
         -1    1    3    3    0  502  0.57745105280E+02 -0.13379162676E+03 -0.19187807803E+03  0.24093960531E+03  0.00000000000E+00 0.  1.
         13    1    5    5    0    0 -0.80302296982E+02  0.24318781461E+03  0.82500279424E+03  0.86383932683E+03  0.00000000000E+00 0. -1.
        -13    1    5    5    0    0 -0.10012787342E+03  0.24222837707E+03  0.12013033261E+04  0.12295649064E+04  0.00000000000E+00 0.  1.
          1    1    6    6  503    0  0.11360672674E+02 -0.10688915968E+03  0.22080700046E+03  0.24558112467E+03  0.00000000000E+00 0. -1.
         -1    1    6    6    0  503  0.64284993664E+02 -0.18180715955E+03  0.18191169952E+03  0.26510049056E+03  0.00000000000E+00 0.  1.
<mgrwt>
<rscale>  0 0.19126129E+04</rscale>
<asrwt>0</asrwt>
<pdfrwt beam="1">  1        2 0.39552102E+00 0.19126129E+04</pdfrwt>
<pdfrwt beam="2">  1       -2 0.54726524E-01 0.19126129E+04</pdfrwt>
<totfact> 0.93126763E+00</totfact>
</mgrwt>
</event>
<event>
12    3  0.4769008E-008  0.1334445E+04  0.7818608E-02  0.9002687E-01
         -1   -1    0    0    0  501 -0.00000000000E+00  0.00000000000E+00  0.12927724003E+04  0.12927724003E+04  0.00000000000E+00 0.  1.
          1   -1    0    0  501    0  0.00000000000E+00 -0.00000000000E+00 -0.34436530411E+03  0.34436530411E+03  0.00000000000E+00 0. -1.
         23    2    1    2    0    0  0.15510874182E+03 -0.10656460474E+03  0.63122239742E+03  0.66455805003E+03  0.88209693826E+02 0.  0.
        254    2    1    2    0    0 -0.15510874182E+03  0.10656460474E+03  0.31718469879E+03  0.97257965440E+03  0.89993906140E+03 0.  0.
         23    2    4    4    0    0 -0.24348025639E+03 -0.30295461643E+03  0.36479105702E+03  0.54103088895E+03  0.92616265540E+02 0.  0.
         23    2    4    4    0    0  0.88371514577E+02  0.40951922117E+03 -0.47606358232E+02  0.43154876545E+03  0.91937231403E+02 0.  0.
          4    1    3    3  502    0 -0.10012117916E+02 -0.16792094064E+02  0.71418718474E+02  0.74046271187E+02  0.00000000000E+00 0. -1.
         -4    1    3    3    0  502  0.16512085973E+03 -0.89772510680E+02  0.55980367894E+03  0.59051177884E+03  0.00000000000E+00 0.  1.
         13    1    5    5    0    0 -0.19266940998E+03 -0.19860575296E+03  0.20903208923E+03  0.34678546824E+03  0.00000000000E+00 0.  1.
        -13    1    5    5    0    0 -0.50810846414E+02 -0.10434886347E+03  0.15575896779E+03  0.19424542071E+03  0.00000000000E+00 0. -1.
          4    1    6    6  503    0  0.20997473747E+02  0.28089058914E+03 -0.51244970786E+02  0.28629785889E+03  0.00000000000E+00 0. -1.
         -4    1    6    6    0  503  0.67374040831E+02  0.12862863203E+03  0.36386125544E+01  0.14525090656E+03  0.00000000000E+00 0.  1.
<mgrwt>
<rscale>  0 0.13344451E+04</rscale>
<asrwt>0</asrwt>
<pdfrwt beam="1">  1        1 0.52979278E-01 0.13344451E+04</pdfrwt>
<pdfrwt beam="2">  1       -1 0.19888806E+00 0.13344451E+04</pdfrwt>
<totfact> 0.10984212E+01</totfact>
</mgrwt>
</event>
<event>
12    3  0.4769008E-008  0.1074786E+04  0.7818608E-02  0.9230121E-01
         -2   -1    0    0    0  501 -0.00000000000E+00  0.00000000000E+00  0.44708858092E+03  0.44708858092E+03  0.00000000000E+00 0.  1.
          2   -1    0    0  501    0  0.00000000000E+00 -0.00000000000E+00 -0.64593764685E+03  0.64593764685E+03  0.00000000000E+00 0. -1.
         23    2    1    2    0    0  0.11263198100E+02  0.43715608500E+02  0.86180080977E+02  0.13375496494E+03  0.91790360231E+02 0.  0.
        254    2    1    2    0    0 -0.11263198100E+02 -0.43715608500E+02 -0.28502914691E+03  0.95927126283E+03  0.91483431672E+03 0.  0.
         23    2    4    4    0    0 -0.23939005178E+03 -0.13382558647E+03 -0.52704171554E+03  0.60106340651E+03  0.91034961648E+02 0.  0.
         23    2    4    4    0    0  0.22812685368E+03  0.90109977974E+02  0.24201256863E+03  0.35820785632E+03  0.97883172483E+02 0.  0.
          2    1    3    3  502    0  0.35570954980E+00 -0.28788108752E+02  0.20787148154E+02  0.35510382470E+02  0.00000000000E+00 0.  1.
         -2    1    3    3    0  502  0.10907488550E+02  0.72503717252E+02  0.65392932823E+02  0.98244582471E+02  0.00000000000E+00 0. -1.
         13    1    5    5    0    0  0.57806385637E+01  0.43142655492E+01 -0.91174862377E+01  0.11625713945E+02  0.00000000000E+00 0.  1.
        -13    1    5    5    0    0 -0.24517069035E+03 -0.13813985202E+03 -0.51792422930E+03  0.58943769257E+03  0.00000000000E+00 0. -1.
          1    1    6    6  503    0  0.23121821825E+03  0.66978849832E+02  0.22207979433E+03  0.32751712294E+03  0.00000000000E+00 0. -1.
         -1    1    6    6    0  503 -0.30913645621E+01  0.23131128141E+02  0.19932774299E+02  0.30690733377E+02  0.00000000000E+00 0.  1.
<mgrwt>
<rscale>  0 0.10747862E+04</rscale>
<asrwt>0</asrwt>
<pdfrwt beam="1">  1        2 0.99375023E-01 0.10747862E+04</pdfrwt>
<pdfrwt beam="2">  1       -2 0.68782858E-01 0.10747862E+04</pdfrwt>
<totfact> 0.87079362E+01</totfact>
</mgrwt>
</event>
<event>
12    3  0.4769008E-008  0.2221128E+04  0.7818608E-02  0.8509685E-01
         -1   -1    0    0    0  501 -0.00000000000E+00  0.00000000000E+00  0.12031375692E+04  0.12031375692E+04  0.00000000000E+00 0.  1.
          1   -1    0    0  501    0  0.00000000000E+00 -0.00000000000E+00 -0.10251133113E+04  0.10251133113E+04  0.00000000000E+00 0. -1.
         23    2    1    2    0    0 -0.39022117064E+03 -0.69028005750E+03 -0.40409741343E+03  0.89459792281E+03  0.90838340853E+02 0.  0.
        254    2    1    2    0    0  0.39022117064E+03  0.69028005750E+03  0.58212167134E+03  0.13336529577E+04  0.90055841100E+03 0.  0.
         23    2    4    4    0    0  0.10403518088E+03  0.25907364323E+03 -0.22423117086E+03  0.37143596643E+03  0.98704547514E+02 0.  0.
         23    2    4    4    0    0  0.28618598976E+03  0.43120641426E+03  0.80635284219E+03  0.96221699129E+03  0.88403844804E+02 0.  0.
          3    1    3    3  502    0 -0.36068351015E+03 -0.65297278296E+03 -0.40099092704E+03  0.84691190413E+03  0.00000000000E+00 0. -1.
         -3    1    3    3    0  502 -0.29537660487E+02 -0.37307274537E+02 -0.31064863858E+01  0.47686018685E+02  0.00000000000E+00 0.  1.
         13    1    5    5    0    0  0.31145899652E+02  0.18755961519E+03 -0.11640897946E+03  0.22293435540E+03  0.00000000000E+00 0. -1.
        -13    1    5    5    0    0  0.72889281224E+02  0.71514028039E+02 -0.10782219140E+03  0.14850161104E+03  0.00000000000E+00 0.  1.
          1    1    6    6  503    0  0.15041323081E+03  0.15661668449E+03  0.29838038024E+03  0.36903086209E+03  0.00000000000E+00 0. -1.
         -1    1    6    6    0  503  0.13577275895E+03  0.27458972977E+03  0.50797246196E+03  0.59318612920E+03  0.00000000000E+00 0.  1.
<mgrwt>
<rscale>  0 0.22211279E+04</rscale>
<asrwt>0</asrwt>
<pdfrwt beam="1">  1        1 0.15770974E+00 0.22211279E+04</pdfrwt>
<pdfrwt beam="2">  1       -1 0.18509809E+00 0.22211279E+04</pdfrwt>
<totfact> 0.25190376E+00</totfact>
</mgrwt>
</event>
<event>
12    3  0.4769008E-008  0.1571079E+04  0.7818608E-02  0.8838515E-01
          2   -1    0    0  501    0  0.00000000000E+00  0.00000000000E+00  0.30323468546E+04  0.30323468546E+04  0.00000000000E+00 0. -1.
         -2   -1    0    0    0  501 -0.00000000000E+00 -0.00000000000E+00 -0.20349672963E+03  0.20349672963E+03  0.00000000000E+00 0.  1.
         23    2    1    2    0    0 -0.45172234364E+03 -0.23803468863E+03  0.10210640205E+04  0.11451934425E+04  0.90458266280E+02 0.  0.
        254    2    1    2    0    0  0.45172234364E+03  0.23803468863E+03  0.18077861044E+04  0.20906501418E+04  0.91761311406E+03 0.  0.
         23    2    4    4    0    0  0.24502956135E+03  0.25705605981E+03  0.18234538887E+04  0.18598581002E+04  0.89279139342E+02 0.  0.
         23    2    4    4    0    0  0.20669278229E+03 -0.19021371177E+02 -0.15667784311E+02  0.23079204154E+03  0.99678323426E+02 0.  0.
          4    1    3    3  502    0 -0.37191490597E+03 -0.23237446843E+03  0.86486893394E+03  0.96969936772E+03  0.00000000000E+00 0. -1.
         -4    1    3    3    0  502 -0.79807437677E+02 -0.56602201984E+01  0.15619508660E+03  0.17549407477E+03  0.00000000000E+00 0.  1.
         13    1    5    5    0    0  0.50518329638E+02  0.26607604602E+02  0.45512302835E+03  0.45869056801E+03  0.00000000000E+00 0. -1.
        -13    1    5    5    0    0  0.19451123171E+03  0.23044845521E+03  0.13683308604E+04  0.14011675322E+04  0.00000000000E+00 0.  1.
          2    1    6    6  503    0  0.16083348716E+03 -0.11080682948E+02 -0.54500262683E+02  0.17017776223E+03  0.00000000000E+00 0.  1.
         -2    1    6    6    0  503  0.45859295137E+02 -0.79406882296E+01  0.38832478373E+02  0.60614279313E+02  0.00000000000E+00 0. -1.
<mgrwt>
<rscale>  0 0.15710795E+04</rscale>
<asrwt>0</asrwt>
<pdfrwt beam="1">  1        2 0.46651487E+00 0.15710795E+04</pdfrwt>
<pdfrwt beam="2">  1       -2 0.31307191E-01 0.15710795E+04</pdfrwt>
<totfact> 0.15216310E+01</totfact>
</mgrwt>
</event>
<event>
12    3  0.4769008E-008  0.2047376E+04  0.7818608E-02  0.8584786E-01
          1   -1    0    0  501    0  0.00000000000E+00  0.00000000000E+00  0.13473925536E+04  0.13473925536E+04  0.00000000000E+00 0. -1.
         -1   -1    0    0    0  501 -0.00000000000E+00 -0.00000000000E+00 -0.77775208813E+03  0.77775208813E+03  0.00000000000E+00 0.  1.
         23    2    1    2    0    0  0.40637602452E+03  0.17859739440E+03 -0.48167556214E+03  0.66153105223E+03  0.92593106202E+02 0.  0.
        254    2    1    2    0    0 -0.40637602452E+03 -0.17859739440E+03  0.10513160276E+04  0.14636135895E+04  0.91643922160E+03 0.  0.
         23    2    4    4    0    0  0.15617054157E+03  0.21713322861E+03  0.13977129787E+03  0.31785163085E+03  0.99787606952E+02 0.  0.
         23    2    4    4    0    0 -0.56254656609E+03 -0.39573062301E+03  0.91154472972E+03  0.11457619586E+04  0.93783295844E+02 0.  0.
          3    1    3    3  502    0  0.12136764246E+02 -0.99403149149E+01 -0.24488331376E+02  0.29082456577E+02  0.00000000000E+00 0. -1.
         -3    1    3    3    0  502  0.39423926027E+03  0.18853770931E+03 -0.45718723076E+03  0.63244859565E+03  0.00000000000E+00 0.  1.
         13    1    5    5    0    0  0.49783092372E+02  0.10845075241E+03  0.11118711906E+03  0.16310272048E+03  0.00000000000E+00 0. -1.
        -13    1    5    5    0    0  0.10638744920E+03  0.10868247620E+03  0.28584178817E+02  0.15474891037E+03  0.00000000000E+00 0.  1.
          2    1    6    6  503    0 -0.54013456321E+03 -0.39799264576E+03  0.87184668744E+03  0.11001182386E+04  0.00000000000E+00 0.  1.
         -2    1    6    6    0  503 -0.22412002878E+02  0.22620227543E+01  0.39698042284E+02  0.45643720062E+02  0.00000000000E+00 0. -1.
<mgrwt>
<rscale>  0 0.20473762E+04</rscale>
<asrwt>0</asrwt>
<pdfrwt beam="1">  1        1 0.20729116E+00 0.20473762E+04</pdfrwt>
<pdfrwt beam="2">  1       -1 0.11965417E+00 0.20473762E+04</pdfrwt>
<totfact> 0.48209071E+00</totfact>
</mgrwt>
</event>
<event>
12    3  0.4769008E-008  0.2733446E+04  0.7818608E-02  0.8324234E-01
          1   -1    0    0  501    0  0.00000000000E+00  0.00000000000E+00  0.41807842385E+03  0.41807842385E+03  0.00000000000E+00 0. -1.
         -1   -1    0    0    0  501 -0.00000000000E+00 -0.00000000000E+00 -0.44678992582E+04  0.44678992582E+04  0.00000000000E+00 0.  1.
         23    2    1    2    0    0 -0.84124491505E+03  0.31693665397E+03 -0.34039399108E+03  0.96448963438E+03  0.78932477159E+02 0.  0.
        254    2    1    2    0    0  0.84124491505E+03 -0.31693665397E+03 -0.37094268433E+04  0.39214880477E+04  0.90004397262E+03 0.  0.
         23    2    4    4    0    0 -0.11256990383E+03 -0.10708697064E+03 -0.14159463654E+04  0.14273178653E+04  0.90512853009E+02 0.  0.
         23    2    4    4    0    0  0.95381481888E+03 -0.20984968332E+03 -0.22934804779E+04  0.24941701823E+04  0.83860584346E+02 0.  0.
          3    1    3    3  502    0 -0.47641285738E+03  0.21526548177E+03 -0.21862544545E+03  0.56666173659E+03  0.00000000000E+00 0. -1.
         -3    1    3    3    0  502 -0.36483205767E+03  0.10167117220E+03 -0.12176854564E+03  0.39782789780E+03  0.00000000000E+00 0.  1.
         13    1    5    5    0    0 -0.71890553279E+02 -0.15775701497E+02 -0.79225748068E+03  0.79566892619E+03  0.00000000000E+00 0. -1.
        -13    1    5    5    0    0 -0.40679350551E+02 -0.91311269148E+02 -0.62368888469E+03  0.63164893914E+03  0.00000000000E+00 0.  1.
          1    1    6    6  503    0  0.79225721561E+03 -0.15037806815E+03 -0.19428182227E+04  0.21035274435E+04  0.00000000000E+00 0. -1.
         -1    1    6    6    0  503  0.16155760326E+03 -0.59471615170E+02 -0.35066225522E+03  0.39064273885E+03  0.00000000000E+00 0.  1.
<mgrwt>
<rscale>  0 0.27334464E+04</rscale>
<asrwt>0</asrwt>
<pdfrwt beam="1">  1        1 0.64319758E-01 0.27334464E+04</pdfrwt>
<pdfrwt beam="2">  1       -1 0.68736911E+00 0.27334464E+04</pdfrwt>
<totfact> 0.10763025E-02</totfact>
</mgrwt>
</event>
<event>
12    3  0.4769008E-008  0.1525578E+04  0.7818608E-02  0.8867620E-01
          1   -1    0    0  501    0  0.00000000000E+00  0.00000000000E+00  0.10702072973E+04  0.10702072973E+04  0.00000000000E+00 0. -1.
         -1   -1    0    0    0  501 -0.00000000000E+00 -0.00000000000E+00 -0.54367703065E+03  0.54367703065E+03  0.00000000000E+00 0.  1.
         23    2    1    2    0    0  0.32908461316E+03 -0.57036767858E+02 -0.21491319084E+03  0.40853205159E+03  0.95712496935E+02 0.  0.
        254    2    1    2    0    0 -0.32908461316E+03  0.57036767858E+02  0.74144345753E+03  0.12053522764E+04  0.88971109582E+03 0.  0.
         23    2    4    4    0    0  0.23124132788E+03  0.88106877961E+02 -0.97160579724E+01  0.26333540522E+03  0.89530777930E+02 0.  0.
         23    2    4    4    0    0 -0.56032594104E+03 -0.31070110104E+02  0.75115951550E+03  0.94201687119E+03  0.90689888807E+02 0.  0.
          3    1    3    3  502    0  0.23975108456E+03 -0.56437102673E+02 -0.10727754947E+03  0.26865256694E+03  0.00000000000E+00 0. -1.
         -3    1    3    3    0  502  0.89333528600E+02 -0.59966518459E+00 -0.10763564137E+03  0.13987948464E+03  0.00000000000E+00 0.  1.
         13    1    5    5    0    0  0.11399346612E+02  0.34206774462E+01 -0.24546829940E+02  0.27279900980E+02  0.00000000000E+00 0. -1.
        -13    1    5    5    0    0  0.21984198127E+03  0.84686200515E+02  0.14830771968E+02  0.23605550424E+03  0.00000000000E+00 0.  1.
          2    1    6    6  503    0 -0.12497220884E+03  0.14273309297E+02  0.11932203910E+03  0.17337684204E+03  0.00000000000E+00 0. -1.
         -2    1    6    6    0  503 -0.43535373219E+03 -0.45343419401E+02  0.63183747641E+03  0.76864002915E+03  0.00000000000E+00 0.  1.
<mgrwt>
<rscale>  0 0.15255781E+04</rscale>
<asrwt>0</asrwt>
<pdfrwt beam="1">  1        1 0.16464728E+00 0.15255781E+04</pdfrwt>
<pdfrwt beam="2">  1       -1 0.83642620E-01 0.15255781E+04</pdfrwt>
<totfact> 0.18281098E+01</totfact>
</mgrwt>
</event>
<event>
12    3  0.4769008E-008  0.1995730E+04  0.7818608E-02  0.8608620E-01
         -2   -1    0    0    0  501 -0.00000000000E+00  0.00000000000E+00  0.39488623004E+03  0.39488623004E+03  0.00000000000E+00 0.  1.
          2   -1    0    0  501    0  0.00000000000E+00 -0.00000000000E+00 -0.25215731817E+04  0.25215731817E+04  0.00000000000E+00 0. -1.
         23    2    1    2    0    0 -0.31419918568E+03 -0.62709355298E+03 -0.30939658900E+03  0.77206333514E+03  0.91586525802E+02 0.  0.
        254    2    1    2    0    0  0.31419918568E+03  0.62709355298E+03 -0.18172903626E+04  0.21443960766E+04  0.89661743161E+03 0.  0.
         23    2    4    4    0    0  0.20324748658E+02  0.78506020759E+03 -0.12172697821E+04  0.14516023058E+04  0.93117704574E+02 0.  0.
         23    2    4    4    0    0  0.29387443702E+03 -0.15796665461E+03 -0.60002058053E+03  0.69279377076E+03  0.92859372356E+02 0.  0.
          3    1    3    3  502    0 -0.11920689531E+03 -0.15244866422E+03 -0.69565592038E+02  0.20564593531E+03  0.00000000000E+00 0. -1.
         -3    1    3    3    0  502 -0.19499229037E+03 -0.47464488876E+03 -0.23983099696E+03  0.56641739983E+03  0.00000000000E+00 0.  1.
         13    1    5    5    0    0 -0.36552915682E+02  0.38215988598E+03 -0.58513418780E+03  0.69983163105E+03  0.00000000000E+00 0. -1.
        -13    1    5    5    0    0  0.56877664339E+02  0.40290032161E+03 -0.63213559432E+03  0.75177067478E+03  0.00000000000E+00 0.  1.
          4    1    6    6  503    0  0.76344156544E+02 -0.89568953858E+00 -0.16272101378E+03  0.17974248475E+03  0.00000000000E+00 0. -1.
         -4    1    6    6    0  503  0.21753028048E+03 -0.15707096507E+03 -0.43729956675E+03  0.51305128601E+03  0.00000000000E+00 0.  1.
<mgrwt>
<rscale>  0 0.19957300E+04</rscale>
<asrwt>0</asrwt>
<pdfrwt beam="1">  1        2 0.38793433E+00 0.19957300E+04</pdfrwt>
<pdfrwt beam="2">  1       -2 0.60751729E-01 0.19957300E+04</pdfrwt>
<totfact> 0.79337083E+00</totfact>
</mgrwt>
</event>
<event>
12    3  0.4769008E-008  0.2210748E+04  0.7818608E-02  0.8513968E-01
          2   -1    0    0  501    0  0.00000000000E+00  0.00000000000E+00  0.11949238271E+04  0.11949238271E+04  0.00000000000E+00 0. -1.
         -2   -1    0    0    0  501 -0.00000000000E+00 -0.00000000000E+00 -0.10225355965E+04  0.10225355965E+04  0.00000000000E+00 0.  1.
         23    2    1    2    0    0 -0.54398447979E+02 -0.41889275076E+03  0.83662198446E+03  0.94166115087E+03  0.91427842469E+02 0.  0.
        254    2    1    2    0    0  0.54398447979E+02  0.41889275076E+03 -0.66423375385E+03  0.12757982728E+04  0.10040041958E+04 0.  0.
         23    2    4    4    0    0  0.11019081787E+03 -0.23209594757E+03 -0.53900437895E+03  0.60405826981E+03  0.91379032464E+02 0.  0.
         23    2    4    4    0    0 -0.55792369895E+02  0.65098869833E+03 -0.12522937490E+03  0.67174000297E+03  0.93022370192E+02 0.  0.
          2    1    3    3  502    0 -0.61343179261E+01 -0.87099925711E+02  0.10284338885E+03  0.13491030185E+03  0.00000000000E+00 0.  1.
         -2    1    3    3    0  502 -0.48264130053E+02 -0.33179282505E+03  0.73377859562E+03  0.80675084902E+03  0.00000000000E+00 0. -1.
         13    1    5    5    0    0  0.97973352158E+01 -0.12601176970E+03 -0.26277994106E+03  0.29159604130E+03  0.00000000000E+00 0.  1.
        -13    1    5    5    0    0  0.10039348266E+03 -0.10608417787E+03 -0.27622443789E+03  0.31246222851E+03  0.00000000000E+00 0. -1.
          3    1    6    6  503    0 -0.47081936282E+02  0.16539836212E+03 -0.81672985970E+01  0.17216280575E+03  0.00000000000E+00 0. -1.
         -3    1    6    6    0  503 -0.87104336132E+01  0.48559033621E+03 -0.11706207631E+03  0.49957719722E+03  0.00000000000E+00 0.  1.
<mgrwt>
<rscale>  0 0.22107484E+04</rscale>
<asrwt>0</asrwt>
<pdfrwt beam="1">  1        2 0.18383444E+00 0.22107484E+04</pdfrwt>
<pdfrwt beam="2">  1       -2 0.15731317E+00 0.22107484E+04</pdfrwt>
<totfact> 0.45946149E+00</totfact>
</mgrwt>
</event>
<event>
12    3  0.4769008E-008  0.2871626E+04  0.7818608E-02  0.8281370E-01
         -1   -1    0    0    0  501 -0.00000000000E+00  0.00000000000E+00  0.69436235850E+03  0.69436235850E+03  0.00000000000E+00 0. -1.
          1   -1    0    0  501    0  0.00000000000E+00 -0.00000000000E+00 -0.29689952559E+04  0.29689952559E+04  0.00000000000E+00 0.  1.
         23    2    1    2    0    0 -0.19445968459E+03  0.91905729314E+03  0.10491164425E+03  0.94952206164E+03  0.90026748482E+02 0.  0.
        254    2    1    2    0    0  0.19445968459E+03 -0.91905729314E+03 -0.23795445416E+04  0.27138355528E+04  0.90564358592E+03 0.  0.
         23    2    4    4    0    0 -0.33188651957E+03 -0.57005672778E+03 -0.11476118512E+04  0.13267988073E+04  0.90932828512E+02 0.  0.
         23    2    4    4    0    0  0.52634620417E+03 -0.34900056537E+03 -0.12319326905E+04  0.13870367455E+04  0.85854866881E+02 0.  0.
          3    1    3    3  502    0 -0.20131551151E+03  0.86349961625E+03  0.87835512776E+02  0.89099640837E+03  0.00000000000E+00 0. -1.
         -3    1    3    3    0  502  0.68558269113E+01  0.55557676894E+02  0.17076131478E+02  0.58525653271E+02  0.00000000000E+00 0.  1.
         13    1    5    5    0    0  0.26902844221E+01 -0.20892856082E+01 -0.22868826620E+02  0.23121115362E+02  0.00000000000E+00 0.  1.
        -13    1    5    5    0    0 -0.33457680399E+03 -0.56796744217E+03 -0.11247430246E+04  0.13036776919E+04  0.00000000000E+00 0. -1.
          1    1    6    6  503    0  0.51764421409E+03 -0.34760779106E+03 -0.11824731835E+04  0.13367982415E+04  0.00000000000E+00 0. -1.
         -1    1    6    6    0  503  0.87019900724E+01 -0.13927743084E+01 -0.49459506926E+02  0.50238503927E+02  0.00000000000E+00 0.  1.
<mgrwt>
<rscale>  0 0.28716257E+04</rscale>
<asrwt>0</asrwt>
<pdfrwt beam="1">  1        1 0.45676849E+00 0.28716257E+04</pdfrwt>
<pdfrwt beam="2">  1       -1 0.10682498E+00 0.28716257E+04</pdfrwt>
<totfact> 0.44274836E-01</totfact>
</mgrwt>
</event>
<event>
12    3  0.4769008E-008  0.1591737E+04  0.7818608E-02  0.8825640E-01
         -2   -1    0    0    0  501 -0.00000000000E+00  0.00000000000E+00  0.66594599777E+03  0.66594599777E+03  0.00000000000E+00 0.  1.
          2   -1    0    0  501    0  0.00000000000E+00 -0.00000000000E+00 -0.95113831369E+03  0.95113831369E+03  0.00000000000E+00 0. -1.
         23    2    1    2    0    0 -0.19715497527E+02  0.13486687873E+03  0.44194170800E+03  0.47094027635E+03  0.88850969624E+02 0.  0.
        254    2    1    2    0    0  0.19715497527E+02 -0.13486687873E+03 -0.72713402392E+03  0.11461440351E+04  0.87541103753E+03 0.  0.
         23    2    4    4    0    0  0.22204153582E+02 -0.50016683697E+03 -0.40350170003E+03  0.64953968837E+03  0.91805749247E+02 0.  0.
         23    2    4    4    0    0 -0.24886560543E+01  0.36529995824E+03 -0.32363232390E+03  0.49660434674E+03  0.91802740835E+02 0.  0.
          1    1    3    3  502    0  0.34922484039E+02  0.67185040484E+02  0.20601130130E+03  0.21948591257E+03  0.00000000000E+00 0. -1.
         -1    1    3    3    0  502 -0.54637981566E+02  0.67681838248E+02  0.23593040670E+03  0.25145436378E+03  0.00000000000E+00 0.  1.
         13    1    5    5    0    0  0.41869703153E+02 -0.40607966012E+03 -0.35894293774E+03  0.54359340959E+03  0.00000000000E+00 0. -1.
        -13    1    5    5    0    0 -0.19665549572E+02 -0.94087176859E+02 -0.44558762287E+02  0.10594627877E+03  0.00000000000E+00 0.  1.
          2    1    6    6  503    0 -0.84265979761E+01  0.33624637328E+03 -0.32389618358E+03  0.46694900025E+03  0.00000000000E+00 0. -1.
         -2    1    6    6    0  503  0.59379419218E+01  0.29053584962E+02  0.26385967775E+00  0.29655346488E+02  0.00000000000E+00 0.  1.
<mgrwt>
<rscale>  0 0.15917371E+04</rscale>
<asrwt>0</asrwt>
<pdfrwt beam="1">  1        2 0.14632897E+00 0.15917371E+04</pdfrwt>
<pdfrwt beam="2">  1       -2 0.10245323E+00 0.15917371E+04</pdfrwt>
<totfact> 0.20279274E+01</totfact>
</mgrwt>
</event>
<event>
12    3  0.4769008E-008  0.1300816E+04  0.7818608E-02  0.9028918E-01
          1   -1    0    0  501    0  0.00000000000E+00  0.00000000000E+00  0.14892905290E+04  0.14892905290E+04  0.00000000000E+00 0. -1.
         -1   -1    0    0    0  501 -0.00000000000E+00 -0.00000000000E+00 -0.28404845499E+03  0.28404845499E+03  0.00000000000E+00 0.  1.
         23    2    1    2    0    0 -0.18889259955E+03 -0.24283490513E+02  0.68611424296E+03  0.71794093197E+03  0.91740532671E+02 0.  0.
        254    2    1    2    0    0  0.18889259955E+03  0.24283490513E+02  0.51912783108E+03  0.10553980521E+04  0.89894451508E+03 0.  0.
         23    2    4    4    0    0  0.42880650687E+03 -0.53205721777E+01  0.63471827684E+03  0.77036656879E+03  0.81817055257E+02 0.  0.
         23    2    4    4    0    0 -0.23991390732E+03  0.29604062691E+02 -0.11559044576E+03  0.28503148326E+03  0.97194196564E+02 0.  0.
          4    1    3    3  502    0 -0.14980373484E+03 -0.32038259615E+01  0.37753569137E+03  0.40618299045E+03  0.00000000000E+00 0. -1.
         -4    1    3    3    0  502 -0.39088864710E+02 -0.21079664552E+02  0.30857855159E+03  0.31175794153E+03  0.00000000000E+00 0.  1.
         13    1    5    5    0    0  0.21654497426E+03 -0.37268322642E+02  0.35959299718E+03  0.42141164835E+03  0.00000000000E+00 0. -1.
        -13    1    5    5    0    0  0.21226153262E+03  0.31947750465E+02  0.27512527966E+03  0.34895492044E+03  0.00000000000E+00 0.  1.
          4    1    6    6  503    0 -0.21950087565E+03  0.75295691679E+01 -0.12600992558E+03  0.25321103879E+03  0.00000000000E+00 0. -1.
         -4    1    6    6    0  503 -0.20413031674E+02  0.22074493523E+02  0.10419479822E+02  0.31820444469E+02  0.00000000000E+00 0.  1.
<mgrwt>
<rscale>  0 0.13008162E+04</rscale>
<asrwt>0</asrwt>
<pdfrwt beam="1">  1        1 0.22912162E+00 0.13008162E+04</pdfrwt>
<pdfrwt beam="2">  1       -1 0.43699763E-01 0.13008162E+04</pdfrwt>
<totfact> 0.33814042E+01</totfact>
</mgrwt>
</event>
<event>
12    3  0.4769008E-008  0.1543595E+04  0.7818608E-02  0.8855969E-01
         -2   -1    0    0    0  501 -0.00000000000E+00  0.00000000000E+00  0.43351703373E+03  0.43351703373E+03  0.00000000000E+00 0.  1.
          2   -1    0    0  501    0  0.00000000000E+00 -0.00000000000E+00 -0.13740437175E+04  0.13740437175E+04  0.00000000000E+00 0. -1.
         23    2    1    2    0    0 -0.34542626037E+03 -0.18671704725E+03  0.58853426378E+02  0.40748704772E+03  0.91648301549E+02 0.  0.
        254    2    1    2    0    0  0.34542626037E+03  0.18671704725E+03 -0.99938011011E+03  0.14000737035E+04  0.89847827664E+03 0.  0.
         23    2    4    4    0    0 -0.85537708413E+02 -0.27944368678E+03 -0.50607871032E+03  0.59111042062E+03  0.88827893590E+02 0.  0.
         23    2    4    4    0    0  0.43096396878E+03  0.46616073403E+03 -0.49330139979E+03  0.80896328286E+03  0.89663535735E+02 0.  0.
          2    1    3    3  502    0 -0.30104627447E+03 -0.16260335702E+03  0.82132189146E+02  0.35187271503E+03  0.00000000000E+00 0.  1.
         -2    1    3    3    0  502 -0.44379985895E+02 -0.24113690235E+02 -0.23278762768E+02  0.55614332692E+02  0.00000000000E+00 0. -1.
         13    1    5    5    0    0  0.60600142909E+01 -0.98430429710E+02 -0.21236817243E+03  0.23414848692E+03  0.00000000000E+00 0.  1.
        -13    1    5    5    0    0 -0.91597722704E+02 -0.18101325707E+03 -0.29371053789E+03  0.35696193370E+03  0.00000000000E+00 0. -1.
          3    1    6    6  503    0  0.26271598097E+03  0.28373092025E+03 -0.35464153527E+03  0.52468422914E+03  0.00000000000E+00 0. -1.
         -3    1    6    6    0  503  0.16824798781E+03  0.18242981377E+03 -0.13865986452E+03  0.28427905372E+03  0.00000000000E+00 0.  1.
<mgrwt>
<rscale>  0 0.15435950E+04</rscale>
<asrwt>0</asrwt>
<pdfrwt beam="1">  1        2 0.21139134E+00 0.15435950E+04</pdfrwt>
<pdfrwt beam="2">  1       -2 0.66694929E-01 0.15435950E+04</pdfrwt>
<totfact> 0.29783422E+01</totfact>
</mgrwt>
</event>
<event>
12    3  0.4769008E-008  0.1532308E+04  0.7818608E-02  0.8863248E-01
          2   -1    0    0  501    0  0.00000000000E+00  0.00000000000E+00  0.13890053099E+04  0.13890053099E+04  0.00000000000E+00 0. -1.
         -2   -1    0    0    0  501 -0.00000000000E+00 -0.00000000000E+00 -0.42259895770E+03  0.42259895770E+03  0.00000000000E+00 0.  1.
         23    2    1    2    0    0  0.15071219365E+02 -0.34495304463E+03  0.72931672633E+03  0.81207622351E+03  0.91351851860E+02 0.  0.
        254    2    1    2    0    0 -0.15071219365E+02  0.34495304463E+03  0.23708962588E+03  0.99952804410E+03  0.90753791964E+03 0.  0.
         23    2    4    4    0    0 -0.58955398140E+02  0.64403229611E+03  0.18386467846E+03  0.67907902209E+03  0.95334992830E+02 0.  0.
         23    2    4    4    0    0  0.43884178775E+02 -0.29907925148E+03  0.53224947424E+02  0.32044902201E+03  0.92089417768E+02 0.  0.
          4    1    3    3  502    0  0.22890144549E+02 -0.34330400701E+03  0.67972604206E+03  0.76184584543E+03  0.00000000000E+00 0. -1.
         -4    1    3    3    0  502 -0.78189251837E+01 -0.16490376247E+01  0.49590684267E+02  0.50230378082E+02  0.00000000000E+00 0.  1.
         13    1    5    5    0    0 -0.34607010636E+02  0.11274125097E+03  0.62855276166E+02  0.13363764663E+03  0.00000000000E+00 0. -1.
        -13    1    5    5    0    0 -0.24348387504E+02  0.53129104514E+03  0.12100940229E+03  0.54544137546E+03  0.00000000000E+00 0.  1.
          4    1    6    6  503    0  0.38222979625E+02 -0.27407526105E+03  0.18581001076E+02  0.27735085810E+03  0.00000000000E+00 0.  1.
         -4    1    6    6    0  503  0.56611991500E+01 -0.25003990433E+02  0.34643946349E+02  0.43098163905E+02  0.00000000000E+00 0. -1.
<mgrwt>
<rscale>  0 0.15323083E+04</rscale>
<asrwt>0</asrwt>
<pdfrwt beam="1">  1        2 0.21369312E+00 0.15323083E+04</pdfrwt>
<pdfrwt beam="2">  1       -2 0.65015225E-01 0.15323083E+04</pdfrwt>
<totfact> 0.30877591E+01</totfact>
</mgrwt>
</event>
<event>
12    3  0.4769008E-008  0.2460172E+04  0.7818608E-02  0.8417313E-01
         -2   -1    0    0    0  501 -0.00000000000E+00  0.00000000000E+00  0.19234202036E+04  0.19234202036E+04  0.00000000000E+00 0. -1.
          2   -1    0    0  501    0  0.00000000000E+00 -0.00000000000E+00 -0.78667756485E+03  0.78667756485E+03  0.00000000000E+00 0.  1.
         23    2    1    2    0    0 -0.27992068092E+03  0.17856309069E+03 -0.61780160295E+03  0.70751876903E+03  0.93078584809E+02 0.  0.
        254    2    1    2    0    0  0.27992068092E+03 -0.17856309069E+03  0.17545442417E+04  0.20025789994E+04  0.90645286027E+03 0.  0.
         23    2    4    4    0    0  0.51341616241E+03 -0.14453848378E+03  0.54840940391E+03  0.77040116429E+03  0.90981044785E+02 0.  0.
         23    2    4    4    0    0 -0.23349548149E+03 -0.34024606908E+02  0.12061348378E+04  0.12321778351E+04  0.88448610752E+02 0.  0.
          3    1    3    3  502    0 -0.61232684674E+02  0.89740206049E+02 -0.20439266250E+03  0.23147161109E+03  0.00000000000E+00 0. -1.
         -3    1    3    3    0  502 -0.21868799625E+03  0.88822884640E+02 -0.41340894045E+03  0.47604715794E+03  0.00000000000E+00 0.  1.
         13    1    5    5    0    0  0.31690452535E+03 -0.11246259003E+03  0.39691085468E+03  0.52020624650E+03  0.00000000000E+00 0.  1.
        -13    1    5    5    0    0  0.19651163707E+03 -0.32075893755E+02  0.15149854923E+03  0.25019491778E+03  0.00000000000E+00 0. -1.
          2    1    6    6  503    0  0.56772064090E+01 -0.46513781624E+01  0.12784363100E+02  0.14741300190E+02  0.00000000000E+00 0. -1.
         -2    1    6    6    0  503 -0.23917268790E+03 -0.29373228746E+02  0.11933504747E+04  0.12174365349E+04  0.00000000000E+00 0.  1.
<mgrwt>
<rscale>  0 0.24601720E+04</rscale>
<asrwt>0</asrwt>
<pdfrwt beam="1">  1        2 0.12102732E+00 0.24601720E+04</pdfrwt>
<pdfrwt beam="2">  1       -2 0.29591080E+00 0.24601720E+04</pdfrwt>
<totfact> 0.10613620E+00</totfact>
</mgrwt>
</event>
<event>
12    3  0.4769008E-008  0.1442206E+04  0.7818608E-02  0.8923821E-01
         -2   -1    0    0    0  501 -0.00000000000E+00  0.00000000000E+00  0.12237700477E+04  0.12237700477E+04  0.00000000000E+00 0.  1.
          2   -1    0    0  501    0  0.00000000000E+00 -0.00000000000E+00 -0.42490815699E+03  0.42490815699E+03  0.00000000000E+00 0. -1.
         23    2    1    2    0    0 -0.21534139954E+02  0.38815410085E+03  0.38810041145E+02  0.40894442557E+03  0.12083873021E+03 0.  0.
        254    2    1    2    0    0  0.21534139954E+02 -0.38815410085E+03  0.76005184960E+03  0.12397337791E+04  0.89896257090E+03 0.  0.
         23    2    4    4    0    0  0.18326799889E+03  0.19789714460E+03  0.49260289908E+03  0.56909823628E+03  0.92004060199E+02 0.  0.
         23    2    4    4    0    0 -0.16173385894E+03 -0.58605124545E+03  0.26744895051E+03  0.67063554286E+03  0.92785703629E+02 0.  0.
          2    1    3    3  502    0  0.37576740570E+02  0.25117665115E+03 -0.30686305092E+01  0.25399042897E+03  0.00000000000E+00 0. -1.
         -2    1    3    3    0  502 -0.59110880524E+02  0.13697744970E+03  0.41878671654E+02  0.15495399660E+03  0.00000000000E+00 0.  1.
         13    1    5    5    0    0  0.93357852675E+01  0.93269004850E-01  0.73545450027E+02  0.74135678357E+02  0.00000000000E+00 0.  1.
        -13    1    5    5    0    0  0.17393221363E+03  0.19780387560E+03  0.41905744905E+03  0.49496255792E+03  0.00000000000E+00 0. -1.
          1    1    6    6  503    0 -0.17065069412E+03 -0.50056572365E+03  0.22415529866E+03  0.57439820770E+03  0.00000000000E+00 0. -1.
         -1    1    6    6    0  503  0.89168351838E+01 -0.85485521806E+02  0.43293651858E+02  0.96237335164E+02  0.00000000000E+00 0.  1.
<mgrwt>
<rscale>  0 0.14422065E+04</rscale>
<asrwt>0</asrwt>
<pdfrwt beam="1">  1        2 0.65370486E-01 0.14422065E+04</pdfrwt>
<pdfrwt beam="2">  1       -2 0.18827231E+00 0.14422065E+04</pdfrwt>
<totfact> 0.11458384E+01</totfact>
</mgrwt>
</event>
<event>
12    3  0.4769008E-008  0.1957634E+04  0.7818608E-02  0.8626688E-01
         -1   -1    0    0    0  501 -0.00000000000E+00  0.00000000000E+00  0.85493206174E+03  0.85493206174E+03  0.00000000000E+00 0.  1.
          1   -1    0    0  501    0  0.00000000000E+00 -0.00000000000E+00 -0.11206538949E+04  0.11206538949E+04  0.00000000000E+00 0. -1.
         23    2    1    2    0    0  0.17152006807E+02  0.43107533290E+02 -0.89953419067E+03  0.90510251328E+03  0.88861401013E+02 0.  0.
        254    2    1    2    0    0 -0.17152006807E+02 -0.43107533290E+02  0.63381235751E+03  0.10704834434E+04  0.86143151046E+03 0.  0.
         23    2    4    4    0    0  0.27259309747E+03  0.27742881174E+03  0.18502390254E+03  0.44053108767E+03  0.92520550802E+02 0.  0.
         23    2    4    4    0    0 -0.28974510428E+03 -0.32053634503E+03  0.44878845497E+03  0.62995235569E+03  0.93451159350E+02 0.  0.
          4    1    3    3  502    0 -0.91613943855E+01  0.42464330537E+02 -0.82343066316E+03  0.82457577429E+03  0.00000000000E+00 0. -1.
         -4    1    3    3    0  502  0.26313401193E+02  0.64320275351E+00 -0.76103527509E+02  0.80526738984E+02  0.00000000000E+00 0.  1.
         13    1    5    5    0    0  0.10197723683E+03  0.60944502654E+02  0.89758428843E+02  0.14889649017E+03  0.00000000000E+00 0.  1.
        -13    1    5    5    0    0  0.17061586064E+03  0.21648430909E+03  0.95265473694E+02  0.29163459750E+03  0.00000000000E+00 0. -1.
          2    1    6    6  503    0 -0.58964560369E+02 -0.33838037927E+02  0.11229477860E+03  0.13127052026E+03  0.00000000000E+00 0.  1.
         -2    1    6    6    0  503 -0.23078054391E+03 -0.28669830710E+03  0.33649367638E+03  0.49868183543E+03  0.00000000000E+00 0. -1.
<mgrwt>
<rscale>  0 0.19576342E+04</rscale>
<asrwt>0</asrwt>
<pdfrwt beam="1">  1        1 0.17240829E+00 0.19576342E+04</pdfrwt>
<pdfrwt beam="2">  1       -1 0.13152801E+00 0.19576342E+04</pdfrwt>
<totfact> 0.56082417E+00</totfact>
</mgrwt>
</event>
<event>
12    3  0.4769008E-008  0.1860617E+04  0.7818608E-02  0.8674712E-01
         -1   -1    0    0    0  501 -0.00000000000E+00  0.00000000000E+00  0.11050091065E+04  0.11050091065E+04  0.00000000000E+00 0.  1.
          1   -1    0    0  501    0  0.00000000000E+00 -0.00000000000E+00 -0.78322765022E+03  0.78322765022E+03  0.00000000000E+00 0. -1.
         23    2    1    2    0    0 -0.90762697568E+02  0.23038396163E+03 -0.56303621652E+03  0.62127391511E+03  0.87503482447E+02 0.  0.
        254    2    1    2    0    0  0.90762697568E+02 -0.23038396163E+03  0.88481767276E+03  0.12669628416E+04  0.87234046729E+03 0.  0.
         23    2    4    4    0    0 -0.34387523628E+03 -0.28364379195E+03  0.48836515751E+03  0.66896610145E+03  0.10154377866E+03 0.  0.
         23    2    4    4    0    0  0.43463793385E+03  0.53259830325E+02  0.39645251525E+03  0.59799674013E+03  0.93159869549E+02 0.  0.
          3    1    3    3  502    0 -0.84638002533E+02  0.14651880099E+03 -0.44714489920E+03  0.47808985703E+03  0.00000000000E+00 0. -1.
         -3    1    3    3    0  502 -0.61246950351E+01  0.83865160639E+02 -0.11589131732E+03  0.14318405808E+03  0.00000000000E+00 0.  1.
         13    1    5    5    0    0 -0.12735011249E+03 -0.52065319331E+02  0.18140712717E+03  0.22767826953E+03  0.00000000000E+00 0.  1.
        -13    1    5    5    0    0 -0.21652512379E+03 -0.23157847262E+03  0.30695803034E+03  0.44128783192E+03  0.00000000000E+00 0. -1.
          1    1    6    6  503    0  0.13695011888E+03  0.33085397647E+02  0.18386492775E+03  0.23163827459E+03  0.00000000000E+00 0.  1.
         -1    1    6    6    0  503  0.29768781497E+03  0.20174432678E+02  0.21258758750E+03  0.36635846554E+03  0.00000000000E+00 0. -1.
<mgrwt>
<rscale>  0 0.18606168E+04</rscale>
<asrwt>0</asrwt>
<pdfrwt beam="1">  1        1 0.12049656E+00 0.18606168E+04</pdfrwt>
<pdfrwt beam="2">  1       -1 0.17000140E+00 0.18606168E+04</pdfrwt>
<totfact> 0.52831266E+00</totfact>
</mgrwt>
</event>
<event>
12    3  0.4769008E-008  0.2743063E+04  0.7818608E-02  0.8321166E-01
         -2   -1    0    0    0  501 -0.00000000000E+00  0.00000000000E+00  0.45414852351E+03  0.45414852351E+03  0.00000000000E+00 0.  1.
          2   -1    0    0  501    0  0.00000000000E+00 -0.00000000000E+00 -0.41420347887E+04  0.41420347887E+04  0.00000000000E+00 0. -1.
         23    2    1    2    0    0  0.21608315891E+03  0.50653309352E+03  0.17640260134E+03  0.58543607575E+03  0.91377320113E+02 0.  0.
        254    2    1    2    0    0 -0.21608315891E+03 -0.50653309352E+03 -0.38642888666E+04  0.40107472365E+04  0.92200718241E+03 0.  0.
         23    2    4    4    0    0 -0.56492273862E+03 -0.26081699101E+03 -0.20448024862E+04  0.21395513490E+04  0.96434247348E+02 0.  0.
         23    2    4    4    0    0  0.34883957971E+03 -0.24571610252E+03 -0.18194863803E+04  0.18711958875E+04  0.93690477699E+02 0.  0.
          3    1    3    3  502    0  0.56390666589E+01  0.11767405628E+02  0.22789721363E+02  0.26261041636E+02  0.00000000000E+00 0. -1.
         -3    1    3    3    0  502  0.21044409225E+03  0.49476568789E+03  0.15361287998E+03  0.55917503411E+03  0.00000000000E+00 0.  1.
         13    1    5    5    0    0 -0.36299170188E+03 -0.20020848177E+03 -0.12331281106E+04  0.13009424848E+04  0.00000000000E+00 0.  1.
        -13    1    5    5    0    0 -0.20193103675E+03 -0.60608509240E+02 -0.81167437567E+03  0.83860886420E+03  0.00000000000E+00 0. -1.
          3    1    6    6  503    0  0.58544204730E+02 -0.27613238863E+02 -0.16302063739E+03  0.17540137709E+03  0.00000000000E+00 0. -1.
         -3    1    6    6    0  503  0.29029537498E+03 -0.21810286365E+03 -0.16564657429E+04  0.16957945104E+04  0.00000000000E+00 0.  1.
<mgrwt>
<rscale>  0 0.27430632E+04</rscale>
<asrwt>0</asrwt>
<pdfrwt beam="1">  1        2 0.63723614E+00 0.27430632E+04</pdfrwt>
<pdfrwt beam="2">  1       -2 0.69869002E-01 0.27430632E+04</pdfrwt>
<totfact> 0.42617349E-01</totfact>
</mgrwt>
</event>
<event>
12    3  0.4769008E-008  0.1362578E+04  0.7818608E-02  0.8981361E-01
          2   -1    0    0  501    0  0.00000000000E+00  0.00000000000E+00  0.12422792423E+04  0.12422792423E+04  0.00000000000E+00 0. -1.
         -2   -1    0    0    0  501 -0.00000000000E+00 -0.00000000000E+00 -0.37363175630E+03  0.37363175630E+03  0.00000000000E+00 0.  1.
         23    2    1    2    0    0  0.67826180482E+02 -0.36676019424E+03  0.18956562405E+03  0.42811301618E+03  0.90731460734E+02 0.  0.
        254    2    1    2    0    0 -0.67826180482E+02  0.36676019424E+03  0.67908186200E+03  0.11877979825E+04  0.90033240584E+03 0.  0.
         23    2    4    4    0    0  0.14082995983E+03 -0.25061048083E+03  0.12059548111E+03  0.32464621867E+03  0.90626742981E+02 0.  0.
         23    2    4    4    0    0 -0.20865614032E+03  0.61737067507E+03  0.55848638089E+03  0.86315176379E+03  0.91869441926E+02 0.  0.
          3    1    3    3  502    0  0.36397305864E+02 -0.79495782217E+02  0.81689309841E+02  0.11965570027E+03  0.00000000000E+00 0. -1.
         -3    1    3    3    0  502  0.31428874618E+02 -0.28726441202E+03  0.10787631421E+03  0.30845731592E+03  0.00000000000E+00 0.  1.
         13    1    5    5    0    0  0.52356424063E+02 -0.14536867703E+03  0.10378996756E+03  0.18613329839E+03  0.00000000000E+00 0. -1.
        -13    1    5    5    0    0  0.88473535771E+02 -0.10524180380E+03  0.16805513544E+02  0.13851292028E+03  0.00000000000E+00 0.  1.
          4    1    6    6  503    0 -0.93538427814E+02  0.41391327193E+03  0.35872411924E+03  0.55565873329E+03  0.00000000000E+00 0. -1.
         -4    1    6    6    0  503 -0.11511771250E+03  0.20345740315E+03  0.19976226165E+03  0.30749303050E+03  0.00000000000E+00 0.  1.
<mgrwt>
<rscale>  0 0.13625784E+04</rscale>
<asrwt>0</asrwt>
<pdfrwt beam="1">  1        2 0.19111988E+00 0.13625784E+04</pdfrwt>
<pdfrwt beam="2">  1       -2 0.57481809E-01 0.13625784E+04</pdfrwt>
<totfact> 0.49448750E+01</totfact>
</mgrwt>
</event>
<event>
12    3  0.4769008E-008  0.1470178E+04  0.7818608E-02  0.8904530E-01
         -2   -1    0    0    0  501 -0.00000000000E+00  0.00000000000E+00  0.34654104560E+03  0.34654104560E+03  0.00000000000E+00 0.  1.
          2   -1    0    0  501    0  0.00000000000E+00 -0.00000000000E+00 -0.15592846816E+04  0.15592846816E+04  0.00000000000E+00 0. -1.
         23    2    1    2    0    0  0.36057635770E+03  0.17128353896E+03 -0.11563025807E+03  0.42566390295E+03  0.92011093046E+02 0.  0.
        254    2    1    2    0    0 -0.36057635770E+03 -0.17128353896E+03 -0.10971133779E+04  0.14801618243E+04  0.90987246441E+03 0.  0.
         23    2    4    4    0    0 -0.47773522956E+03 -0.15148215799E+03 -0.16788894590E+03  0.53820513570E+03  0.10149027629E+03 0.  0.
         23    2    4    4    0    0  0.11715887187E+03 -0.19801380974E+02 -0.92922443204E+03  0.94195668856E+03  0.98519348788E+02 0.  0.
          1    1    3    3  502    0  0.57815717267E+02 -0.61258000341E+01 -0.24665004499E+02  0.63154928835E+02  0.00000000000E+00 0. -1.
         -1    1    3    3    0  502  0.30276064043E+03  0.17740933900E+03 -0.90965253574E+02  0.36250897412E+03  0.00000000000E+00 0.  1.
         13    1    5    5    0    0 -0.23648811033E+03 -0.27413248640E+02 -0.10222240999E+03  0.25908981770E+03  0.00000000000E+00 0. -1.
        -13    1    5    5    0    0 -0.24124711923E+03 -0.12406890935E+03 -0.65666535908E+02  0.27911531800E+03  0.00000000000E+00 0.  1.
          1    1    6    6  503    0  0.50875965276E+02 -0.43220885315E+02 -0.23857164719E+03  0.24773542260E+03  0.00000000000E+00 0. -1.
         -1    1    6    6    0  503  0.66282906592E+02  0.23419504341E+02 -0.69065278485E+03  0.69422126596E+03  0.00000000000E+00 0.  1.
<mgrwt>
<rscale>  0 0.14701784E+04</rscale>
<asrwt>0</asrwt>
<pdfrwt beam="1">  1        2 0.23988995E+00 0.14701784E+04</pdfrwt>
<pdfrwt beam="2">  1       -2 0.53314007E-01 0.14701784E+04</pdfrwt>
<totfact> 0.37740991E+01</totfact>
</mgrwt>
</event>
<event>
12    3  0.4769008E-008  0.2092877E+04  0.7818608E-02  0.8564388E-01
          2   -1    0    0  501    0  0.00000000000E+00  0.00000000000E+00  0.60455360247E+03  0.60455360247E+03  0.00000000000E+00 0. -1.
         -2   -1    0    0    0  501 -0.00000000000E+00 -0.00000000000E+00 -0.18113088730E+04  0.18113088730E+04  0.00000000000E+00 0.  1.
         23    2    1    2    0    0 -0.22484252603E+02  0.27729531194E+03 -0.14374210007E+04  0.14687560231E+04  0.11690547777E+03 0.  0.
        254    2    1    2    0    0  0.22484252603E+02 -0.27729531194E+03  0.23066573011E+03  0.94710645235E+03  0.87544601284E+03 0.  0.
         23    2    4    4    0    0  0.11366651996E+03 -0.50489660214E+03 -0.89927124215E+02  0.53328770723E+03  0.92023010137E+02 0.  0.
         23    2    4    4    0    0 -0.91182267354E+02  0.22760129020E+03  0.32059285433E+03  0.41381874512E+03  0.91376268191E+02 0.  0.
          4    1    3    3  502    0 -0.45313097297E+02  0.45742189781E+02 -0.43141042022E+03  0.43618869241E+03  0.00000000000E+00 0. -1.
         -4    1    3    3    0  502  0.22828844694E+02  0.23155312216E+03 -0.10060105804E+04  0.10325673307E+04  0.00000000000E+00 0.  1.
         13    1    5    5    0    0  0.37217803158E+02 -0.40942264803E+02 -0.12833098117E+02  0.56798964131E+02  0.00000000000E+00 0. -1.
        -13    1    5    5    0    0  0.76448716800E+02 -0.46395433734E+03 -0.77094026098E+02  0.47648874309E+03  0.00000000000E+00 0.  1.
          1    1    6    6  503    0 -0.11635109518E+02  0.52082008539E+02  0.20472772790E+02  0.57158077405E+02  0.00000000000E+00 0. -1.
         -1    1    6    6    0  503 -0.79547157836E+02  0.17551928166E+03  0.30012008154E+03  0.35666066772E+03  0.00000000000E+00 0.  1.
<mgrwt>
<rscale>  0 0.20928768E+04</rscale>
<asrwt>0</asrwt>
<pdfrwt beam="1">  1        2 0.93008247E-01 0.20928768E+04</pdfrwt>
<pdfrwt beam="2">  1       -2 0.27866290E+00 0.20928768E+04</pdfrwt>
<totfact> 0.19450768E+00</totfact>
</mgrwt>
</event>
<event>
12    3  0.4769008E-008  0.2310637E+04  0.7818608E-02  0.8473739E-01
          2   -1    0    0  501    0  0.00000000000E+00  0.00000000000E+00  0.24632189823E+04  0.24632189823E+04  0.00000000000E+00 0. -1.
         -2   -1    0    0    0  501 -0.00000000000E+00 -0.00000000000E+00 -0.54187678320E+03  0.54187678320E+03  0.00000000000E+00 0.  1.
         23    2    1    2    0    0 -0.52462182630E+03 -0.58273904098E+03  0.57038980297E+02  0.79141064369E+03  0.90909356839E+02 0.  0.
        254    2    1    2    0    0  0.52462182630E+03  0.58273904098E+03  0.18643032188E+04  0.22136851218E+04  0.89997915332E+03 0.  0.
         23    2    4    4    0    0  0.53477332787E+03  0.79440776735E+03  0.14725360386E+04  0.17588898164E+04  0.90910879562E+02 0.  0.
         23    2    4    4    0    0 -0.10151501565E+02 -0.21166872637E+03  0.39176718019E+03  0.45479530547E+03  0.91926838810E+02 0.  0.
          2    1    3    3  502    0 -0.49007486802E+03 -0.55036513399E+03  0.31483050342E+02  0.73760852723E+03  0.00000000000E+00 0. -1.
         -2    1    3    3    0  502 -0.34546958287E+02 -0.32373906984E+02  0.25555929955E+02  0.53802116465E+02  0.00000000000E+00 0.  1.
         13    1    5    5    0    0  0.39383426849E+03  0.64896014556E+03  0.11443584052E+04  0.13732482883E+04  0.00000000000E+00 0. -1.
        -13    1    5    5    0    0  0.14093905938E+03  0.14544762180E+03  0.32817763341E+03  0.38564152812E+03  0.00000000000E+00 0.  1.
          2    1    6    6  503    0 -0.38633719005E+02 -0.18206916965E+03  0.34879789467E+03  0.39535012092E+03  0.00000000000E+00 0. -1.
         -2    1    6    6    0  503  0.28482217440E+02 -0.29599556725E+02  0.42969285520E+02  0.59445184554E+02  0.00000000000E+00 0.  1.
<mgrwt>
<rscale>  0 0.23106373E+04</rscale>
<asrwt>0</asrwt>
<pdfrwt beam="1">  1        2 0.37895676E+00 0.23106373E+04</pdfrwt>
<pdfrwt beam="2">  1       -2 0.83365661E-01 0.23106373E+04</pdfrwt>
<totfact> 0.41702320E+00</totfact>
</mgrwt>
</event>
<event>
12    3  0.4769008E-008  0.1473831E+04  0.7818608E-02  0.8902044E-01
         -1   -1    0    0    0  501 -0.00000000000E+00  0.00000000000E+00  0.13944475145E+04  0.13944475145E+04  0.00000000000E+00 0.  1.
          1   -1    0    0  501    0  0.00000000000E+00 -0.00000000000E+00 -0.38943363061E+03  0.38943363061E+03  0.00000000000E+00 0. -1.
         23    2    1    2    0    0 -0.80658448230E+02 -0.19239059167E+02  0.86318487119E+03  0.87111098634E+03  0.82887284978E+02 0.  0.
        254    2    1    2    0    0  0.80658448230E+02  0.19239059167E+02  0.14182901267E+03  0.91277015873E+03  0.89786300022E+03 0.  0.
         23    2    4    4    0    0 -0.15520511007E+03  0.33411012630E+03 -0.15568219584E+03  0.41029141300E+03  0.91563610639E+02 0.  0.
         23    2    4    4    0    0  0.23586355830E+03 -0.31487106713E+03  0.29751120850E+03  0.50247874573E+03  0.95898715725E+02 0.  0.
          2    1    3    3  502    0 -0.43074749774E+02 -0.17833093079E+02  0.75750299792E+03  0.75893625894E+03  0.00000000000E+00 0.  1.
         -2    1    3    3    0  502 -0.37583698456E+02 -0.14059660887E+01  0.10568187326E+03  0.11217472740E+03  0.00000000000E+00 0. -1.
         13    1    5    5    0    0 -0.78060289825E+02  0.76840990061E+02 -0.61820523414E+02  0.12577648316E+03  0.00000000000E+00 0.  1.
        -13    1    5    5    0    0 -0.77144820245E+02  0.25726913624E+03 -0.93861672422E+02  0.28451492984E+03  0.00000000000E+00 0. -1.
          3    1    6    6  503    0  0.64686559896E+02 -0.16549363829E+03  0.13480295978E+03  0.22303437697E+03  0.00000000000E+00 0. -1.
         -3    1    6    6    0  503  0.17117699840E+03 -0.14937742884E+03  0.16270824872E+03  0.27944436876E+03  0.00000000000E+00 0.  1.
<mgrwt>
<rscale>  0 0.14738314E+04</rscale>
<asrwt>0</asrwt>
<pdfrwt beam="1">  1        1 0.59912867E-01 0.14738314E+04</pdfrwt>
<pdfrwt beam="2">  1       -1 0.21453038E+00 0.14738314E+04</pdfrwt>
<totfact> 0.72196345E+00</totfact>
</mgrwt>
</event>
<event>
12    3  0.4769008E-008  0.2340200E+04  0.7818608E-02  0.8462237E-01
         -2   -1    0    0    0  501 -0.00000000000E+00  0.00000000000E+00  0.18356264865E+04  0.18356264865E+04  0.00000000000E+00 0.  1.
          2   -1    0    0  501    0  0.00000000000E+00 -0.00000000000E+00 -0.74586765533E+03  0.74586765533E+03  0.00000000000E+00 0. -1.
         23    2    1    2    0    0  0.52419015455E+03  0.24299719848E+03 -0.42623573206E+03  0.72403660893E+03  0.93429947962E+02 0.  0.
        254    2    1    2    0    0 -0.52419015455E+03 -0.24299719848E+03  0.15159945632E+04  0.18574575329E+04  0.90448107453E+03 0.  0.
         23    2    4    4    0    0 -0.37104488472E+03  0.14331523031E+03  0.13332355236E+04  0.13943571434E+04  0.92202604348E+02 0.  0.
         23    2    4    4    0    0 -0.15314526984E+03 -0.38631242880E+03  0.18275903964E+03  0.46310038951E+03  0.91489550641E+02 0.  0.
          1    1    3    3  502    0  0.51268528564E+03  0.24760232182E+03 -0.42691673070E+03  0.71162560861E+03  0.00000000000E+00 0. -1.
         -1    1    3    3    0  502  0.11504868915E+02 -0.46051233372E+01  0.68099863335E+00  0.12411000316E+02  0.00000000000E+00 0.  1.
         13    1    5    5    0    0 -0.18535411777E+03  0.38625992419E+02  0.51134055273E+03  0.54526807823E+03  0.00000000000E+00 0. -1.
        -13    1    5    5    0    0 -0.18569076695E+03  0.10468923789E+03  0.82189497086E+03  0.84908906517E+03  0.00000000000E+00 0.  1.
          2    1    6    6  503    0 -0.11239005435E+03 -0.18237262734E+03  0.12156813797E+03  0.24631303597E+03  0.00000000000E+00 0.  1.
         -2    1    6    6    0  503 -0.40755215494E+02 -0.20393980146E+03  0.61190901670E+02  0.21678735354E+03  0.00000000000E+00 0. -1.
<mgrwt>
<rscale>  0 0.23402004E+04</rscale>
<asrwt>0</asrwt>
<pdfrwt beam="1">  1        2 0.11474887E+00 0.23402004E+04</pdfrwt>
<pdfrwt beam="2">  1       -2 0.28240407E+00 0.23402004E+04</pdfrwt>
<totfact> 0.13897737E+00</totfact>
</mgrwt>
</event>
<event>
12    3  0.4769008E-008  0.3121458E+04  0.7818608E-02  0.8209874E-01
          1   -1    0    0  501    0  0.00000000000E+00  0.00000000000E+00  0.14560758187E+04  0.14560758187E+04  0.00000000000E+00 0. -1.
         -1   -1    0    0    0  501 -0.00000000000E+00 -0.00000000000E+00 -0.16729039896E+04  0.16729039896E+04  0.00000000000E+00 0.  1.
         23    2    1    2    0    0 -0.67593131724E+03  0.11140631305E+04 -0.66351406986E+03  0.14653113068E+04  0.94162097559E+02 0.  0.
        254    2    1    2    0    0  0.67593131724E+03 -0.11140631305E+04  0.44668589899E+03  0.16636685015E+04  0.93286911526E+03 0.  0.
         23    2    4    4    0    0  0.26763556488E+03 -0.89861067832E+03 -0.94446806914E+02  0.94641623562E+03  0.87484541098E+02 0.  0.
         23    2    4    4    0    0  0.40829575236E+03 -0.21545245218E+03  0.54113270590E+03  0.71725226589E+03  0.92201013994E+02 0.  0.
          3    1    3    3  502    0 -0.38796605017E+03  0.67418754000E+03 -0.44333684349E+03  0.89531784969E+03  0.00000000000E+00 0. -1.
         -3    1    3    3    0  502 -0.28796526707E+03  0.43987559050E+03 -0.22017722637E+03  0.56999345713E+03  0.00000000000E+00 0.  1.
         13    1    5    5    0    0  0.63568088711E+02 -0.33467288189E+03 -0.58247113302E+02  0.34560029801E+03  0.00000000000E+00 0. -1.
        -13    1    5    5    0    0  0.20406747617E+03 -0.56393779643E+03 -0.36199693612E+02  0.60081593762E+03  0.00000000000E+00 0.  1.
          4    1    6    6  503    0  0.22572512729E+03 -0.11573572612E+03  0.22653239800E+03  0.34009339707E+03  0.00000000000E+00 0. -1.
         -4    1    6    6    0  503  0.18257062507E+03 -0.99716726067E+02  0.31460030790E+03  0.37715886882E+03  0.00000000000E+00 0.  1.
<mgrwt>
<rscale>  0 0.31214580E+04</rscale>
<asrwt>0</asrwt>
<pdfrwt beam="1">  1        1 0.22401166E+00 0.31214580E+04</pdfrwt>
<pdfrwt beam="2">  1       -1 0.25736984E+00 0.31214580E+04</pdfrwt>
<totfact> 0.36895292E-01</totfact>
</mgrwt>
</event>
<event>
12    3  0.4769008E-008  0.1178963E+04  0.7818608E-02  0.9131472E-01
         -1   -1    0    0    0  501 -0.00000000000E+00  0.00000000000E+00  0.44209631467E+03  0.44209631467E+03  0.00000000000E+00 0.  1.
          1   -1    0    0  501    0  0.00000000000E+00 -0.00000000000E+00 -0.78600116784E+03  0.78600116784E+03  0.00000000000E+00 0. -1.
         23    2    1    2    0    0 -0.88807125183E+02  0.58734789873E+02 -0.29090360974E+03  0.32248539455E+03  0.89640607507E+02 0.  0.
        254    2    1    2    0    0  0.88807125183E+02 -0.58734789873E+02 -0.53001243433E+02  0.90561208796E+03  0.89776814436E+03 0.  0.
         23    2    4    4    0    0 -0.32970282001E+03  0.19586571875E+03 -0.97228479183E+02  0.40714902636E+03  0.96174961375E+02 0.  0.
         23    2    4    4    0    0  0.41850994520E+03 -0.25460050862E+03  0.44227235750E+02  0.49846306160E+03  0.80854079567E+02 0.  0.
          1    1    3    3  502    0 -0.10191788055E+03  0.46940148282E+02 -0.28025794740E+03  0.30188598672E+03  0.00000000000E+00 0. -1.
         -1    1    3    3    0  502  0.13110755362E+02  0.11794641591E+02 -0.10645662340E+02  0.20599407833E+02  0.00000000000E+00 0.  1.
         13    1    5    5    0    0 -0.56549410502E+02  0.45967424995E+02 -0.57939999649E+02  0.93101469097E+02  0.00000000000E+00 0.  1.
        -13    1    5    5    0    0 -0.27315340951E+03  0.14989829375E+03 -0.39288479533E+02  0.31404755726E+03  0.00000000000E+00 0. -1.
          2    1    6    6  503    0  0.21524019992E+03 -0.15450356849E+03 -0.11251154834E+02  0.26519103458E+03  0.00000000000E+00 0. -1.
         -2    1    6    6    0  503  0.20326974528E+03 -0.10009694013E+03  0.55478390584E+02  0.23327202702E+03  0.00000000000E+00 0.  1.
<mgrwt>
<rscale>  0 0.11789626E+04</rscale>
<asrwt>0</asrwt>
<pdfrwt beam="1">  1        1 0.12092326E+00 0.11789626E+04</pdfrwt>
<pdfrwt beam="2">  1       -1 0.68014818E-01 0.11789626E+04</pdfrwt>
<totfact> 0.49351909E+01</totfact>
</mgrwt>
</event>
<event>
12    3  0.4769008E-008  0.1455169E+04  0.7818608E-02  0.8914825E-01
         -1   -1    0    0    0  501 -0.00000000000E+00  0.00000000000E+00  0.48572013286E+03  0.48572013286E+03  0.00000000000E+00 0.  1.
          1   -1    0    0  501    0  0.00000000000E+00 -0.00000000000E+00 -0.10898855706E+04  0.10898855706E+04  0.00000000000E+00 0. -1.
         23    2    1    2    0    0 -0.19166085147E+03 -0.28977294122E+03  0.10594155920E+03  0.37463507388E+03  0.91790986299E+02 0.  0.
        254    2    1    2    0    0  0.19166085147E+03  0.28977294122E+03 -0.71010699695E+03  0.12009706296E+04  0.90408863867E+03 0.  0.
         23    2    4    4    0    0  0.98189390268E+02  0.50194741754E+03 -0.78638266426E+03  0.94259460583E+03  0.92165774347E+02 0.  0.
         23    2    4    4    0    0  0.93471461199E+02 -0.21217447632E+03  0.76275667306E+02  0.25837602376E+03  0.84765970586E+02 0.  0.
          2    1    3    3  502    0 -0.68858347544E+02 -0.14403856707E+03  0.90298843773E+02  0.18341881588E+03  0.00000000000E+00 0. -1.
         -2    1    3    3    0  502 -0.12280250392E+03 -0.14573437415E+03  0.15642715422E+02  0.19121625800E+03  0.00000000000E+00 0.  1.
         13    1    5    5    0    0  0.10701515882E+03  0.49598357668E+03 -0.77885209480E+03  0.92954964264E+03  0.00000000000E+00 0.  1.
        -13    1    5    5    0    0 -0.88257685541E+01  0.59638408629E+01 -0.75305694594E+01  0.13044963196E+02  0.00000000000E+00 0. -1.
          4    1    6    6  503    0  0.68744832020E+02 -0.12314803208E+03  0.40408061435E+01  0.14109435796E+03  0.00000000000E+00 0. -1.
         -4    1    6    6    0  503  0.24726629179E+02 -0.89026444248E+02  0.72234861163E+02  0.11728166580E+03  0.00000000000E+00 0.  1.
<mgrwt>
<rscale>  0 0.14551692E+04</rscale>
<asrwt>0</asrwt>
<pdfrwt beam="1">  1        1 0.16767470E+00 0.14551692E+04</pdfrwt>
<pdfrwt beam="2">  1       -1 0.74726175E-01 0.14551692E+04</pdfrwt>
<totfact> 0.22573248E+01</totfact>
</mgrwt>
</event>
<event>
12    3  0.4769008E-008  0.1607663E+04  0.7818608E-02  0.8815854E-01
          1   -1    0    0  501    0  0.00000000000E+00  0.00000000000E+00  0.95205265812E+03  0.95205265812E+03  0.00000000000E+00 0. -1.
         -1   -1    0    0    0  501 -0.00000000000E+00 -0.00000000000E+00 -0.67868670515E+03  0.67868670515E+03  0.00000000000E+00 0.  1.
         23    2    1    2    0    0 -0.91606072018E+02 -0.11246574457E+03 -0.43665130658E+03  0.46935590432E+03  0.92684331197E+02 0.  0.
        254    2    1    2    0    0  0.91606072018E+02  0.11246574457E+03  0.71001725955E+03  0.11613834589E+04  0.90754989599E+03 0.  0.
         23    2    4    4    0    0  0.22697761381E+03  0.26210692018E+03  0.83398114095E+03  0.90775864616E+03  0.91007370304E+02 0.  0.
         23    2    4    4    0    0 -0.13537154179E+03 -0.14964117560E+03 -0.12396388139E+03  0.25362481279E+03  0.90777563356E+02 0.  0.
          2    1    3    3  502    0 -0.40907987162E+02 -0.16343098415E+02 -0.45264420481E+02  0.63161919231E+02  0.00000000000E+00 0. -1.
         -2    1    3    3    0  502 -0.50698084856E+02 -0.96122646159E+02 -0.39138688610E+03  0.40619398509E+03  0.00000000000E+00 0.  1.
         13    1    5    5    0    0  0.10891339731E+03  0.70143085202E+02  0.36812110305E+03  0.39025033892E+03  0.00000000000E+00 0.  1.
        -13    1    5    5    0    0  0.11806421650E+03  0.19196383497E+03  0.46586003790E+03  0.51750830724E+03  0.00000000000E+00 0. -1.
          3    1    6    6  503    0 -0.13057033366E+03 -0.16186574513E+03 -0.11885798892E+03  0.23953361562E+03  0.00000000000E+00 0. -1.
         -3    1    6    6    0  503 -0.48012081291E+01  0.12224569532E+02 -0.51058924679E+01  0.14091197168E+02  0.00000000000E+00 0.  1.
<mgrwt>
<rscale>  0 0.16076635E+04</rscale>
<asrwt>0</asrwt>
<pdfrwt beam="1">  1        1 0.14646964E+00 0.16076635E+04</pdfrwt>
<pdfrwt beam="2">  1       -1 0.10441334E+00 0.16076635E+04</pdfrwt>
<totfact> 0.13661148E+01</totfact>
</mgrwt>
</event>
<event>
12    3  0.4769008E-008  0.1044682E+04  0.7818608E-02  0.9260852E-01
         -2   -1    0    0    0  501 -0.00000000000E+00  0.00000000000E+00  0.18016234860E+03  0.18016234860E+03  0.00000000000E+00 0.  1.
          2   -1    0    0  501    0  0.00000000000E+00 -0.00000000000E+00 -0.15144116684E+04  0.15144116684E+04  0.00000000000E+00 0. -1.
         23    2    1    2    0    0  0.27121839729E+02  0.10923976246E+03 -0.14542804081E+03  0.20510950969E+03  0.90838736321E+02 0.  0.
        254    2    1    2    0    0 -0.27121839729E+02 -0.10923976246E+03 -0.11888212790E+04  0.14894645073E+04  0.89024691253E+03 0.  0.
         23    2    4    4    0    0 -0.14501889939E+03  0.22174823165E+03 -0.37629388012E+02  0.28240440329E+03  0.90186011882E+02 0.  0.
         23    2    4    4    0    0  0.11789705966E+03 -0.33098799411E+03 -0.11511918910E+04  0.12070601040E+04  0.91096410177E+02 0.  0.
          4    1    3    3  502    0  0.24985923270E+02  0.95174236671E+02 -0.15799227569E+03  0.18612896299E+03  0.00000000000E+00 0. -1.
         -4    1    3    3    0  502  0.21359164589E+01  0.14065525788E+02  0.12564234874E+02  0.18980546694E+02  0.00000000000E+00 0.  1.
         13    1    5    5    0    0 -0.15753288860E+03  0.21130034554E+03 -0.36282983638E+02  0.26604680400E+03  0.00000000000E+00 0.  1.
        -13    1    5    5    0    0  0.12513989209E+02  0.10447886104E+02 -0.13464043740E+01  0.16357599295E+02  0.00000000000E+00 0. -1.
          1    1    6    6  503    0  0.17435746979E+02 -0.14653097176E+01 -0.39195112272E+02  0.42923294740E+02  0.00000000000E+00 0. -1.
         -1    1    6    6    0  503  0.10046131268E+03 -0.32952268439E+03 -0.11119967787E+04  0.11641368093E+04  0.00000000000E+00 0.  1.
<mgrwt>
<rscale>  0 0.10446817E+04</rscale>
<asrwt>0</asrwt>
<pdfrwt beam="1">  1        2 0.23298641E+00 0.10446817E+04</pdfrwt>
<pdfrwt beam="2">  1       -2 0.27717285E-01 0.10446817E+04</pdfrwt>
<totfact> 0.14726320E+02</totfact>
</mgrwt>
</event>
<event>
12    3  0.4769008E-008  0.2006655E+04  0.7818608E-02  0.8603516E-01
          1   -1    0    0  501    0  0.00000000000E+00  0.00000000000E+00  0.17085033239E+04  0.17085033239E+04  0.00000000000E+00 0. -1.
         -1   -1    0    0    0  501 -0.00000000000E+00 -0.00000000000E+00 -0.58920924332E+03  0.58920924332E+03  0.00000000000E+00 0.  1.
         23    2    1    2    0    0  0.44035077374E+03  0.15503333808E+03 -0.29257741968E+03  0.55820087244E+03  0.89680140742E+02 0.  0.
        254    2    1    2    0    0 -0.44035077374E+03 -0.15503333808E+03  0.14118715003E+04  0.17395116948E+04  0.90253845523E+03 0.  0.
         23    2    4    4    0    0 -0.21340210332E+03 -0.51813505503E+03  0.92170455400E+03  0.10825013805E+04  0.90915130598E+02 0.  0.
         23    2    4    4    0    0 -0.22694867042E+03  0.36310171695E+03  0.49016694627E+03  0.65701031428E+03  0.89723809558E+02 0.  0.
          4    1    3    3  502    0  0.28836688880E+03  0.14125268877E+03 -0.17610705252E+03  0.36622599387E+03  0.00000000000E+00 0.  1.
         -4    1    3    3    0  502  0.15198388494E+03  0.13780649307E+02 -0.11647036715E+03  0.19197487857E+03  0.00000000000E+00 0. -1.
         13    1    5    5    0    0 -0.66508639037E+02 -0.27615783044E+03  0.43759343741E+03  0.52170352006E+03  0.00000000000E+00 0. -1.
        -13    1    5    5    0    0 -0.14689346428E+03 -0.24197722459E+03  0.48411111658E+03  0.56079786043E+03  0.00000000000E+00 0.  1.
          4    1    6    6  503    0  0.59764329098E+01  0.32457068068E+02  0.39324250757E+02  0.51337858501E+02  0.00000000000E+00 0.  1.
         -4    1    6    6    0  503 -0.23292510333E+03  0.33064464888E+03  0.45084269551E+03  0.60567245578E+03  0.00000000000E+00 0. -1.
<mgrwt>
<rscale>  0 0.20066549E+04</rscale>
<asrwt>0</asrwt>
<pdfrwt beam="1">  1        1 0.26284666E+00 0.20066549E+04</pdfrwt>
<pdfrwt beam="2">  1       -1 0.90647577E-01 0.20066549E+04</pdfrwt>
<totfact> 0.51831697E+00</totfact>
</mgrwt>
</event>
<event>
12    3  0.4769008E-008  0.1568457E+04  0.7818608E-02  0.8840164E-01
         -2   -1    0    0    0  501 -0.00000000000E+00  0.00000000000E+00  0.22734110649E+03  0.22734110649E+03  0.00000000000E+00 0. -1.
          2   -1    0    0  501    0  0.00000000000E+00 -0.00000000000E+00 -0.27052492921E+04  0.27052492921E+04  0.00000000000E+00 0.  1.
         23    2    1    2    0    0  0.10672232700E+03 -0.13765287015E+03 -0.18091039128E+04  0.18198218788E+04  0.92502623948E+02 0.  0.
        254    2    1    2    0    0 -0.10672232700E+03  0.13765287015E+03 -0.66880427285E+03  0.11127685198E+04  0.87213339325E+03 0.  0.
         23    2    4    4    0    0 -0.19239061673E+03  0.48054751886E+03 -0.39318432284E+03  0.65573132261E+03  0.86310998342E+02 0.  0.
         23    2    4    4    0    0  0.85668289724E+02 -0.34289464871E+03 -0.27561995001E+03  0.45703719723E+03  0.89447452925E+02 0.  0.
          2    1    3    3  502    0 -0.52448402478E+01  0.62036035135E+01 -0.22131913720E+02  0.23575721636E+02  0.00000000000E+00 0. -1.
         -2    1    3    3    0  502  0.11196716725E+03 -0.14385647366E+03 -0.17869719991E+04  0.17962461571E+04  0.00000000000E+00 0.  1.
         13    1    5    5    0    0 -0.47920476645E+02  0.23481116594E+03 -0.17437032870E+03  0.29637420142E+03  0.00000000000E+00 0.  1.
        -13    1    5    5    0    0 -0.14447014008E+03  0.24573635291E+03 -0.21881399414E+03  0.35935712119E+03  0.00000000000E+00 0. -1.
          4    1    6    6  503    0  0.35359357715E+02 -0.27014633458E+03 -0.23460986875E+03  0.35954292759E+03  0.00000000000E+00 0.  1.
         -4    1    6    6    0  503  0.50308932009E+02 -0.72748314129E+02 -0.41010081258E+02  0.97494269644E+02  0.00000000000E+00 0. -1.
<mgrwt>
<rscale>  0 0.15684570E+04</rscale>
<asrwt>0</asrwt>
<pdfrwt beam="1">  1        2 0.41619219E+00 0.15684570E+04</pdfrwt>
<pdfrwt beam="2">  1       -2 0.34975555E-01 0.15684570E+04</pdfrwt>
<totfact> 0.19513210E+01</totfact>
</mgrwt>
</event>
<event>
12    3  0.4769008E-008  0.2356234E+04  0.7818608E-02  0.8456073E-01
         -2   -1    0    0    0  501 -0.00000000000E+00  0.00000000000E+00  0.10868694519E+04  0.10868694519E+04  0.00000000000E+00 0.  1.
          2   -1    0    0  501    0  0.00000000000E+00 -0.00000000000E+00 -0.12770254026E+04  0.12770254026E+04  0.00000000000E+00 0. -1.
         23    2    1    2    0    0  0.43405870486E+03  0.83701872360E+03 -0.42981885417E+03  0.10395257405E+04  0.82838487003E+02 0.  0.
        254    2    1    2    0    0 -0.43405870486E+03 -0.83701872360E+03  0.23966290344E+03  0.13243691139E+04  0.89861445549E+03 0.  0.
         23    2    4    4    0    0  0.19282240066E+03 -0.45913283188E+03 -0.92018929250E+02  0.51485637126E+03  0.92877145614E+02 0.  0.
         23    2    4    4    0    0 -0.62688110552E+03 -0.37788589172E+03  0.33168183269E+03  0.80951274263E+03  0.97572407635E+02 0.  0.
          4    1    3    3  502    0  0.31194402000E+03  0.63437078331E+03 -0.28555527338E+03  0.76241535693E+03  0.00000000000E+00 0.  1.
         -4    1    3    3    0  502  0.12211468486E+03  0.20264794029E+03 -0.14426358079E+03  0.27711038361E+03  0.00000000000E+00 0. -1.
         13    1    5    5    0    0  0.61944993406E+02 -0.87046399132E+02  0.10402424613E+02  0.10734276057E+03  0.00000000000E+00 0. -1.
        -13    1    5    5    0    0  0.13087740725E+03 -0.37208643275E+03 -0.10242135386E+03  0.40751361068E+03  0.00000000000E+00 0.  1.
          4    1    6    6  503    0 -0.37241019185E+02 -0.36277357064E+02  0.50032137224E+02  0.72153689446E+02  0.00000000000E+00 0. -1.
         -4    1    6    6    0  503 -0.58964008633E+03 -0.34160853466E+03  0.28164969547E+03  0.73735905319E+03  0.00000000000E+00 0.  1.
<mgrwt>
<rscale>  0 0.23562342E+04</rscale>
<asrwt>0</asrwt>
<pdfrwt beam="1">  1        2 0.19646545E+00 0.23562342E+04</pdfrwt>
<pdfrwt beam="2">  1       -2 0.16721069E+00 0.23562342E+04</pdfrwt>
<totfact> 0.34342844E+00</totfact>
</mgrwt>
</event>
<event>
12    3  0.4769008E-008  0.1511661E+04  0.7818608E-02  0.8876736E-01
          1   -1    0    0  501    0  0.00000000000E+00  0.00000000000E+00  0.47312373628E+04  0.47312373628E+04  0.00000000000E+00 0.  1.
         -1   -1    0    0    0  501 -0.00000000000E+00 -0.00000000000E+00 -0.12074630477E+03  0.12074630477E+03  0.00000000000E+00 0. -1.
         23    2    1    2    0    0 -0.34849673866E+03  0.77648737318E+02  0.46011652739E+03  0.58960940582E+03  0.91938726316E+02 0.  0.
        254    2    1    2    0    0  0.34849673866E+03 -0.77648737318E+02  0.41503745306E+04  0.42623742617E+04  0.90263298155E+03 0.  0.
         23    2    4    4    0    0  0.41576345602E+03 -0.42620928085E+03  0.24559248586E+04  0.25287044248E+04  0.90915096409E+02 0.  0.
         23    2    4    4    0    0 -0.67266717359E+02  0.34856054354E+03  0.16944496721E+04  0.17336698369E+04  0.91826730867E+02 0.  0.
          3    1    3    3  502    0 -0.24454561229E+03  0.81458105303E+02  0.27254279849E+03  0.37512338826E+03  0.00000000000E+00 0. -1.
         -3    1    3    3    0  502 -0.10395112637E+03 -0.38093679859E+01  0.18757372890E+03  0.21448601756E+03  0.00000000000E+00 0.  1.
         13    1    5    5    0    0  0.22956167309E+03 -0.25994129355E+03  0.12501539167E+04  0.12973638092E+04  0.00000000000E+00 0.  1.
        -13    1    5    5    0    0  0.18620178293E+03 -0.16626798731E+03  0.12057709419E+04  0.12313406157E+04  0.00000000000E+00 0. -1.
          3    1    6    6  503    0 -0.26176520269E+02  0.20524439630E+03  0.77184335639E+03  0.79909488750E+03  0.00000000000E+00 0. -1.
         -3    1    6    6    0  503 -0.41090197090E+02  0.14331614724E+03  0.92260631566E+03  0.93457494940E+03  0.00000000000E+00 0.  1.
<mgrwt>
<rscale>  0 0.15116606E+04</rscale>
<asrwt>0</asrwt>
<pdfrwt beam="1">  1        1 0.72788253E+00 0.15116606E+04</pdfrwt>
<pdfrwt beam="2">  1       -1 0.18576358E-01 0.15116606E+04</pdfrwt>
<totfact> 0.42101804E-01</totfact>
</mgrwt>
</event>
<event>
12    3  0.4769008E-008  0.1534208E+04  0.7818608E-02  0.8862018E-01
         -1   -1    0    0    0  501 -0.00000000000E+00  0.00000000000E+00  0.32574534258E+03  0.32574534258E+03  0.00000000000E+00 0.  1.
          1   -1    0    0  501    0  0.00000000000E+00 -0.00000000000E+00 -0.18064681788E+04  0.18064681788E+04  0.00000000000E+00 0. -1.
         23    2    1    2    0    0 -0.11182767501E+03  0.95559420771E+02 -0.11393805637E+04  0.11522803604E+04  0.89022065796E+02 0.  0.
        254    2    1    2    0    0  0.11182767501E+03 -0.95559420771E+02 -0.34134227255E+03  0.97993316103E+03  0.90670691034E+03 0.  0.
         23    2    4    4    0    0  0.35913917967E+03 -0.37904718227E+03 -0.22516037377E+03  0.57617423286E+03  0.92853841839E+02 0.  0.
         23    2    4    4    0    0 -0.24731150466E+03  0.28348776150E+03 -0.11618189878E+03  0.40375892817E+03  0.89413350331E+02 0.  0.
          1    1    3    3  502    0 -0.12734233483E+03  0.86371525451E+02 -0.10267473672E+04  0.10382130161E+04  0.00000000000E+00 0. -1.
         -1    1    3    3    0  502  0.15514659817E+02  0.91878953199E+01 -0.11263319645E+03  0.11406734428E+03  0.00000000000E+00 0.  1.
         13    1    5    5    0    0  0.22221394921E+03 -0.17033516056E+03 -0.13432936444E+03  0.31054385245E+03  0.00000000000E+00 0. -1.
        -13    1    5    5    0    0  0.13692523046E+03 -0.20871202171E+03 -0.90831009334E+02  0.26563038041E+03  0.00000000000E+00 0.  1.
          4    1    6    6  503    0 -0.11682280228E+03  0.70750231703E+02 -0.30970508097E+02  0.14004404589E+03  0.00000000000E+00 0. -1.
         -4    1    6    6    0  503 -0.13048870238E+03  0.21273752979E+03 -0.85211390681E+02  0.26371488227E+03  0.00000000000E+00 0.  1.
<mgrwt>
<rscale>  0 0.15342081E+04</rscale>
<asrwt>0</asrwt>
<pdfrwt beam="1">  1        1 0.27791819E+00 0.15342081E+04</pdfrwt>
<pdfrwt beam="2">  1       -1 0.50114667E-01 0.15342081E+04</pdfrwt>
<totfact> 0.15550642E+01</totfact>
</mgrwt>
</event>
<event>
12    3  0.4769008E-008  0.1703171E+04  0.7818608E-02  0.8759558E-01
         -2   -1    0    0    0  501 -0.00000000000E+00  0.00000000000E+00  0.20252096679E+03  0.20252096679E+03  0.00000000000E+00 0.  1.
          2   -1    0    0  501    0  0.00000000000E+00 -0.00000000000E+00 -0.35808549629E+04  0.35808549629E+04  0.00000000000E+00 0. -1.
         23    2    1    2    0    0  0.19413370303E+03 -0.27669614939E+03 -0.23331273267E+04  0.23592917799E+04  0.92335940929E+02 0.  0.
        254    2    1    2    0    0 -0.19413370303E+03  0.27669614939E+03 -0.10452066693E+04  0.14240841498E+04  0.90626156838E+03 0.  0.
         23    2    4    4    0    0 -0.31133161296E+03  0.30330171606E+03 -0.85250443412E+02  0.45235180803E+03  0.91843431631E+02 0.  0.
         23    2    4    4    0    0  0.11719790993E+03 -0.26605566670E+02 -0.95995622593E+03  0.97173234177E+03  0.91129479704E+02 0.  0.
          4    1    3    3  502    0  0.13454410906E+03 -0.14149574164E+03 -0.15601539869E+04  0.15723242747E+04  0.00000000000E+00 0. -1.
         -4    1    3    3    0  502  0.59589593972E+02 -0.13520040775E+03 -0.77297333987E+03  0.78696750512E+03  0.00000000000E+00 0.  1.
         13    1    5    5    0    0 -0.66985378388E+02  0.39044257565E+02 -0.46377982431E+02  0.90346069206E+02  0.00000000000E+00 0.  1.
        -13    1    5    5    0    0 -0.24434623457E+03  0.26425745849E+03 -0.38872460981E+02  0.36200573882E+03  0.00000000000E+00 0. -1.
          3    1    6    6  503    0  0.99156331811E+02  0.11604277221E+02 -0.80321132670E+03  0.80939179186E+03  0.00000000000E+00 0. -1.
         -3    1    6    6    0  503  0.18041578119E+02 -0.38209843891E+02 -0.15674489923E+03  0.16234054991E+03  0.00000000000E+00 0.  1.
<mgrwt>
<rscale>  0 0.17031714E+04</rscale>
<asrwt>0</asrwt>
<pdfrwt beam="1">  1        2 0.55090081E+00 0.17031714E+04</pdfrwt>
<pdfrwt beam="2">  1       -2 0.31157069E-01 0.17031714E+04</pdfrwt>
<totfact> 0.65465587E+00</totfact>
</mgrwt>
</event>
<event>
12    3  0.4769008E-008  0.2508587E+04  0.7818608E-02  0.8399933E-01
          2   -1    0    0  501    0  0.00000000000E+00  0.00000000000E+00  0.27882475196E+04  0.27882475196E+04  0.00000000000E+00 0. -1.
         -2   -1    0    0    0  501 -0.00000000000E+00 -0.00000000000E+00 -0.56424390351E+03  0.56424390351E+03  0.00000000000E+00 0.  1.
         23    2    1    2    0    0  0.10539561105E+04 -0.20574158638E+03  0.72807896619E+03  0.13006034779E+04  0.91199465767E+02 0.  0.
        254    2    1    2    0    0 -0.10539561105E+04  0.20574158638E+03  0.14959246499E+04  0.20518879452E+04  0.90515219630E+03 0.  0.
         23    2    4    4    0    0 -0.85990183475E+03  0.27682870897E+02  0.15416547847E+04  0.17681749964E+04  0.97702794395E+02 0.  0.
         23    2    4    4    0    0 -0.19405427570E+03  0.17805871548E+03 -0.45730134841E+02  0.28371294878E+03  0.95077989001E+02 0.  0.
          1    1    3    3  502    0  0.21748005463E+03 -0.55137563915E+02  0.11119561875E+03  0.25040405497E+03  0.00000000000E+00 0. -1.
         -1    1    3    3    0  502  0.83647605582E+03 -0.15060402246E+03  0.61688334744E+03  0.10501994229E+04  0.00000000000E+00 0.  1.
         13    1    5    5    0    0 -0.40505839671E+03  0.10308752467E+02  0.82604723034E+03  0.92007206342E+03  0.00000000000E+00 0. -1.
        -13    1    5    5    0    0 -0.45484343803E+03  0.17374118430E+02  0.71560755437E+03  0.84810293301E+03  0.00000000000E+00 0.  1.
          3    1    6    6  503    0 -0.14698962126E+03  0.11493943953E+03  0.10613679240E+02  0.18689481990E+03  0.00000000000E+00 0. -1.
         -3    1    6    6    0  503 -0.47064654449E+02  0.63119275949E+02 -0.56343814081E+02  0.96818128880E+02  0.00000000000E+00 0.  1.
<mgrwt>
<rscale>  0 0.25085866E+04</rscale>
<asrwt>0</asrwt>
<pdfrwt beam="1">  1        2 0.42896115E+00 0.25085866E+04</pdfrwt>
<pdfrwt beam="2">  1       -2 0.86806756E-01 0.25085866E+04</pdfrwt>
<totfact> 0.24056140E+00</totfact>
</mgrwt>
</event>
<event>
12    3  0.4769008E-008  0.1683617E+04  0.7818608E-02  0.8770764E-01
          1   -1    0    0  501    0  0.00000000000E+00  0.00000000000E+00  0.19005364609E+04  0.19005364609E+04  0.00000000000E+00 0. -1.
         -1   -1    0    0    0  501 -0.00000000000E+00 -0.00000000000E+00 -0.37286394051E+03  0.37286394051E+03  0.00000000000E+00 0.  1.
         23    2    1    2    0    0 -0.21945608425E+03  0.18570913709E+03  0.13749760670E+04  0.14076791404E+04  0.91392128301E+02 0.  0.
        254    2    1    2    0    0  0.21945608425E+03 -0.18570913709E+03  0.15269645338E+03  0.86572126096E+03  0.80218965231E+03 0.  0.
         23    2    4    4    0    0 -0.21361895594E+03 -0.31307820641E+03  0.51217203606E+02  0.39390116732E+03  0.94254474731E+02 0.  0.
         23    2    4    4    0    0  0.43307504019E+03  0.12736906932E+03  0.10147924978E+03  0.47182009363E+03  0.92408291656E+02 0.  0.
          3    1    3    3  502    0 -0.15696675132E+03  0.10167264720E+03  0.10411090529E+04  0.10577731081E+04  0.00000000000E+00 0. -1.
         -3    1    3    3    0  502 -0.62489332934E+02  0.84036489892E+02  0.33386701412E+03  0.34990603236E+03  0.00000000000E+00 0.  1.
         13    1    5    5    0    0 -0.35056009454E+02 -0.46310379876E+02  0.43895841805E+02  0.72803983482E+02  0.00000000000E+00 0.  1.
        -13    1    5    5    0    0 -0.17856294649E+03 -0.26676782654E+03  0.73213618012E+01  0.32109718384E+03  0.00000000000E+00 0. -1.
          1    1    6    6  503    0  0.34697480312E+03  0.65280486637E+02  0.94230463239E+02  0.36542090271E+03  0.00000000000E+00 0. -1.
         -1    1    6    6    0  503  0.86100237073E+02  0.62088582682E+02  0.72487865385E+01  0.10639919093E+03  0.00000000000E+00 0.  1.
<mgrwt>
<rscale>  0 0.16836170E+04</rscale>
<asrwt>0</asrwt>
<pdfrwt beam="1">  1        1 0.29239022E+00 0.16836170E+04</pdfrwt>
<pdfrwt beam="2">  1       -1 0.57363684E-01 0.16836170E+04</pdfrwt>
<totfact> 0.10210737E+01</totfact>
</mgrwt>
</event>
<event>
12    3  0.4769008E-008  0.2787065E+04  0.7818608E-02  0.8307295E-01
         -1   -1    0    0    0  501 -0.00000000000E+00  0.00000000000E+00  0.87959405891E+03  0.87959405891E+03  0.00000000000E+00 0.  1.
          1   -1    0    0  501    0  0.00000000000E+00 -0.00000000000E+00 -0.22077607190E+04  0.22077607190E+04  0.00000000000E+00 0. -1.
         23    2    1    2    0    0  0.36129804759E+03 -0.19086957553E+03 -0.18971515618E+04  0.19428025616E+04  0.91270317503E+02 0.  0.
        254    2    1    2    0    0 -0.36129804759E+03  0.19086957553E+03  0.56898490172E+03  0.11445522163E+04  0.90514555922E+03 0.  0.
         23    2    4    4    0    0  0.75558756660E+01  0.26755738350E+03 -0.15511598523E+03  0.32293594724E+03  0.92642389987E+02 0.  0.
         23    2    4    4    0    0 -0.36885392326E+03 -0.76687807973E+02  0.72410088695E+03  0.82161626905E+03  0.93792123803E+02 0.  0.
          3    1    3    3  502    0  0.13453769764E+03 -0.42013878080E+02 -0.81980320054E+03  0.83183101989E+03  0.00000000000E+00 0. -1.
         -3    1    3    3    0  502  0.22676034995E+03 -0.14885569745E+03 -0.10773483612E+04  0.11109715417E+04  0.00000000000E+00 0.  1.
         13    1    5    5    0    0  0.38062818643E+01  0.16703854179E+03 -0.43438165628E+02  0.17263613891E+03  0.00000000000E+00 0. -1.
        -13    1    5    5    0    0  0.37495938017E+01  0.10051884171E+03 -0.11167781960E+03  0.15029980833E+03  0.00000000000E+00 0.  1.
          4    1    6    6  503    0 -0.16292765456E+02 -0.13474216230E+02  0.11517782662E+02  0.24076295950E+02  0.00000000000E+00 0. -1.
         -4    1    6    6    0  503 -0.35256115780E+03 -0.63213591743E+02  0.71258310429E+03  0.79753997310E+03  0.00000000000E+00 0.  1.
<mgrwt>
<rscale>  0 0.27870653E+04</rscale>
<asrwt>0</asrwt>
<pdfrwt beam="1">  1        1 0.33965550E+00 0.27870653E+04</pdfrwt>
<pdfrwt beam="2">  1       -1 0.13532216E+00 0.27870653E+04</pdfrwt>
<totfact> 0.85374880E-01</totfact>
</mgrwt>
</event>
<event>
12    3  0.4769008E-008  0.2214800E+04  0.7818608E-02  0.8512293E-01
          3   -1    0    0  501    0  0.00000000000E+00  0.00000000000E+00  0.10284046281E+04  0.10284046281E+04  0.00000000000E+00 0. -1.
         -3   -1    0    0    0  501 -0.00000000000E+00 -0.00000000000E+00 -0.11924636389E+04  0.11924636389E+04  0.00000000000E+00 0.  1.
         23    2    1    2    0    0  0.46850221427E+03 -0.73126653459E+03  0.25053664481E+03  0.90837820374E+03  0.90206880327E+02 0.  0.
        254    2    1    2    0    0 -0.46850221427E+03  0.73126653459E+03 -0.41459565563E+03  0.13124900632E+04  0.89246598756E+03 0.  0.
         23    2    4    4    0    0 -0.28693938332E+03  0.73574833412E+03 -0.63198766145E+03  0.10156253874E+04  0.91797071866E+02 0.  0.
         23    2    4    4    0    0 -0.18156283095E+03 -0.44817995328E+01  0.21739200582E+03  0.29686467582E+03  0.88793037162E+02 0.  0.
          1    1    3    3  502    0  0.45902466490E+03 -0.71410190298E+03  0.22900032691E+03  0.87925327440E+03  0.00000000000E+00 0. -1.
         -1    1    3    3    0  502  0.94775493726E+01 -0.17164631609E+02  0.21536317901E+02  0.29124929341E+02  0.00000000000E+00 0.  1.
         13    1    5    5    0    0 -0.43349208992E+02  0.16689538000E+03 -0.18041730101E+03  0.24956687339E+03  0.00000000000E+00 0. -1.
        -13    1    5    5    0    0 -0.24359017433E+03  0.56885295412E+03 -0.45157036044E+03  0.76605851399E+03  0.00000000000E+00 0.  1.
          2    1    6    6  503    0 -0.21047577195E+01  0.18510090489E+02  0.83918652467E+01  0.20432250422E+02  0.00000000000E+00 0. -1.
         -2    1    6    6    0  503 -0.17945807323E+03 -0.22991890022E+02  0.20900014057E+03  0.27643242540E+03  0.00000000000E+00 0.  1.
<mgrwt>
<rscale>  0 0.22148003E+04</rscale>
<asrwt>0</asrwt>
<pdfrwt beam="1">  1        3 0.15821610E+00 0.22148003E+04</pdfrwt>
<pdfrwt beam="2">  1       -3 0.18345594E+00 0.22148003E+04</pdfrwt>
<totfact> 0.12566609E-01</totfact>
</mgrwt>
</event>
<event>
12    3  0.4769008E-008  0.1584024E+04  0.7818608E-02  0.8830423E-01
          1   -1    0    0  501    0  0.00000000000E+00  0.00000000000E+00  0.26714952660E+03  0.26714952660E+03  0.00000000000E+00 0. -1.
         -1   -1    0    0    0  501 -0.00000000000E+00 -0.00000000000E+00 -0.23480605447E+04  0.23480605447E+04  0.00000000000E+00 0.  1.
         23    2    1    2    0    0  0.27609656756E+03  0.12694134542E+03 -0.22360639744E+02  0.31859605036E+03  0.93059256956E+02 0.  0.
        254    2    1    2    0    0 -0.27609656756E+03 -0.12694134542E+03 -0.20585503784E+04  0.22966140209E+04  0.97183480135E+03 0.  0.
         23    2    4    4    0    0 -0.19520844948E+03  0.39730405178E+03 -0.67844510588E+03  0.81520958182E+03  0.91225283231E+02 0.  0.
         23    2    4    4    0    0 -0.80888118076E+02 -0.52424539719E+03 -0.13801052725E+04  0.14814044391E+04  0.92154353985E+02 0.  0.
          4    1    3    3  502    0  0.25429588335E+03  0.99541674861E+02 -0.45188211083E+02  0.27679760791E+03  0.00000000000E+00 0. -1.
         -4    1    3    3    0  502  0.21800684206E+02  0.27399670556E+02  0.22827571340E+02  0.41798442455E+02  0.00000000000E+00 0.  1.
         13    1    5    5    0    0 -0.63840002790E+02  0.92579882052E+02 -0.11195130497E+03  0.15868104865E+03  0.00000000000E+00 0. -1.
        -13    1    5    5    0    0 -0.13136844669E+03  0.30472416973E+03 -0.56649380091E+03  0.65652853317E+03  0.00000000000E+00 0.  1.
          3    1    6    6  503    0  0.13907130337E+02 -0.19030411102E+03 -0.51875473164E+03  0.55273459684E+03  0.00000000000E+00 0. -1.
         -3    1    6    6    0  503 -0.94795248413E+02 -0.33394128618E+03 -0.86135054086E+03  0.92866984229E+03  0.00000000000E+00 0.  1.
<mgrwt>
<rscale>  0 0.15840243E+04</rscale>
<asrwt>0</asrwt>
<pdfrwt beam="1">  1        1 0.41099926E-01 0.15840243E+04</pdfrwt>
<pdfrwt beam="2">  1       -1 0.36124009E+00 0.15840243E+04</pdfrwt>
<totfact> 0.12876104E+00</totfact>
</mgrwt>
</event>
<event>
12    3  0.4769008E-008  0.1118123E+04  0.7818608E-02  0.9187706E-01
          2   -1    0    0  501    0  0.00000000000E+00  0.00000000000E+00  0.19763475135E+03  0.19763475135E+03  0.00000000000E+00 0. -1.
         -2   -1    0    0    0  501 -0.00000000000E+00 -0.00000000000E+00 -0.15814520672E+04  0.15814520672E+04  0.00000000000E+00 0.  1.
         23    2    1    2    0    0  0.76521714073E+01  0.88346111162E+01  0.35515462040E+02  0.97245661134E+02  0.89770621500E+02 0.  0.
        254    2    1    2    0    0 -0.76521714073E+01 -0.88346111162E+01 -0.14193327779E+04  0.16818411574E+04  0.90219041133E+03 0.  0.
         23    2    4    4    0    0 -0.28358033959E+03 -0.10399002382E+03 -0.10501460062E+03  0.33246678433E+03  0.90963521708E+02 0.  0.
         23    2    4    4    0    0  0.27592816818E+03  0.95155412708E+02 -0.13143181773E+04  0.13493743731E+04  0.90487684532E+02 0.  0.
          2    1    3    3  502    0  0.11098143852E+02  0.13507241532E+02 -0.28247182415E+02  0.33219236674E+02  0.00000000000E+00 0.  1.
         -2    1    3    3    0  502 -0.34459724451E+01 -0.46726304161E+01  0.63762644456E+02  0.64026424460E+02  0.00000000000E+00 0. -1.
         13    1    5    5    0    0 -0.60904421812E+02 -0.22695905470E+02 -0.65260340825E+02  0.92105183383E+02  0.00000000000E+00 0.  1.
        -13    1    5    5    0    0 -0.22267591778E+03 -0.81294118355E+02 -0.39754259794E+02  0.24036160095E+03  0.00000000000E+00 0. -1.
          4    1    6    6  503    0  0.15987239240E+03  0.15614172628E+02 -0.58755129197E+03  0.60911370444E+03  0.00000000000E+00 0. -1.
         -4    1    6    6    0  503  0.11605577578E+03  0.79541240080E+02 -0.72676688533E+03  0.74026066867E+03  0.00000000000E+00 0.  1.
<mgrwt>
<rscale>  0 0.11181232E+04</rscale>
<asrwt>0</asrwt>
<pdfrwt beam="1">  1        2 0.30405347E-01 0.11181232E+04</pdfrwt>
<pdfrwt beam="2">  1       -2 0.24330031E+00 0.11181232E+04</pdfrwt>
<totfact> 0.12335177E+01</totfact>
</mgrwt>
</event>
<event>
12    3  0.4769008E-008  0.2856506E+04  0.7818608E-02  0.8285937E-01
         -2   -1    0    0    0  501 -0.00000000000E+00  0.00000000000E+00  0.79340276086E+03  0.79340276086E+03  0.00000000000E+00 0.  1.
          2   -1    0    0  501    0  0.00000000000E+00 -0.00000000000E+00 -0.25710857648E+04  0.25710857648E+04  0.00000000000E+00 0. -1.
         23    2    1    2    0    0 -0.95176855343E+03 -0.83636763041E+03 -0.10547919240E+04  0.16510976722E+04  0.90351136003E+02 0.  0.
        254    2    1    2    0    0  0.95176855343E+03  0.83636763041E+03 -0.72289107994E+03  0.17133908534E+04  0.89875609074E+03 0.  0.
         23    2    4    4    0    0  0.69694663474E+03  0.78034028750E+03 -0.90189782836E+03  0.13845130194E+04  0.93760504205E+02 0.  0.
         23    2    4    4    0    0  0.25482191869E+03  0.56027342909E+02  0.17900674842E+03  0.32887783401E+03  0.89688016628E+02 0.  0.
          3    1    3    3  502    0 -0.56345774809E+03 -0.48750153599E+03 -0.56245745711E+03  0.93354205718E+03  0.00000000000E+00 0. -1.
         -3    1    3    3    0  502 -0.38831080535E+03 -0.34886609443E+03 -0.49233446689E+03  0.71755561504E+03  0.00000000000E+00 0.  1.
         13    1    5    5    0    0  0.12409875363E+03  0.14052952147E+03 -0.21141928163E+03  0.28257239728E+03  0.00000000000E+00 0.  1.
        -13    1    5    5    0    0  0.57284788111E+03  0.63981076603E+03 -0.69047854673E+03  0.11019406221E+04  0.00000000000E+00 0. -1.
          4    1    6    6  503    0  0.19041047951E+03 -0.13022388371E+00  0.12572542588E+03  0.22817329024E+03  0.00000000000E+00 0. -1.
         -4    1    6    6    0  503  0.64411439186E+02  0.56157566793E+02  0.53281322538E+02  0.10070454378E+03  0.00000000000E+00 0.  1.
<mgrwt>
<rscale>  0 0.28565059E+04</rscale>
<asrwt>0</asrwt>
<pdfrwt beam="1">  1        2 0.39555166E+00 0.28565059E+04</pdfrwt>
<pdfrwt beam="2">  1       -2 0.12206196E+00 0.28565059E+04</pdfrwt>
<totfact> 0.13944931E+00</totfact>
</mgrwt>
</event>
<event>
12    3  0.4769008E-008  0.2698953E+04  0.7818608E-02  0.8335345E-01
         -2   -1    0    0    0  501 -0.00000000000E+00  0.00000000000E+00  0.12376967975E+04  0.12376967975E+04  0.00000000000E+00 0.  1.
          2   -1    0    0  501    0  0.00000000000E+00 -0.00000000000E+00 -0.14713513137E+04  0.14713513137E+04  0.00000000000E+00 0. -1.
         23    2    1    2    0    0 -0.10414377882E+03  0.47240004058E+03  0.99604552039E+03  0.11110220053E+04  0.90859740560E+02 0.  0.
        254    2    1    2    0    0  0.10414377882E+03 -0.47240004058E+03 -0.12297000366E+04  0.15980261059E+04  0.89861979183E+03 0.  0.
         23    2    4    4    0    0  0.25779463657E+03 -0.65928814730E+03 -0.10955694993E+04  0.13076723557E+04  0.92819858902E+02 0.  0.
         23    2    4    4    0    0 -0.15365085775E+03  0.18688810672E+03 -0.13413053724E+03  0.29035375022E+03  0.88196081128E+02 0.  0.
          1    1    3    3  502    0  0.13051664169E+02  0.78630995081E+02  0.13041198852E+03  0.15284131011E+03  0.00000000000E+00 0. -1.
         -1    1    3    3    0  502 -0.11719544299E+03  0.39376904550E+03  0.86563353187E+03  0.95818069515E+03  0.00000000000E+00 0.  1.
         13    1    5    5    0    0  0.25619295641E+03 -0.59681160470E+03 -0.10246227119E+04  0.12131243235E+04  0.00000000000E+00 0.  1.
        -13    1    5    5    0    0  0.16016801554E+01 -0.62476542609E+02 -0.70946787365E+02  0.94548032201E+02  0.00000000000E+00 0. -1.
          1    1    6    6  503    0 -0.34991892536E+02  0.70493578480E+02 -0.87573732218E+02  0.11774096876E+03  0.00000000000E+00 0. -1.
         -1    1    6    6    0  503 -0.11865896521E+03  0.11639452824E+03 -0.46556805026E+02  0.17261278146E+03  0.00000000000E+00 0.  1.
<mgrwt>
<rscale>  0 0.26989530E+04</rscale>
<asrwt>0</asrwt>
<pdfrwt beam="1">  1        2 0.22636174E+00 0.26989530E+04</pdfrwt>
<pdfrwt beam="2">  1       -2 0.19041489E+00 0.26989530E+04</pdfrwt>
<totfact> 0.17807348E+00</totfact>
</mgrwt>
</event>
<event>
12    3  0.4769008E-008  0.2229818E+04  0.7818608E-02  0.8506119E-01
         -2   -1    0    0    0  501 -0.00000000000E+00  0.00000000000E+00  0.51235917129E+03  0.51235917129E+03  0.00000000000E+00 0.  1.
          2   -1    0    0  501    0  0.00000000000E+00 -0.00000000000E+00 -0.24260751693E+04  0.24260751693E+04  0.00000000000E+00 0. -1.
         23    2    1    2    0    0  0.42848792354E+03  0.81406066831E+03 -0.10100965250E+04  0.13699665904E+04  0.10107817082E+03 0.  0.
        254    2    1    2    0    0 -0.42848792354E+03 -0.81406066831E+03 -0.90361947301E+03  0.15684677502E+04  0.89289767562E+03 0.  0.
         23    2    4    4    0    0  0.15124527793E+03 -0.63617095515E+03 -0.55664264120E+03  0.86378698964E+03  0.93211132360E+02 0.  0.
         23    2    4    4    0    0 -0.57973320146E+03 -0.17788971315E+03 -0.34697683181E+03  0.70468076056E+03  0.91906025747E+02 0.  0.
          4    1    3    3  502    0  0.29417289478E+03  0.64925266867E+03 -0.77021247116E+03  0.10494255431E+04  0.00000000000E+00 0. -1.
         -4    1    3    3    0  502  0.13431502875E+03  0.16480799964E+03 -0.23988405382E+03  0.32054104724E+03  0.00000000000E+00 0.  1.
         13    1    5    5    0    0  0.12795595409E+03 -0.36234293807E+03 -0.29639255752E+03  0.48529751608E+03  0.00000000000E+00 0. -1.
        -13    1    5    5    0    0  0.23289323840E+02 -0.27382801708E+03 -0.26025008369E+03  0.37848947357E+03  0.00000000000E+00 0.  1.
          4    1    6    6  503    0 -0.23576807474E+03 -0.11003981854E+03 -0.11621294386E+03  0.28495753202E+03  0.00000000000E+00 0. -1.
         -4    1    6    6    0  503 -0.34396512672E+03 -0.67849894613E+02 -0.23076388795E+03  0.41972322855E+03  0.00000000000E+00 0.  1.
<mgrwt>
<rscale>  0 0.22298178E+04</rscale>
<asrwt>0</asrwt>
<pdfrwt beam="1">  1        2 0.37324233E+00 0.22298178E+04</pdfrwt>
<pdfrwt beam="2">  1       -2 0.78824488E-01 0.22298178E+04</pdfrwt>
<totfact> 0.50045038E+00</totfact>
</mgrwt>
</event>
<event>
12    3  0.4769008E-008  0.1928445E+04  0.7818608E-02  0.8640826E-01
         -2   -1    0    0    0  501 -0.00000000000E+00  0.00000000000E+00  0.35245162502E+03  0.35245162502E+03  0.00000000000E+00 0.  1.
          2   -1    0    0  501    0  0.00000000000E+00 -0.00000000000E+00 -0.26378804533E+04  0.26378804533E+04  0.00000000000E+00 0. -1.
         23    2    1    2    0    0  0.44522168799E+03 -0.39462470712E+03 -0.17718133837E+03  0.62742196911E+03  0.91181630413E+02 0.  0.
        254    2    1    2    0    0 -0.44522168799E+03  0.39462470712E+03 -0.21082474899E+04  0.23629101092E+04  0.88582486676E+03 0.  0.
         23    2    4    4    0    0 -0.78314789921E+02  0.33026499164E+03 -0.18882984891E+04  0.19207019009E+04  0.90644565869E+02 0.  0.
         23    2    4    4    0    0 -0.36690689807E+03  0.64359715486E+02 -0.21994900081E+03  0.44220820828E+03  0.91693465844E+02 0.  0.
          2    1    3    3  502    0  0.45003039325E+02 -0.64313770544E+02 -0.50247575906E+02  0.93200608981E+02  0.00000000000E+00 0. -1.
         -2    1    3    3    0  502  0.40021864867E+03 -0.33031093658E+03 -0.12693376247E+03  0.53422136013E+03  0.00000000000E+00 0.  1.
         13    1    5    5    0    0 -0.95093700093E+01  0.16561751036E+03 -0.11014656550E+04  0.11138878656E+04  0.00000000000E+00 0. -1.
        -13    1    5    5    0    0 -0.68805419912E+02  0.16464748127E+03 -0.78683283405E+03  0.80681403535E+03  0.00000000000E+00 0.  1.
          1    1    6    6  503    0 -0.36010999889E+03  0.76945569918E+02 -0.21756132097E+03  0.42770639510E+03  0.00000000000E+00 0. -1.
         -1    1    6    6    0  503 -0.67968991850E+01 -0.12585854432E+02 -0.23876798410E+01  0.14501813174E+02  0.00000000000E+00 0.  1.
<mgrwt>
<rscale>  0 0.19284452E+04</rscale>
<asrwt>0</asrwt>
<pdfrwt beam="1">  1        2 0.40582776E+00 0.19284452E+04</pdfrwt>
<pdfrwt beam="2">  1       -2 0.54223328E-01 0.19284452E+04</pdfrwt>
<totfact> 0.86604165E+00</totfact>
</mgrwt>
</event>
<event>
12    3  0.4769008E-008  0.2658108E+04  0.7818608E-02  0.8348727E-01
          1   -1    0    0  501    0  0.00000000000E+00  0.00000000000E+00  0.85564997545E+03  0.85564997545E+03  0.00000000000E+00 0. -1.
         -1   -1    0    0    0  501 -0.00000000000E+00 -0.00000000000E+00 -0.20643770509E+04  0.20643770509E+04  0.00000000000E+00 0.  1.
         23    2    1    2    0    0 -0.88024012587E+01 -0.79694933446E+03  0.41408467682E+03  0.90265917084E+03  0.90120669995E+02 0.  0.
        254    2    1    2    0    0  0.88024012587E+01  0.79694933446E+03 -0.16228117523E+04  0.20173678555E+04  0.89501360725E+03 0.  0.
         23    2    4    4    0    0 -0.17321524190E+03  0.48626318118E+03 -0.22405676169E+03  0.57015913075E+03  0.91785622636E+02 0.  0.
         23    2    4    4    0    0  0.18201764316E+03  0.31068615328E+03 -0.13987549906E+04  0.14472087247E+04  0.90781391687E+02 0.  0.
          1    1    3    3  502    0 -0.12677665044E+02 -0.27639365924E+02  0.30289850388E+02  0.42920074280E+02  0.00000000000E+00 0.  1.
         -1    1    3    3    0  502  0.38752637853E+01 -0.76930996854E+03  0.38379482644E+03  0.85973909656E+03  0.00000000000E+00 0. -1.
         13    1    5    5    0    0 -0.10907196278E+03  0.23480698087E+03 -0.69331380325E+02  0.26802584134E+03  0.00000000000E+00 0. -1.
        -13    1    5    5    0    0 -0.64143279123E+02  0.25145620031E+03 -0.15472538136E+03  0.30213328941E+03  0.00000000000E+00 0.  1.
          1    1    6    6  503    0  0.13440320235E+03  0.26762570521E+03 -0.12465322185E+04  0.12820024613E+04  0.00000000000E+00 0. -1.
         -1    1    6    6    0  503  0.47614440810E+02  0.43060448078E+02 -0.15222277205E+03  0.16520626348E+03  0.00000000000E+00 0.  1.
<mgrwt>
<rscale>  0 0.26581077E+04</rscale>
<asrwt>0</asrwt>
<pdfrwt beam="1">  1        1 0.13163846E+00 0.26581077E+04</pdfrwt>
<pdfrwt beam="2">  1       -1 0.31759647E+00 0.26581077E+04</pdfrwt>
<totfact> 0.44049622E-01</totfact>
</mgrwt>
</event>
<event>
12    3  0.4769008E-008  0.1358496E+04  0.7818608E-02  0.8984422E-01
          1   -1    0    0  501    0  0.00000000000E+00  0.00000000000E+00  0.34164870149E+03  0.34164870149E+03  0.00000000000E+00 0. -1.
         -1   -1    0    0    0  501 -0.00000000000E+00 -0.00000000000E+00 -0.13504444324E+04  0.13504444324E+04  0.00000000000E+00 0.  1.
         23    2    1    2    0    0  0.10426534295E+01 -0.14466872131E+02 -0.74120398089E+03  0.74700990467E+03  0.91815460968E+02 0.  0.
        254    2    1    2    0    0 -0.10426534295E+01  0.14466872131E+02 -0.26759175001E+03  0.94508322921E+03  0.90629277165E+03 0.  0.
         23    2    4    4    0    0  0.92739125869E+02  0.12238945455E+03  0.30196471416E+03  0.35071785470E+03  0.90777755824E+02 0.  0.
         23    2    4    4    0    0 -0.93781779299E+02 -0.10792258242E+03 -0.56955646418E+03  0.59436537451E+03  0.91833145483E+02 0.  0.
          3    1    3    3  502    0 -0.28628897418E+02 -0.25067800828E+02 -0.63726468079E+03  0.63839978211E+03  0.00000000000E+00 0.  1.
         -3    1    3    3    0  502  0.29671550847E+02  0.10600928696E+02 -0.10393930009E+03  0.10861012256E+03  0.00000000000E+00 0. -1.
         13    1    5    5    0    0 -0.16890211817E+02  0.25793183522E+02  0.71143245879E+02  0.77536630089E+02  0.00000000000E+00 0. -1.
        -13    1    5    5    0    0  0.10962933769E+03  0.96596271028E+02  0.23082146828E+03  0.27318122461E+03  0.00000000000E+00 0.  1.
          1    1    6    6  503    0  0.17283671586E+02 -0.47099147582E+01 -0.48725201207E+02  0.51913907897E+02  0.00000000000E+00 0. -1.
         -1    1    6    6    0  503 -0.11106545088E+03 -0.10321266766E+03 -0.52083126297E+03  0.54245146662E+03  0.00000000000E+00 0.  1.
<mgrwt>
<rscale>  0 0.13584956E+04</rscale>
<asrwt>0</asrwt>
<pdfrwt beam="1">  1        1 0.52561340E-01 0.13584956E+04</pdfrwt>
<pdfrwt beam="2">  1       -1 0.20776068E+00 0.13584956E+04</pdfrwt>
<totfact> 0.96300792E+00</totfact>
</mgrwt>
</event>
<event>
12    3  0.4769008E-008  0.2054023E+04  0.7818608E-02  0.8581771E-01
          2   -1    0    0  501    0  0.00000000000E+00  0.00000000000E+00  0.33727202884E+04  0.33727202884E+04  0.00000000000E+00 0. -1.
         -2   -1    0    0    0  501 -0.00000000000E+00 -0.00000000000E+00 -0.31273060230E+03  0.31273060230E+03  0.00000000000E+00 0.  1.
         23    2    1    2    0    0 -0.22020563870E+03  0.77540617473E+03  0.88667525756E+03  0.12013871437E+04  0.85981379381E+02 0.  0.
        254    2    1    2    0    0  0.22020563870E+03 -0.77540617473E+03  0.21733144285E+04  0.24840637470E+04  0.89304637878E+03 0.  0.
         23    2    4    4    0    0  0.36948556947E+03 -0.39049412622E+03  0.19081013103E+04  0.19849615498E+04  0.10107668052E+03 0.  0.
         23    2    4    4    0    0 -0.14927993078E+03 -0.38491204851E+03  0.26521311827E+03  0.49910219716E+03  0.91231695649E+02 0.  0.
          2    1    3    3  502    0 -0.12319200116E+03  0.52621108316E+03  0.54527082881E+03  0.76772042433E+03  0.00000000000E+00 0. -1.
         -2    1    3    3    0  502 -0.97013637536E+02  0.24919509157E+03  0.34140442875E+03  0.43366671938E+03  0.00000000000E+00 0.  1.
         13    1    5    5    0    0  0.71987664082E+02 -0.65770764891E+02  0.50646803567E+03  0.51576922015E+03  0.00000000000E+00 0.  1.
        -13    1    5    5    0    0  0.29749790539E+03 -0.32472336133E+03  0.14016332746E+04  0.14691923297E+04  0.00000000000E+00 0. -1.
          3    1    6    6  503    0 -0.13008186580E+03 -0.21772990093E+03  0.17522513758E+03  0.30827171523E+03  0.00000000000E+00 0. -1.
         -3    1    6    6    0  503 -0.19198064979E+02 -0.16718214757E+03  0.89987980688E+02  0.19083048193E+03  0.00000000000E+00 0.  1.
<mgrwt>
<rscale>  0 0.20540232E+04</rscale>
<asrwt>0</asrwt>
<pdfrwt beam="1">  1        2 0.51888002E+00 0.20540232E+04</pdfrwt>
<pdfrwt beam="2">  1       -2 0.48112403E-01 0.20540232E+04</pdfrwt>
<totfact> 0.37827259E+00</totfact>
</mgrwt>
</event>
<event>
12    3  0.4769008E-008  0.1451153E+04  0.7818608E-02  0.8917602E-01
          1   -1    0    0  501    0  0.00000000000E+00  0.00000000000E+00  0.12336886999E+04  0.12336886999E+04  0.00000000000E+00 0. -1.
         -1   -1    0    0    0  501 -0.00000000000E+00 -0.00000000000E+00 -0.42673739232E+03  0.42673739232E+03  0.00000000000E+00 0.  1.
         23    2    1    2    0    0 -0.42077229543E+03 -0.70448998007E+02  0.13276087604E+03  0.45590586610E+03  0.90621866123E+02 0.  0.
        254    2    1    2    0    0  0.42077229543E+03  0.70448998007E+02  0.67419043158E+03  0.12045202262E+04  0.90239894241E+03 0.  0.
         23    2    4    4    0    0 -0.98378570124E+02 -0.11952538321E+03 -0.13239042025E+03  0.22203195471E+03  0.88353297894E+02 0.  0.
         23    2    4    4    0    0  0.51915086555E+03  0.18997438121E+03  0.80658085184E+03  0.98248827144E+03  0.95407789239E+02 0.  0.
          1    1    3    3  502    0 -0.17666243033E+03 -0.32730567556E+02  0.96718040563E+01  0.17992900860E+03  0.00000000000E+00 0. -1.
         -1    1    3    3    0  502 -0.24410986510E+03 -0.37718430451E+02  0.12308907199E+03  0.27597685750E+03  0.00000000000E+00 0.  1.
         13    1    5    5    0    0 -0.59664643419E+02 -0.55291028301E+02 -0.12154399508E+03  0.14625289817E+03  0.00000000000E+00 0.  1.
        -13    1    5    5    0    0 -0.38713926706E+02 -0.64234354906E+02 -0.10846425177E+02  0.75779056541E+02  0.00000000000E+00 0. -1.
          1    1    6    6  503    0  0.21734609856E+03  0.13002604027E+03  0.36817009204E+03  0.44687281678E+03  0.00000000000E+00 0. -1.
         -1    1    6    6    0  503  0.30180476699E+03  0.59948340942E+02  0.43841075980E+03  0.53561545466E+03  0.00000000000E+00 0.  1.
<mgrwt>
<rscale>  0 0.14511528E+04</rscale>
<asrwt>0</asrwt>
<pdfrwt beam="1">  1        1 0.18979826E+00 0.14511528E+04</pdfrwt>
<pdfrwt beam="2">  1       -1 0.65651907E-01 0.14511528E+04</pdfrwt>
<totfact> 0.23062771E+01</totfact>
</mgrwt>
</event>
<event>
12    3  0.4769008E-008  0.3235442E+04  0.7818608E-02  0.8179519E-01
          2   -1    0    0  501    0  0.00000000000E+00  0.00000000000E+00  0.18125776324E+04  0.18125776324E+04  0.00000000000E+00 0. -1.
         -2   -1    0    0    0  501 -0.00000000000E+00 -0.00000000000E+00 -0.14438118721E+04  0.14438118721E+04  0.00000000000E+00 0.  1.
         23    2    1    2    0    0 -0.71816921273E+03 -0.13029003170E+04  0.31248600357E+03  0.15228473696E+04  0.90001969335E+02 0.  0.
        254    2    1    2    0    0  0.71816921273E+03  0.13029003170E+04  0.56279756686E+02  0.17335421348E+04  0.88807920145E+03 0.  0.
         23    2    4    4    0    0  0.69989533134E+03  0.85361508406E+03 -0.30593024467E+03  0.11489996953E+04  0.89971098894E+02 0.  0.
         23    2    4    4    0    0  0.18273881389E+02  0.44928523296E+03  0.36221000135E+03  0.58454243954E+03  0.91118731573E+02 0.  0.
          3    1    3    3  502    0 -0.49845741342E+03 -0.96952559160E+03  0.25359587485E+03  0.11192633888E+04  0.00000000000E+00 0. -1.
         -3    1    3    3    0  502 -0.21971179931E+03 -0.33337472543E+03  0.58890128712E+02  0.40358398081E+03  0.00000000000E+00 0.  1.
         13    1    5    5    0    0  0.58639010524E+03  0.73855628826E+03 -0.23135603895E+03  0.97100173182E+03  0.00000000000E+00 0. -1.
        -13    1    5    5    0    0  0.11350522610E+03  0.11505879580E+03 -0.74574205722E+02  0.17799796348E+03  0.00000000000E+00 0.  1.
          1    1    6    6  503    0  0.21560642459E+01  0.41392698613E+03  0.30008036393E+03  0.51126159965E+03  0.00000000000E+00 0. -1.
         -1    1    6    6    0  503  0.16117817143E+02  0.35358246831E+02  0.62129637425E+02  0.73280839890E+02  0.00000000000E+00 0.  1.
<mgrwt>
<rscale>  0 0.32354419E+04</rscale>
<asrwt>0</asrwt>
<pdfrwt beam="1">  1        2 0.27885810E+00 0.32354419E+04</pdfrwt>
<pdfrwt beam="2">  1       -2 0.22212490E+00 0.32354419E+04</pdfrwt>
<totfact> 0.68319021E-01</totfact>
</mgrwt>
</event>
<event>
12    3  0.4769008E-008  0.1206615E+04  0.7818608E-02  0.9107086E-01
         -1   -1    0    0    0  501 -0.00000000000E+00  0.00000000000E+00  0.10835586325E+04  0.10835586325E+04  0.00000000000E+00 0.  1.
          1   -1    0    0  501    0  0.00000000000E+00 -0.00000000000E+00 -0.33591150908E+03  0.33591150908E+03  0.00000000000E+00 0. -1.
         23    2    1    2    0    0  0.26954380029E+02 -0.32379476637E+03  0.88576939609E+02  0.34740178748E+03  0.85279179087E+02 0.  0.
        254    2    1    2    0    0 -0.26954380029E+02  0.32379476637E+03  0.65907018385E+03  0.10720683541E+04  0.78063273014E+03 0.  0.
         23    2    4    4    0    0 -0.21803399556E+03  0.43355670842E+03  0.67022878052E+03  0.83227924514E+03  0.89285390810E+02 0.  0.
         23    2    4    4    0    0  0.19107961553E+03 -0.10976194205E+03 -0.11158596676E+02  0.23978910899E+03  0.93889291809E+02 0.  0.
          3    1    3    3  502    0 -0.44575692496E+01 -0.15157101747E+03  0.96937787487E+00  0.15163964836E+03  0.00000000000E+00 0. -1.
         -3    1    3    3    0  502  0.31411949278E+02 -0.17222374890E+03  0.87607561735E+02  0.19576213913E+03  0.00000000000E+00 0.  1.
         13    1    5    5    0    0 -0.11819029010E+03  0.24879004287E+03  0.45272428362E+03  0.52992896419E+03  0.00000000000E+00 0. -1.
        -13    1    5    5    0    0 -0.99843705461E+02  0.18476666555E+03  0.21750449690E+03  0.30235028095E+03  0.00000000000E+00 0.  1.
          4    1    6    6  503    0  0.15633644511E+03 -0.75972468436E+02 -0.46353773965E+02  0.17989322497E+03  0.00000000000E+00 0. -1.
         -4    1    6    6    0  503  0.34743170424E+02 -0.33789473618E+02  0.35195177289E+02  0.59895884022E+02  0.00000000000E+00 0.  1.
<mgrwt>
<rscale>  0 0.12066148E+04</rscale>
<asrwt>0</asrwt>
<pdfrwt beam="1">  1        1 0.51678694E-01 0.12066148E+04</pdfrwt>
<pdfrwt beam="2">  1       -1 0.16670133E+00 0.12066148E+04</pdfrwt>
<totfact> 0.19465536E+01</totfact>
</mgrwt>
</event>
<event>
12    3  0.4769008E-008  0.1693751E+04  0.7818608E-02  0.8764937E-01
         -2   -1    0    0    0  501 -0.00000000000E+00  0.00000000000E+00  0.12370746232E+04  0.12370746232E+04  0.00000000000E+00 0.  1.
          2   -1    0    0  501    0  0.00000000000E+00 -0.00000000000E+00 -0.57975307775E+03  0.57975307775E+03  0.00000000000E+00 0. -1.
         23    2    1    2    0    0  0.29250074914E+03 -0.36055144815E+03  0.65759224918E+03  0.81030422556E+03  0.92797288567E+02 0.  0.
        254    2    1    2    0    0 -0.29250074914E+03  0.36055144815E+03 -0.27070371394E+00  0.10065234754E+04  0.89304837398E+03 0.  0.
         23    2    4    4    0    0 -0.32447687082E+03  0.61885852956E+03  0.10200386674E+03  0.71268168451E+03  0.96121149048E+02 0.  0.
         23    2    4    4    0    0  0.31976121681E+02 -0.25830708141E+03 -0.10227457045E+03  0.29384179091E+03  0.90210252501E+02 0.  0.
          1    1    3    3  502    0 -0.29153657824E+01 -0.20493612487E+02  0.48564035086E+02  0.52791599845E+02  0.00000000000E+00 0. -1.
         -1    1    3    3    0  502  0.29541611492E+03 -0.34005783566E+03  0.60902821410E+03  0.75751262572E+03  0.00000000000E+00 0.  1.
         13    1    5    5    0    0 -0.28919251149E+02  0.10700256820E+03  0.42206410064E+02  0.11860545408E+03  0.00000000000E+00 0. -1.
        -13    1    5    5    0    0 -0.29555761967E+03  0.51185596136E+03  0.59797456672E+02  0.59407623042E+03  0.00000000000E+00 0.  1.
          1    1    6    6  503    0 -0.29997813642E+01 -0.17649127674E+03 -0.10394448786E+03  0.20484781183E+03  0.00000000000E+00 0.  1.
         -1    1    6    6    0  503  0.34975903045E+02 -0.81815804669E+02  0.16699174129E+01  0.88993979075E+02  0.00000000000E+00 0. -1.
<mgrwt>
<rscale>  0 0.16937507E+04</rscale>
<asrwt>0</asrwt>
<pdfrwt beam="1">  1        2 0.89192781E-01 0.16937507E+04</pdfrwt>
<pdfrwt beam="2">  1       -2 0.19031917E+00 0.16937507E+04</pdfrwt>
<totfact> 0.75835068E+00</totfact>
</mgrwt>
</event>
<event>
12    3  0.4769008E-008  0.1408215E+04  0.7818608E-02  0.8947894E-01
         -2   -1    0    0    0  501 -0.00000000000E+00  0.00000000000E+00  0.63189384393E+03  0.63189384393E+03  0.00000000000E+00 0.  1.
          2   -1    0    0  501    0  0.00000000000E+00 -0.00000000000E+00 -0.78457356683E+03  0.78457356683E+03  0.00000000000E+00 0. -1.
         23    2    1    2    0    0 -0.21545736927E+03 -0.32622746743E+03 -0.25934066490E+02  0.40336561016E+03  0.95838411773E+02 0.  0.
        254    2    1    2    0    0  0.21545736927E+03  0.32622746743E+03 -0.12674565641E+03  0.10131018006E+04  0.92599382205E+03 0.  0.
         23    2    4    4    0    0  0.36487733255E+02 -0.14773768215E+02  0.36714419269E+03  0.38029255987E+03  0.90983261977E+02 0.  0.
         23    2    4    4    0    0  0.17896963601E+03  0.34100123565E+03 -0.49388984910E+03  0.63280924073E+03  0.90600103635E+02 0.  0.
          4    1    3    3  502    0 -0.10854160981E+02 -0.24275914497E+02 -0.28002604273E+02  0.38617077587E+02  0.00000000000E+00 0. -1.
         -4    1    3    3    0  502 -0.20460320829E+03 -0.30195155294E+03  0.20685377834E+01  0.36474853257E+03  0.00000000000E+00 0.  1.
         13    1    5    5    0    0  0.36741530842E+02  0.26855039826E+02  0.28048277447E+03  0.28415087547E+03  0.00000000000E+00 0. -1.
        -13    1    5    5    0    0 -0.25379758682E+00 -0.41628808041E+02  0.86661418217E+02  0.96141684402E+02  0.00000000000E+00 0.  1.
          3    1    6    6  503    0  0.10816469240E+03  0.26508960882E+03 -0.31257580482E+03  0.42388174666E+03  0.00000000000E+00 0. -1.
         -3    1    6    6    0  503  0.70804943611E+02  0.75911626829E+02 -0.18131404428E+03  0.20892749407E+03  0.00000000000E+00 0.  1.
<mgrwt>
<rscale>  0 0.14082148E+04</rscale>
<asrwt>0</asrwt>
<pdfrwt beam="1">  1        2 0.12070363E+00 0.14082148E+04</pdfrwt>
<pdfrwt beam="2">  1       -2 0.97214438E-01 0.14082148E+04</pdfrwt>
<totfact> 0.30368482E+01</totfact>
</mgrwt>
</event>
<event>
12    3  0.4769008E-008  0.1715997E+04  0.7818608E-02  0.8752293E-01
          1   -1    0    0  501    0  0.00000000000E+00  0.00000000000E+00  0.94161182475E+03  0.94161182475E+03  0.00000000000E+00 0. -1.
         -1   -1    0    0    0  501 -0.00000000000E+00 -0.00000000000E+00 -0.78180968211E+03  0.78180968211E+03  0.00000000000E+00 0.  1.
         23    2    1    2    0    0 -0.41927245605E+02 -0.41918229514E+03 -0.39794592583E+03  0.58712451072E+03  0.94247231852E+02 0.  0.
        254    2    1    2    0    0  0.41927245605E+02  0.41918229514E+03  0.55774806847E+03  0.11362969961E+04  0.89588853384E+03 0.  0.
         23    2    4    4    0    0  0.10849680759E+03  0.12008501281E+03  0.74373549855E+03  0.76652147109E+03  0.90668110579E+02 0.  0.
         23    2    4    4    0    0 -0.66569561987E+02  0.29909728233E+03 -0.18598743008E+03  0.36977552505E+03  0.90840100722E+02 0.  0.
          2    1    3    3  502    0  0.56011506623E+01 -0.43825204541E+02 -0.10148295214E+02  0.45332210817E+02  0.00000000000E+00 0. -1.
         -2    1    3    3    0  502 -0.47528396267E+02 -0.37535709060E+03 -0.38779763062E+03  0.54179229990E+03  0.00000000000E+00 0.  1.
         13    1    5    5    0    0  0.39892610201E+02 -0.74974194147E+01  0.17081717555E+03  0.17557374265E+03  0.00000000000E+00 0.  1.
        -13    1    5    5    0    0  0.68604197391E+02  0.12758243223E+03  0.57291832300E+03  0.59094772844E+03  0.00000000000E+00 0. -1.
          2    1    6    6  503    0 -0.15893341375E+02  0.17244764034E+03 -0.14895601918E+03  0.22842653657E+03  0.00000000000E+00 0. -1.
         -2    1    6    6    0  503 -0.50676220611E+02  0.12664964199E+03 -0.37031410898E+02  0.14134898848E+03  0.00000000000E+00 0.  1.
<mgrwt>
<rscale>  0 0.17159968E+04</rscale>
<asrwt>0</asrwt>
<pdfrwt beam="1">  1        1 0.14486336E+00 0.17159968E+04</pdfrwt>
<pdfrwt beam="2">  1       -1 0.12027841E+00 0.17159968E+04</pdfrwt>
<totfact> 0.98496441E+00</totfact>
</mgrwt>
</event>
<event>
12    3  0.4769008E-008  0.2951899E+04  0.7818608E-02  0.8257601E-01
          2   -1    0    0  501    0  0.00000000000E+00  0.00000000000E+00  0.19430333160E+04  0.19430333160E+04  0.00000000000E+00 0. -1.
         -2   -1    0    0    0  501 -0.00000000000E+00 -0.00000000000E+00 -0.11211478598E+04  0.11211478598E+04  0.00000000000E+00 0.  1.
         23    2    1    2    0    0  0.80675647781E+02  0.66205021919E+03  0.15717133022E+04  0.17097005603E+04  0.89298647843E+02 0.  0.
        254    2    1    2    0    0 -0.80675647781E+02 -0.66205021919E+03 -0.74982784608E+03  0.13544806155E+04  0.90970153686E+03 0.  0.
         23    2    4    4    0    0 -0.13717940091E+03 -0.17760832626E+03  0.17908209956E+03  0.30137390621E+03  0.91612921402E+02 0.  0.
         23    2    4    4    0    0  0.56503753130E+02 -0.48444189293E+03 -0.92890994564E+03  0.10531067093E+04  0.91013363475E+02 0.  0.
          3    1    3    3  502    0  0.30689230000E+02  0.29722139994E+03  0.59349718347E+03  0.66447068875E+03  0.00000000000E+00 0. -1.
         -3    1    3    3    0  502  0.49986417781E+02  0.36482881925E+03  0.97821611874E+03  0.10452298715E+04  0.00000000000E+00 0.  1.
         13    1    5    5    0    0 -0.56681027875E+02 -0.58441990209E+02  0.14292213939E+02  0.82658771585E+02  0.00000000000E+00 0. -1.
        -13    1    5    5    0    0 -0.80498373036E+02 -0.11916633605E+03  0.16478988562E+03  0.21871513462E+03  0.00000000000E+00 0.  1.
          4    1    6    6  503    0  0.53085436848E+02 -0.11503266898E+03 -0.24222723722E+03  0.27335803077E+03  0.00000000000E+00 0. -1.
         -4    1    6    6    0  503  0.34183162811E+01 -0.36940922396E+03 -0.68668270843E+03  0.77974867854E+03  0.00000000000E+00 0.  1.
<mgrwt>
<rscale>  0 0.29518995E+04</rscale>
<asrwt>0</asrwt>
<pdfrwt beam="1">  1        2 0.29892820E+00 0.29518995E+04</pdfrwt>
<pdfrwt beam="2">  1       -2 0.17248429E+00 0.29518995E+04</pdfrwt>
<totfact> 0.12641985E+00</totfact>
</mgrwt>
</event>
<event>
12    3  0.4769008E-008  0.2871740E+04  0.7818608E-02  0.8281336E-01
         -2   -1    0    0    0  501 -0.00000000000E+00  0.00000000000E+00  0.68197610650E+03  0.68197610650E+03  0.00000000000E+00 0.  1.
          2   -1    0    0  501    0  0.00000000000E+00 -0.00000000000E+00 -0.30231597354E+04  0.30231597354E+04  0.00000000000E+00 0. -1.
         23    2    1    2    0    0 -0.58804163832E+03 -0.40442705858E+02 -0.25373117752E+04  0.26064749970E+04  0.91281349699E+02 0.  0.
        254    2    1    2    0    0  0.58804163832E+03  0.40442705858E+02  0.19612814624E+03  0.10986608449E+04  0.90617924362E+03 0.  0.
         23    2    4    4    0    0 -0.40042193481E+02 -0.21522692654E+03  0.32323892987E+03  0.40267270260E+03  0.98670626185E+02 0.  0.
         23    2    4    4    0    0  0.62808383180E+03  0.25566963240E+03 -0.12711078362E+03  0.69598814232E+03  0.91575554781E+02 0.  0.
          2    1    3    3  502    0 -0.49969617790E+03 -0.20917615748E+02 -0.19991567991E+04  0.20607672659E+04  0.00000000000E+00 0. -1.
         -2    1    3    3    0  502 -0.88345460413E+02 -0.19525090110E+02 -0.53815497609E+03  0.54570773112E+03  0.00000000000E+00 0.  1.
         13    1    5    5    0    0  0.19415696983E+02 -0.15116970126E+03  0.19533794697E+03  0.24776230826E+03  0.00000000000E+00 0. -1.
        -13    1    5    5    0    0 -0.59457890464E+02 -0.64057225289E+02  0.12790098290E+03  0.15491039435E+03  0.00000000000E+00 0.  1.
          3    1    6    6  503    0  0.18952998201E+03  0.12010029830E+03 -0.58304811700E+02  0.23182999547E+03  0.00000000000E+00 0. -1.
         -3    1    6    6    0  503  0.43855384979E+03  0.13556933411E+03 -0.68805971924E+02  0.46415814685E+03  0.00000000000E+00 0.  1.
<mgrwt>
<rscale>  0 0.28717400E+04</rscale>
<asrwt>0</asrwt>
<pdfrwt beam="1">  1        2 0.46510150E+00 0.28717400E+04</pdfrwt>
<pdfrwt beam="2">  1       -2 0.10491940E+00 0.28717400E+04</pdfrwt>
<totfact> 0.10721215E+00</totfact>
</mgrwt>
</event>
<event>
12    3  0.4769008E-008  0.1633266E+04  0.7818608E-02  0.8800368E-01
          1   -1    0    0  501    0  0.00000000000E+00  0.00000000000E+00  0.18695904345E+04  0.18695904345E+04  0.00000000000E+00 0. -1.
         -1   -1    0    0    0  501 -0.00000000000E+00 -0.00000000000E+00 -0.35670330873E+03  0.35670330873E+03  0.00000000000E+00 0.  1.
         23    2    1    2    0    0  0.48174749840E+03 -0.36063083753E+02  0.13140050344E+03  0.50905925386E+03  0.92163080546E+02 0.  0.
        254    2    1    2    0    0 -0.48174749840E+03  0.36063083753E+02  0.13814866223E+04  0.17172344894E+04  0.89833613174E+03 0.  0.
         23    2    4    4    0    0  0.45108912782E+02 -0.12948167450E+03 -0.56435451600E+02  0.17407800442E+03  0.91202375976E+02 0.  0.
         23    2    4    4    0    0 -0.52685641118E+03  0.16554475825E+03  0.14379220739E+04  0.15431564850E+04  0.93430730240E+02 0.  0.
          2    1    3    3  502    0  0.54131107990E+02 -0.33937945975E+02  0.11193788344E+02  0.64863409768E+02  0.00000000000E+00 0. -1.
         -2    1    3    3    0  502  0.42761639041E+03 -0.21251377772E+01  0.12020671509E+03  0.44419584409E+03  0.00000000000E+00 0.  1.
         13    1    5    5    0    0  0.27321863716E+02 -0.21170287351E+02  0.20363006552E+02  0.40116297677E+02  0.00000000000E+00 0. -1.
        -13    1    5    5    0    0  0.17787049066E+02 -0.10831138715E+03 -0.76798458152E+02  0.13396170675E+03  0.00000000000E+00 0.  1.
          1    1    6    6  503    0 -0.13132983962E+03  0.36303551430E+01  0.29470023852E+03  0.32265916512E+03  0.00000000000E+00 0. -1.
         -1    1    6    6    0  503 -0.39552657156E+03  0.16191440311E+03  0.11432218354E+04  0.12204973198E+04  0.00000000000E+00 0.  1.
<mgrwt>
<rscale>  0 0.16332656E+04</rscale>
<asrwt>0</asrwt>
<pdfrwt beam="1">  1        1 0.28762929E+00 0.16332656E+04</pdfrwt>
<pdfrwt beam="2">  1       -1 0.54877433E-01 0.16332656E+04</pdfrwt>
<totfact> 0.11734114E+01</totfact>
</mgrwt>
</event>
<event>
12    3  0.4769008E-008  0.2491831E+04  0.7818608E-02  0.8405902E-01
          1   -1    0    0  501    0  0.00000000000E+00  0.00000000000E+00  0.87905949161E+03  0.87905949161E+03  0.00000000000E+00 0. -1.
         -1   -1    0    0    0  501 -0.00000000000E+00 -0.00000000000E+00 -0.17658704559E+04  0.17658704559E+04  0.00000000000E+00 0.  1.
         23    2    1    2    0    0  0.89632608514E+02 -0.11840353553E+03  0.74672376818E+03  0.76640840488E+03  0.87932106591E+02 0.  0.
        254    2    1    2    0    0 -0.89632608514E+02  0.11840353553E+03 -0.16335347325E+04  0.18785215427E+04  0.91561676604E+03 0.  0.
         23    2    4    4    0    0  0.72802504785E+02 -0.70441049540E+02  0.71308638304E+02  0.15320783878E+03  0.90141964726E+02 0.  0.
         23    2    4    4    0    0 -0.16243511330E+03  0.18884458507E+03 -0.17048433708E+04  0.17253137039E+04  0.90382600707E+02 0.  0.
          3    1    3    3  502    0  0.17543091630E+02 -0.86698501089E+02  0.48844342515E+03  0.49638832553E+03  0.00000000000E+00 0. -1.
         -3    1    3    3    0  502  0.72089516884E+02 -0.31705034439E+02  0.25828034303E+03  0.27002007935E+03  0.00000000000E+00 0.  1.
         13    1    5    5    0    0  0.77821260634E+02 -0.46541707616E+02  0.15102674803E+02  0.91925893744E+02  0.00000000000E+00 0.  1.
        -13    1    5    5    0    0 -0.50187558490E+01 -0.23899341924E+02  0.56205963501E+02  0.61281945039E+02  0.00000000000E+00 0. -1.
          1    1    6    6  503    0 -0.17271879960E+03  0.18253254962E+03 -0.15763163123E+04  0.15962214859E+04  0.00000000000E+00 0. -1.
         -1    1    6    6    0  503  0.10283686301E+02  0.63120354433E+01 -0.12852705844E+03  0.12909221799E+03  0.00000000000E+00 0.  1.
<mgrwt>
<rscale>  0 0.24918308E+04</rscale>
<asrwt>0</asrwt>
<pdfrwt beam="1">  1        1 0.13523992E+00 0.24918308E+04</pdfrwt>
<pdfrwt beam="2">  1       -1 0.27167237E+00 0.24918308E+04</pdfrwt>
<totfact> 0.84836452E-01</totfact>
</mgrwt>
</event>
<event>
12    3  0.4769008E-008  0.1514894E+04  0.7818608E-02  0.8874608E-01
          1   -1    0    0  501    0  0.00000000000E+00  0.00000000000E+00  0.81819704928E+03  0.81819704928E+03  0.00000000000E+00 0. -1.
         -1   -1    0    0    0  501 -0.00000000000E+00 -0.00000000000E+00 -0.70120792390E+03  0.70120792390E+03  0.00000000000E+00 0.  1.
         23    2    1    2    0    0  0.25387246739E+03  0.33249937723E+03  0.29323691258E+03  0.52231659959E+03  0.10871834138E+03 0.  0.
        254    2    1    2    0    0 -0.25387246739E+03 -0.33249937723E+03 -0.17624778721E+03  0.99708837358E+03  0.88775834362E+03 0.  0.
         23    2    4    4    0    0  0.40079232817E+02  0.27643193723E+03 -0.72531351578E+01  0.29423173722E+03  0.92188645707E+02 0.  0.
         23    2    4    4    0    0 -0.29395170021E+03 -0.60893131445E+03 -0.16899465205E+03  0.70285663636E+03  0.90792681824E+02 0.  0.
          2    1    3    3  502    0  0.12771609640E+02  0.34380620318E+02  0.69013816473E+02  0.78154001371E+02  0.00000000000E+00 0.  1.
         -2    1    3    3    0  502  0.24110085775E+03  0.29811875691E+03  0.22422309611E+03  0.44416259822E+03  0.00000000000E+00 0. -1.
         13    1    5    5    0    0  0.43776522467E+02  0.46039553142E+02 -0.59302037172E+01  0.63805890707E+02  0.00000000000E+00 0. -1.
        -13    1    5    5    0    0 -0.36972896494E+01  0.23039238408E+03 -0.13229314406E+01  0.23042584651E+03  0.00000000000E+00 0.  1.
          1    1    6    6  503    0 -0.16176901321E+03 -0.27445641765E+03 -0.11740676696E+03  0.33952892035E+03  0.00000000000E+00 0. -1.
         -1    1    6    6    0  503 -0.13218268700E+03 -0.33447489680E+03 -0.51587885092E+02  0.36332771601E+03  0.00000000000E+00 0.  1.
<mgrwt>
<rscale>  0 0.15148944E+04</rscale>
<asrwt>0</asrwt>
<pdfrwt beam="1">  1        1 0.12587647E+00 0.15148944E+04</pdfrwt>
<pdfrwt beam="2">  1       -1 0.10787814E+00 0.15148944E+04</pdfrwt>
<totfact> 0.16466067E+01</totfact>
</mgrwt>
</event>
<event>
12    3  0.1048380E-007  0.1528987E+04  0.7818608E-02  0.8865402E-01
          1   -1    0    0  501    0  0.00000000000E+00  0.00000000000E+00  0.16915336732E+04  0.16915336732E+04  0.00000000000E+00 0. -1.
         -1   -1    0    0    0  501 -0.00000000000E+00 -0.00000000000E+00 -0.34551503736E+03  0.34551503736E+03  0.00000000000E+00 0.  1.
         23    2    1    2    0    0  0.13287092217E+03  0.36914535703E+03  0.36890250950E+02  0.40476780888E+03  0.92483035816E+02 0.  0.
        254    2    1    2    0    0 -0.13287092217E+03 -0.36914535703E+03  0.13091283849E+04  0.16322809017E+04  0.89252497852E+03 0.  0.
         23    2    4    4    0    0 -0.30734992217E+03 -0.33816950084E+03  0.20302923107E+03  0.50831211899E+03  0.91311311952E+02 0.  0.
         23    2    4    4    0    0  0.17447900000E+03 -0.30975856197E+02  0.11060991539E+04  0.11239687827E+04  0.91913335505E+02 0.  0.
          1    1    3    3  502    0  0.42284723944E+02  0.39326926746E+02 -0.12792422205E+02  0.59146015184E+02  0.00000000000E+00 0. -1.
         -1    1    3    3    0  502  0.90586198225E+02  0.32981843029E+03  0.49682673155E+02  0.34562179370E+03  0.00000000000E+00 0.  1.
         13    1    5    5    0    0 -0.13765386424E+03 -0.15290894246E+03  0.14134805837E+03  0.24961771698E+03  0.00000000000E+00 0. -1.
        -13    1    5    5    0    0 -0.16969605793E+03 -0.18526055838E+03  0.61681172700E+02  0.25869440201E+03  0.00000000000E+00 0.  1.
          4    1    6    6  503    0  0.12041411711E+02  0.71111602163E+01  0.16320328448E+02  0.21492261776E+02  0.00000000000E+00 0. -1.
         -4    1    6    6    0  503  0.16243758829E+03 -0.38087016414E+02  0.10897788254E+04  0.11024765209E+04  0.00000000000E+00 0.  1.
<mgrwt>
<rscale>  0 0.15289870E+04</rscale>
<asrwt>0</asrwt>
<pdfrwt beam="1">  1        1 0.26023595E+00 0.15289870E+04</pdfrwt>
<pdfrwt beam="2">  1       -1 0.53156161E-01 0.15289870E+04</pdfrwt>
<totfact> 0.16637354E+01</totfact>
</mgrwt>
</event>
<event>
12    3  0.4769008E-008  0.1793951E+04  0.7818608E-02  0.8709523E-01
         -2   -1    0    0    0  501 -0.00000000000E+00  0.00000000000E+00  0.46041915714E+03  0.46041915714E+03  0.00000000000E+00 0.  1.
          2   -1    0    0  501    0  0.00000000000E+00 -0.00000000000E+00 -0.17474628849E+04  0.17474628849E+04  0.00000000000E+00 0. -1.
         23    2    1    2    0    0 -0.28561897032E+03 -0.58971701143E+03 -0.63143931918E+03  0.91441334520E+03  0.89954445629E+02 0.  0.
        254    2    1    2    0    0  0.28561897032E+03  0.58971701143E+03 -0.65560440861E+03  0.12934686969E+04  0.90216394266E+03 0.  0.
         23    2    4    4    0    0  0.60767434472E+02  0.78507852052E+03 -0.55062602404E+03  0.96518350199E+03  0.91374009912E+02 0.  0.
         23    2    4    4    0    0  0.22485153585E+03 -0.19536150909E+03 -0.10497838457E+03  0.32828519489E+03  0.89590041569E+02 0.  0.
          1    1    3    3  502    0 -0.24938582921E+03 -0.56240563315E+03 -0.57601474798E+03  0.84278489420E+03  0.00000000000E+00 0. -1.
         -1    1    3    3    0  502 -0.36233141118E+02 -0.27311378278E+02 -0.55424571201E+02  0.71628450992E+02  0.00000000000E+00 0.  1.
         13    1    5    5    0    0  0.32896236958E+02  0.73720353979E+02 -0.60262804083E+02  0.10073955803E+03  0.00000000000E+00 0. -1.
        -13    1    5    5    0    0  0.27871197514E+02  0.71135816654E+03 -0.49036321996E+03  0.86444394395E+03  0.00000000000E+00 0.  1.
          3    1    6    6  503    0  0.22501023830E+03 -0.18410071516E+03 -0.11554038228E+03  0.31284542605E+03  0.00000000000E+00 0.  1.
         -3    1    6    6    0  503 -0.15870244409E+00 -0.11260793926E+02  0.10561997709E+02  0.15439768842E+02  0.00000000000E+00 0. -1.
<mgrwt>
<rscale>  0 0.17939514E+04</rscale>
<asrwt>0</asrwt>
<pdfrwt beam="1">  1        2 0.26884044E+00 0.17939514E+04</pdfrwt>
<pdfrwt beam="2">  1       -2 0.70833716E-01 0.17939514E+04</pdfrwt>
<totfact> 0.15787092E+01</totfact>
</mgrwt>
</event>
<event>
12    3  0.4769008E-008  0.1507914E+04  0.7818608E-02  0.8879207E-01
         -2   -1    0    0    0  501 -0.00000000000E+00  0.00000000000E+00  0.71404861126E+03  0.71404861126E+03  0.00000000000E+00 0.  1.
          2   -1    0    0  501    0  0.00000000000E+00 -0.00000000000E+00 -0.79609627588E+03  0.79609627588E+03  0.00000000000E+00 0. -1.
         23    2    1    2    0    0 -0.29599451778E+03  0.28568488625E+02 -0.40344396370E+03  0.50928001522E+03  0.90389097585E+02 0.  0.
        254    2    1    2    0    0  0.29599451778E+03 -0.28568488625E+02  0.32139629908E+03  0.10008648719E+04  0.90000333203E+03 0.  0.
         23    2    4    4    0    0 -0.41778171325E+02 -0.35396197685E+03 -0.83114840151E+02  0.37465264465E+03  0.80137574410E+02 0.  0.
         23    2    4    4    0    0  0.33777268910E+03  0.32539348823E+03  0.40451113923E+03  0.62621222726E+03  0.92418505305E+02 0.  0.
          2    1    3    3  502    0 -0.21442535522E+03  0.46497396038E+01 -0.22077225198E+03  0.30779902580E+03  0.00000000000E+00 0. -1.
         -2    1    3    3    0  502 -0.81569162558E+02  0.23918749021E+02 -0.18267171173E+03  0.20148098943E+03  0.00000000000E+00 0.  1.
         13    1    5    5    0    0 -0.20875231107E+02 -0.11012777519E+03  0.10612161958E+02  0.11259005340E+03  0.00000000000E+00 0. -1.
        -13    1    5    5    0    0 -0.20902940218E+02 -0.24383420166E+03 -0.93727002109E+02  0.26206259125E+03  0.00000000000E+00 0.  1.
          2    1    6    6  503    0  0.36161813041E+02  0.19120858466E+02  0.85639011799E+01  0.41792635168E+02  0.00000000000E+00 0. -1.
         -2    1    6    6    0  503  0.30161087606E+03  0.30627262976E+03  0.39594723805E+03  0.58441959209E+03  0.00000000000E+00 0.  1.
<mgrwt>
<rscale>  0 0.15079144E+04</rscale>
<asrwt>0</asrwt>
<pdfrwt beam="1">  1        2 0.12247635E+00 0.15079144E+04</pdfrwt>
<pdfrwt beam="2">  1       -2 0.10985363E+00 0.15079144E+04</pdfrwt>
<totfact> 0.22069721E+01</totfact>
</mgrwt>
</event>
<event>
12    3  0.4769008E-008  0.1751871E+04  0.7818608E-02  0.8732321E-01
          2   -1    0    0  501    0  0.00000000000E+00  0.00000000000E+00  0.15454918148E+04  0.15454918148E+04  0.00000000000E+00 0. -1.
         -2   -1    0    0    0  501 -0.00000000000E+00 -0.00000000000E+00 -0.49645213163E+03  0.49645213163E+03  0.00000000000E+00 0.  1.
         23    2    1    2    0    0 -0.18040572880E+03  0.59671137253E+03  0.21234621993E+03  0.66526221042E+03  0.94192369169E+02 0.  0.
        254    2    1    2    0    0  0.18040572880E+03 -0.59671137253E+03  0.83669346323E+03  0.13766817360E+04  0.89810130929E+03 0.  0.
         23    2    4    4    0    0  0.45125905824E+03 -0.41813402756E+03  0.19435818882E+03  0.65149913786E+03  0.90582660715E+02 0.  0.
         23    2    4    4    0    0 -0.27085332944E+03 -0.17857734497E+03  0.64233527441E+03  0.72518259814E+03  0.89687243780E+02 0.  0.
          2    1    3    3  502    0 -0.31516273079E+02  0.82899360944E+02  0.66313270083E+02  0.11073856285E+03  0.00000000000E+00 0. -1.
         -2    1    3    3    0  502 -0.14888945573E+03  0.51381201158E+03  0.14603294985E+03  0.55452364757E+03  0.00000000000E+00 0.  1.
         13    1    5    5    0    0  0.31197201496E+03 -0.31345947490E+03  0.10022771697E+03  0.45346331249E+03  0.00000000000E+00 0. -1.
        -13    1    5    5    0    0  0.13928704328E+03 -0.10467455266E+03  0.94130471844E+02  0.19803582537E+03  0.00000000000E+00 0.  1.
          4    1    6    6  503    0 -0.10504447274E+03 -0.44976596891E+02  0.31095636379E+03  0.33128702918E+03  0.00000000000E+00 0. -1.
         -4    1    6    6    0  503 -0.16580885670E+03 -0.13360074808E+03  0.33137891062E+03  0.39389556896E+03  0.00000000000E+00 0.  1.
<mgrwt>
<rscale>  0 0.17518707E+04</rscale>
<asrwt>0</asrwt>
<pdfrwt beam="1">  1        2 0.23776797E+00 0.17518707E+04</pdfrwt>
<pdfrwt beam="2">  1       -2 0.76377252E-01 0.17518707E+04</pdfrwt>
<totfact> 0.17388402E+01</totfact>
</mgrwt>
</event>
<event>
12    3  0.4769008E-008  0.1205815E+04  0.7818608E-02  0.9107782E-01
         -1   -1    0    0    0  501 -0.00000000000E+00  0.00000000000E+00  0.22328995765E+03  0.22328995765E+03  0.00000000000E+00 0.  1.
          1   -1    0    0  501    0  0.00000000000E+00 -0.00000000000E+00 -0.16279161240E+04  0.16279161240E+04  0.00000000000E+00 0. -1.
         23    2    1    2    0    0  0.99318672275E+02 -0.24170153504E+02  0.46137104707E+02  0.14434716834E+03  0.90879467397E+02 0.  0.
        254    2    1    2    0    0 -0.99318672275E+02  0.24170153504E+02 -0.14507632711E+04  0.17068589133E+04  0.89342312835E+03 0.  0.
         23    2    4    4    0    0 -0.46959628054E+03  0.35460681652E+02 -0.55567972636E+03  0.73406759513E+03  0.91088689132E+02 0.  0.
         23    2    4    4    0    0  0.37027760827E+03 -0.11290528148E+02 -0.89508354469E+03  0.97279131817E+03  0.88968609724E+02 0.  0.
          1    1    3    3  502    0  0.85354398445E+00 -0.30725009384E+02 -0.80393209910E+01  0.31770826571E+02  0.00000000000E+00 0. -1.
         -1    1    3    3    0  502  0.98465128290E+02  0.65548558799E+01  0.54176425698E+02  0.11257634177E+03  0.00000000000E+00 0.  1.
         13    1    5    5    0    0 -0.40632094650E+03  0.46321263246E+02 -0.51672037626E+03  0.65897065051E+03  0.00000000000E+00 0.  1.
        -13    1    5    5    0    0 -0.63275334043E+02 -0.10860581594E+02 -0.38959350105E+02  0.75096944621E+02  0.00000000000E+00 0. -1.
          4    1    6    6  503    0  0.34790744284E+02  0.18794186411E+02 -0.55372819779E+02  0.68042387531E+02  0.00000000000E+00 0. -1.
         -4    1    6    6    0  503  0.33548686398E+03 -0.30084714559E+02 -0.83971072491E+03  0.90474893064E+03  0.00000000000E+00 0.  1.
<mgrwt>
<rscale>  0 0.12058148E+04</rscale>
<asrwt>0</asrwt>
<pdfrwt beam="1">  1        1 0.25044863E+00 0.12058148E+04</pdfrwt>
<pdfrwt beam="2">  1       -1 0.34352302E-01 0.12058148E+04</pdfrwt>
<totfact> 0.42388018E+01</totfact>
</mgrwt>
</event>
<event>
12    3  0.4769008E-008  0.3462230E+04  0.7818608E-02  0.8122800E-01
         -2   -1    0    0    0  501 -0.00000000000E+00  0.00000000000E+00  0.11567810705E+04  0.11567810705E+04  0.00000000000E+00 0.  1.
          2   -1    0    0  501    0  0.00000000000E+00 -0.00000000000E+00 -0.25906016021E+04  0.25906016021E+04  0.00000000000E+00 0. -1.
         23    2    1    2    0    0 -0.86206450042E+03  0.10229360695E+04 -0.16383662733E+04  0.21173710124E+04  0.97275657495E+02 0.  0.
        254    2    1    2    0    0  0.86206450042E+03 -0.10229360695E+04  0.20454574171E+03  0.16300116602E+04  0.90859542523E+03 0.  0.
         23    2    4    4    0    0  0.11017964219E+03 -0.79776945018E+02  0.37409867945E+03  0.40846697333E+03  0.91605304542E+02 0.  0.
         23    2    4    4    0    0  0.75188485823E+03 -0.94315912451E+03 -0.16955293775E+03  0.12215446869E+04  0.92429698568E+02 0.  0.
          3    1    3    3  502    0 -0.41249729487E+03  0.47352867059E+03 -0.84418901651E+03  0.10521589784E+04  0.00000000000E+00 0. -1.
         -3    1    3    3    0  502 -0.44956720555E+03  0.54940739894E+03 -0.79417725678E+03  0.10652120341E+04  0.00000000000E+00 0.  1.
         13    1    5    5    0    0  0.22827138269E+02  0.96503393288E+01  0.14844310480E+03  0.15049771644E+03  0.00000000000E+00 0.  1.
        -13    1    5    5    0    0  0.87352503921E+02 -0.89427284347E+02  0.22565557465E+03  0.25796925689E+03  0.00000000000E+00 0. -1.
          4    1    6    6  503    0  0.40802469064E+03 -0.44641468150E+03 -0.10679116997E+03  0.61414539811E+03  0.00000000000E+00 0. -1.
         -4    1    6    6    0  503  0.34386016759E+03 -0.49674444300E+03 -0.62761767771E+02  0.60739928878E+03  0.00000000000E+00 0.  1.
<mgrwt>
<rscale>  0 0.34622299E+04</rscale>
<asrwt>0</asrwt>
<pdfrwt beam="1">  1        2 0.39855409E+00 0.34622299E+04</pdfrwt>
<pdfrwt beam="2">  1       -2 0.17796632E+00 0.34622299E+04</pdfrwt>
<totfact> 0.47576962E-01</totfact>
</mgrwt>
</event>
<event>
12    3  0.4769008E-008  0.1680029E+04  0.7818608E-02  0.8772837E-01
         -1   -1    0    0    0  501 -0.00000000000E+00  0.00000000000E+00  0.40454434929E+03  0.40454434929E+03  0.00000000000E+00 0.  1.
          1   -1    0    0  501    0  0.00000000000E+00 -0.00000000000E+00 -0.17442457054E+04  0.17442457054E+04  0.00000000000E+00 0. -1.
         23    2    1    2    0    0 -0.91456606389E+02 -0.22414988088E+03  0.21228752282E+03  0.33726720617E+03  0.10037776677E+03 0.  0.
        254    2    1    2    0    0  0.91456606389E+02  0.22414988088E+03 -0.15519888790E+04  0.18115228486E+04  0.90240682094E+03 0.  0.
         23    2    4    4    0    0 -0.14354378334E+03  0.30647868222E+03 -0.14952620206E+04  0.15359536264E+04  0.93867096794E+02 0.  0.
         23    2    4    4    0    0  0.23500038973E+03 -0.82328801342E+02 -0.56726858392E+02  0.27556922217E+03  0.10352412783E+03 0.  0.
          2    1    3    3  502    0  0.16985272545E+02 -0.48650561049E+02  0.68868295645E+02  0.86012898561E+02  0.00000000000E+00 0. -1.
         -2    1    3    3    0  502 -0.10844187893E+03 -0.17549931983E+03  0.14341922717E+03  0.25125430761E+03  0.00000000000E+00 0.  1.
         13    1    5    5    0    0 -0.32249221911E+02  0.78727103634E+02 -0.22285620931E+03  0.23854320193E+03  0.00000000000E+00 0.  1.
        -13    1    5    5    0    0 -0.11129456143E+03  0.22775157859E+03 -0.12724058113E+04  0.12974104245E+04  0.00000000000E+00 0. -1.
          3    1    6    6  503    0  0.20974581457E+03 -0.40957449726E+02 -0.70744698274E+02  0.22511248688E+03  0.00000000000E+00 0. -1.
         -3    1    6    6    0  503  0.25254575158E+02 -0.41371351616E+02  0.14017839882E+02  0.50456735288E+02  0.00000000000E+00 0.  1.
<mgrwt>
<rscale>  0 0.16800295E+04</rscale>
<asrwt>0</asrwt>
<pdfrwt beam="1">  1        1 0.26834549E+00 0.16800295E+04</pdfrwt>
<pdfrwt beam="2">  1       -1 0.62237592E-01 0.16800295E+04</pdfrwt>
<totfact> 0.11097356E+01</totfact>
</mgrwt>
</event>
<event>
12    3  0.4769008E-008  0.1903194E+04  0.7818608E-02  0.8653268E-01
          1   -1    0    0  501    0  0.00000000000E+00  0.00000000000E+00  0.91548541726E+03  0.91548541726E+03  0.00000000000E+00 0. -1.
         -1   -1    0    0    0  501 -0.00000000000E+00 -0.00000000000E+00 -0.98913291882E+03  0.98913291882E+03  0.00000000000E+00 0.  1.
         23    2    1    2    0    0 -0.21282665119E+03 -0.64319671127E+03 -0.33919850043E+03  0.76276063150E+03  0.88039567394E+02 0.  0.
        254    2    1    2    0    0  0.21282665119E+03  0.64319671127E+03  0.26555099887E+03  0.11418577046E+04  0.87995709650E+03 0.  0.
         23    2    4    4    0    0  0.52621884352E+03  0.36119119724E+03  0.19983231241E+02  0.64519455868E+03  0.92256906411E+02 0.  0.
         23    2    4    4    0    0 -0.31339219233E+03  0.28200551403E+03  0.24556776763E+03  0.49666314591E+03  0.92892280904E+02 0.  0.
          4    1    3    3  502    0  0.48189179164E+01 -0.20952449128E+01  0.50425262640E+00  0.52788532695E+01  0.00000000000E+00 0. -1.
         -4    1    3    3    0  502 -0.21764556910E+03 -0.64110146635E+03 -0.33970275306E+03  0.75748177823E+03  0.00000000000E+00 0.  1.
         13    1    5    5    0    0  0.53004183535E+03  0.35756457790E+03  0.21426135329E+02  0.63973107933E+03  0.00000000000E+00 0.  1.
        -13    1    5    5    0    0 -0.38229918296E+01  0.36266193417E+01 -0.14429040882E+01  0.54634793481E+01  0.00000000000E+00 0. -1.
          1    1    6    6  503    0 -0.37582330235E+02  0.46620811286E+02  0.74935827487E+02  0.95923458194E+02  0.00000000000E+00 0. -1.
         -1    1    6    6    0  503 -0.27580986209E+03  0.23538470274E+03  0.17063194014E+03  0.40073968771E+03  0.00000000000E+00 0.  1.
<mgrwt>
<rscale>  0 0.19031939E+04</rscale>
<asrwt>0</asrwt>
<pdfrwt beam="1">  1        1 0.14084391E+00 0.19031939E+04</pdfrwt>
<pdfrwt beam="2">  1       -1 0.15217429E+00 0.19031939E+04</pdfrwt>
<totfact> 0.55476094E+00</totfact>
</mgrwt>
</event>
<event>
12    3  0.4769008E-008  0.1698633E+04  0.7818608E-02  0.8762144E-01
          1   -1    0    0  501    0  0.00000000000E+00  0.00000000000E+00  0.57222408635E+03  0.57222408635E+03  0.00000000000E+00 0. -1.
         -1   -1    0    0    0  501 -0.00000000000E+00 -0.00000000000E+00 -0.12605881790E+04  0.12605881790E+04  0.00000000000E+00 0.  1.
         23    2    1    2    0    0  0.16687635181E+03  0.25750845548E+03  0.31824937501E+03  0.45124170538E+03  0.90432795753E+02 0.  0.
        254    2    1    2    0    0 -0.16687635181E+03 -0.25750845548E+03 -0.10066134676E+04  0.13815705600E+04  0.89515820807E+03 0.  0.
         23    2    4    4    0    0  0.84773144764E+02  0.13493043258E+01  0.13343265234E+03  0.18211936122E+03  0.90415055857E+02 0.  0.
         23    2    4    4    0    0 -0.25164949657E+03 -0.25885775980E+03 -0.11400461200E+04  0.11994511987E+04  0.92968884854E+02 0.  0.
          1    1    3    3  502    0  0.12837628513E+03  0.24804498472E+03  0.26641954887E+03  0.38598725503E+03  0.00000000000E+00 0. -1.
         -1    1    3    3    0  502  0.38500066679E+02  0.94634707634E+01  0.51829826140E+02  0.65254450353E+02  0.00000000000E+00 0.  1.
         13    1    5    5    0    0  0.33898950807E+02 -0.30721807207E+02  0.13087328360E+02  0.47584098893E+02  0.00000000000E+00 0.  1.
        -13    1    5    5    0    0  0.50874193957E+02  0.32071111533E+02  0.12034532398E+03  0.13453526233E+03  0.00000000000E+00 0. -1.
          2    1    6    6  503    0 -0.10651078480E+03 -0.15627939466E+03 -0.48054277657E+03  0.51641955481E+03  0.00000000000E+00 0. -1.
         -2    1    6    6    0  503 -0.14513871177E+03 -0.10257836515E+03 -0.65950334340E+03  0.68303164393E+03  0.00000000000E+00 0.  1.
<mgrwt>
<rscale>  0 0.16986335E+04</rscale>
<asrwt>0</asrwt>
<pdfrwt beam="1">  1        1 0.88034476E-01 0.16986335E+04</pdfrwt>
<pdfrwt beam="2">  1       -1 0.19393664E+00 0.16986335E+04</pdfrwt>
<totfact> 0.57855965E+00</totfact>
</mgrwt>
</event>
<event>
12    3  0.4769008E-008  0.2631248E+04  0.7818608E-02  0.8357664E-01
          2   -1    0    0  501    0  0.00000000000E+00  0.00000000000E+00  0.11359184299E+04  0.11359184299E+04  0.00000000000E+00 0. -1.
         -2   -1    0    0    0  501 -0.00000000000E+00 -0.00000000000E+00 -0.15237590032E+04  0.15237590032E+04  0.00000000000E+00 0.  1.
         23    2    1    2    0    0  0.14567127076E+03 -0.84809824278E+03 -0.95899100610E+03  0.12918518433E+04  0.93416737085E+02 0.  0.
        254    2    1    2    0    0 -0.14567127076E+03  0.84809824278E+03  0.57115043284E+03  0.13678255898E+04  0.89679611884E+03 0.  0.
         23    2    4    4    0    0  0.36296512487E+03  0.46359595377E+03  0.31652215395E+03  0.67452490435E+03  0.90181386219E+02 0.  0.
         23    2    4    4    0    0 -0.50863639563E+03  0.38450228900E+03  0.25462827888E+03  0.69330068549E+03  0.96318673616E+02 0.  0.
          1    1    3    3  502    0 -0.74345292164E+01 -0.17644049850E+03 -0.18825829316E+03  0.25812343303E+03  0.00000000000E+00 0. -1.
         -1    1    3    3    0  502  0.15310579997E+03 -0.67165774428E+03 -0.77073271295E+03  0.10337284103E+04  0.00000000000E+00 0.  1.
         13    1    5    5    0    0  0.12665649432E+03  0.10110839134E+03  0.10272193000E+03  0.19187644268E+03  0.00000000000E+00 0. -1.
        -13    1    5    5    0    0  0.23630863055E+03  0.36248756243E+03  0.21380022396E+03  0.48264846168E+03  0.00000000000E+00 0.  1.
          3    1    6    6  503    0 -0.21206990809E+03  0.19267440413E+03  0.70875630314E+02  0.29516169619E+03  0.00000000000E+00 0. -1.
         -3    1    6    6    0  503 -0.29656648754E+03  0.19182788487E+03  0.18375264857E+03  0.39813898930E+03  0.00000000000E+00 0.  1.
<mgrwt>
<rscale>  0 0.26312476E+04</rscale>
<asrwt>0</asrwt>
<pdfrwt beam="1">  1        2 0.17475668E+00 0.26312476E+04</pdfrwt>
<pdfrwt beam="2">  1       -2 0.23442446E+00 0.26312476E+04</pdfrwt>
<totfact> 0.14656192E+00</totfact>
</mgrwt>
</event>
<event>
12    3  0.4769008E-008  0.1953294E+04  0.7818608E-02  0.8628774E-01
          2   -1    0    0  501    0  0.00000000000E+00  0.00000000000E+00  0.75421582652E+03  0.75421582652E+03  0.00000000000E+00 0. -1.
         -2   -1    0    0    0  501 -0.00000000000E+00 -0.00000000000E+00 -0.12646771143E+04  0.12646771143E+04  0.00000000000E+00 0.  1.
         23    2    1    2    0    0 -0.15819988540E+03 -0.37997751777E+03  0.46478968025E+03  0.62766225134E+03  0.92305672269E+02 0.  0.
        254    2    1    2    0    0  0.15819988540E+03  0.37997751777E+03 -0.97525096802E+03  0.13912306895E+04  0.90277254220E+03 0.  0.
         23    2    4    4    0    0  0.44710454679E+03  0.32285909118E+03 -0.26798006807E+03  0.61987596829E+03  0.91062784196E+02 0.  0.
         23    2    4    4    0    0 -0.28890466138E+03  0.57118426584E+02 -0.70727089996E+03  0.77135472118E+03  0.89596662523E+02 0.  0.
          3    1    3    3  502    0 -0.16182398360E+03 -0.37197734871E+03  0.46702406561E+03  0.61859973123E+03  0.00000000000E+00 0. -1.
         -3    1    3    3    0  502  0.36240982005E+01 -0.80001690577E+01 -0.22343853565E+01  0.90625201043E+01  0.00000000000E+00 0.  1.
         13    1    5    5    0    0  0.27000335978E+03  0.13904446085E+03 -0.14438532971E+03  0.33627711760E+03  0.00000000000E+00 0. -1.
        -13    1    5    5    0    0  0.17710118701E+03  0.18381463033E+03 -0.12359473835E+03  0.28359885069E+03  0.00000000000E+00 0.  1.
          1    1    6    6  503    0 -0.27089009120E+03  0.40154595383E+02 -0.68629949550E+03  0.73891869009E+03  0.00000000000E+00 0. -1.
         -1    1    6    6    0  503 -0.18014570187E+02  0.16963831201E+02 -0.20971404458E+02  0.32436031092E+02  0.00000000000E+00 0.  1.
<mgrwt>
<rscale>  0 0.19532941E+04</rscale>
<asrwt>0</asrwt>
<pdfrwt beam="1">  1        2 0.11603321E+00 0.19532941E+04</pdfrwt>
<pdfrwt beam="2">  1       -2 0.19456571E+00 0.19532941E+04</pdfrwt>
<totfact> 0.50127955E+00</totfact>
</mgrwt>
</event>
<event>
12    3  0.4769008E-008  0.2523420E+04  0.7818608E-02  0.8394689E-01
          2   -1    0    0  501    0  0.00000000000E+00  0.00000000000E+00  0.20144447832E+04  0.20144447832E+04  0.00000000000E+00 0. -1.
         -2   -1    0    0    0  501 -0.00000000000E+00 -0.00000000000E+00 -0.79024840453E+03  0.79024840453E+03  0.00000000000E+00 0.  1.
         23    2    1    2    0    0 -0.63605008406E+03 -0.62832535467E+03 -0.17489593510E+03  0.91558617193E+03  0.91416570504E+02 0.  0.
        254    2    1    2    0    0  0.63605008406E+03  0.62832535467E+03  0.13990923138E+04  0.18891070158E+04  0.90106245840E+03 0.  0.
         23    2    4    4    0    0  0.62519288020E+03  0.75653863314E+01  0.58516377919E+03  0.86128081797E+03  0.92003404269E+02 0.  0.
         23    2    4    4    0    0  0.10857203863E+02  0.62075996834E+03  0.81392853457E+03  0.10278261978E+04  0.92120662072E+02 0.  0.
          4    1    3    3  502    0 -0.48215085060E+03 -0.52357322983E+03 -0.12285118296E+03  0.72228165066E+03  0.00000000000E+00 0.  1.
         -4    1    3    3    0  502 -0.15389923346E+03 -0.10475212485E+03 -0.52044752135E+02  0.19330452127E+03  0.00000000000E+00 0. -1.
         13    1    5    5    0    0  0.42614199312E+03  0.32215033711E+02  0.35151489158E+03  0.55335117755E+03  0.00000000000E+00 0.  1.
        -13    1    5    5    0    0  0.19905088708E+03 -0.24649647380E+02  0.23364888761E+03  0.30792964042E+03  0.00000000000E+00 0. -1.
          3    1    6    6  503    0  0.45759527940E+01  0.21997375925E+03  0.21877555095E+03  0.31027751417E+03  0.00000000000E+00 0. -1.
         -3    1    6    6    0  503  0.62812510685E+01  0.40078620909E+03  0.59515298362E+03  0.71754868366E+03  0.00000000000E+00 0.  1.
<mgrwt>
<rscale>  0 0.25234197E+04</rscale>
<asrwt>0</asrwt>
<pdfrwt beam="1">  1        2 0.30991458E+00 0.25234197E+04</pdfrwt>
<pdfrwt beam="2">  1       -2 0.12157668E+00 0.25234197E+04</pdfrwt>
<totfact> 0.30009036E+00</totfact>
</mgrwt>
</event>
<event>
12    3  0.4769008E-008  0.3313214E+04  0.7818608E-02  0.8159541E-01
          2   -1    0    0  501    0  0.00000000000E+00  0.00000000000E+00  0.27321095057E+04  0.27321095057E+04  0.00000000000E+00 0.  1.
         -2   -1    0    0    0  501 -0.00000000000E+00 -0.00000000000E+00 -0.10044790166E+04  0.10044790166E+04  0.00000000000E+00 0. -1.
         23    2    1    2    0    0  0.97147671838E+03  0.88266826484E+02 -0.53202625810E+03  0.11147047344E+04  0.89200104450E+02 0.  0.
        254    2    1    2    0    0 -0.97147671838E+03 -0.88266826484E+02  0.22596567472E+04  0.26218837879E+04  0.90369681594E+03 0.  0.
         23    2    4    4    0    0 -0.79981404006E+03  0.30618171505E+03  0.17356819348E+04  0.19376034114E+04  0.90914574395E+02 0.  0.
         23    2    4    4    0    0 -0.17166267832E+03 -0.39444854153E+03  0.52397481241E+03  0.68428037650E+03  0.92910185563E+02 0.  0.
          1    1    3    3  502    0  0.80894100850E+03  0.91741761235E+02 -0.47415619391E+03  0.94213916287E+03  0.00000000000E+00 0. -1.
         -1    1    3    3    0  502  0.16253570988E+03 -0.34749347504E+01 -0.57870064184E+02  0.17256557155E+03  0.00000000000E+00 0.  1.
         13    1    5    5    0    0 -0.20529869574E+03  0.11212717804E+03  0.41664538525E+03  0.47782155203E+03  0.00000000000E+00 0. -1.
        -13    1    5    5    0    0 -0.59451534432E+03  0.19405453700E+03  0.13190365496E+04  0.14597818594E+04  0.00000000000E+00 0.  1.
          4    1    6    6  503    0 -0.12066469556E+03 -0.26736576147E+03  0.42024227858E+03  0.51249194322E+03  0.00000000000E+00 0. -1.
         -4    1    6    6    0  503 -0.50997982763E+02 -0.12708278006E+03  0.10373253383E+03  0.17178843328E+03  0.00000000000E+00 0.  1.
<mgrwt>
<rscale>  0 0.33132139E+04</rscale>
<asrwt>0</asrwt>
<pdfrwt beam="1">  1        2 0.42032454E+00 0.33132139E+04</pdfrwt>
<pdfrwt beam="2">  1       -2 0.15453523E+00 0.33132139E+04</pdfrwt>
<totfact> 0.58639797E-01</totfact>
</mgrwt>
</event>
<event>
12    3  0.4769008E-008  0.1422457E+04  0.7818608E-02  0.8937721E-01
          2   -1    0    0  501    0  0.00000000000E+00  0.00000000000E+00  0.14303368158E+04  0.14303368158E+04  0.00000000000E+00 0. -1.
         -2   -1    0    0    0  501 -0.00000000000E+00 -0.00000000000E+00 -0.35365535817E+03  0.35365535817E+03  0.00000000000E+00 0.  1.
         23    2    1    2    0    0 -0.28449313739E+02 -0.40020859258E+03  0.51876227338E+03  0.66225878537E+03  0.92174407949E+02 0.  0.
        254    2    1    2    0    0  0.28449313739E+02  0.40020859258E+03  0.55791918424E+03  0.11217333886E+04  0.88658654283E+03 0.  0.
         23    2    4    4    0    0 -0.28626736193E+03  0.42812292216E+03  0.59266313591E+03  0.79086762129E+03  0.94782713440E+02 0.  0.
         23    2    4    4    0    0  0.31471667567E+03 -0.27914329573E+02 -0.34743951661E+02  0.33086576731E+03  0.91865216814E+02 0.  0.
          2    1    3    3  502    0 -0.37540788643E+02 -0.19623469520E+03  0.32041428471E+03  0.37760121856E+03  0.00000000000E+00 0. -1.
         -2    1    3    3    0  502  0.90914749038E+01 -0.20397389739E+03  0.19834798868E+03  0.28465756681E+03  0.00000000000E+00 0.  1.
         13    1    5    5    0    0 -0.13808054002E+03  0.24186681782E+03  0.38382287793E+03  0.47422125081E+03  0.00000000000E+00 0. -1.
        -13    1    5    5    0    0 -0.14818682191E+03  0.18625610434E+03  0.20884025797E+03  0.31664637048E+03  0.00000000000E+00 0.  1.
          2    1    6    6  503    0  0.60932107736E+02 -0.51017430491E+01 -0.44892885467E+02  0.75855920671E+02  0.00000000000E+00 0. -1.
         -2    1    6    6    0  503  0.25378456793E+03 -0.22812586524E+02  0.10148933806E+02  0.25500984664E+03  0.00000000000E+00 0.  1.
<mgrwt>
<rscale>  0 0.14224574E+04</rscale>
<asrwt>0</asrwt>
<pdfrwt beam="1">  1        2 0.22005181E+00 0.14224574E+04</pdfrwt>
<pdfrwt beam="2">  1       -2 0.54408517E-01 0.14224574E+04</pdfrwt>
<totfact> 0.42953064E+01</totfact>
</mgrwt>
</event>
<event>
12    3  0.4769008E-008  0.1581782E+04  0.7818608E-02  0.8831819E-01
          1   -1    0    0  501    0  0.00000000000E+00  0.00000000000E+00  0.46694945771E+03  0.46694945771E+03  0.00000000000E+00 0. -1.
         -1   -1    0    0    0  501 -0.00000000000E+00 -0.00000000000E+00 -0.13395632679E+04  0.13395632679E+04  0.00000000000E+00 0.  1.
         23    2    1    2    0    0  0.12392107781E+03 -0.47735027585E+03 -0.76296774085E+02  0.50715699412E+03  0.90373113108E+02 0.  0.
        254    2    1    2    0    0 -0.12392107781E+03  0.47735027585E+03 -0.79631703612E+03  0.12993557315E+04  0.90054693136E+03 0.  0.
         23    2    4    4    0    0  0.22009302433E+03  0.14520737746E+03  0.85443970219E+02  0.29167697913E+03  0.90822168460E+02 0.  0.
         23    2    4    4    0    0 -0.34401410214E+03  0.33214289839E+03 -0.88176100634E+03  0.10076787524E+04  0.96173739885E+02 0.  0.
          4    1    3    3  502    0  0.11141996331E+03 -0.25070754226E+03 -0.38314449677E+02  0.27701385710E+03  0.00000000000E+00 0. -1.
         -4    1    3    3    0  502  0.12501114500E+02 -0.22664273358E+03 -0.37982324408E+02  0.23014313702E+03  0.00000000000E+00 0.  1.
         13    1    5    5    0    0  0.22699723779E+03  0.13071371126E+03  0.85747110151E+02  0.27562000504E+03  0.00000000000E+00 0. -1.
        -13    1    5    5    0    0 -0.69042134638E+01  0.14493666195E+02 -0.30313993165E+00  0.16056974097E+02  0.00000000000E+00 0.  1.
          4    1    6    6  503    0 -0.31681341482E+03  0.26982816489E+03 -0.79617298843E+03  0.89837041686E+03  0.00000000000E+00 0. -1.
         -4    1    6    6    0  503 -0.27200687313E+02  0.62314733498E+02 -0.85588017916E+02  0.10930833551E+03  0.00000000000E+00 0.  1.
<mgrwt>
<rscale>  0 0.15817817E+04</rscale>
<asrwt>0</asrwt>
<pdfrwt beam="1">  1        1 0.71838380E-01 0.15817817E+04</pdfrwt>
<pdfrwt beam="2">  1       -1 0.20608665E+00 0.15817817E+04</pdfrwt>
<totfact> 0.63948343E+00</totfact>
</mgrwt>
</event>
<event>
12    3  0.4769008E-008  0.2221764E+04  0.7818608E-02  0.8509424E-01
         -2   -1    0    0    0  501 -0.00000000000E+00  0.00000000000E+00  0.33788593802E+03  0.33788593802E+03  0.00000000000E+00 0.  1.
          2   -1    0    0  501    0  0.00000000000E+00 -0.00000000000E+00 -0.36522938672E+04  0.36522938672E+04  0.00000000000E+00 0. -1.
         23    2    1    2    0    0  0.34150285465E+03  0.85566709642E+03 -0.15958294547E+04  0.18448525869E+04  0.89549087679E+02 0.  0.
        254    2    1    2    0    0 -0.34150285465E+03 -0.85566709642E+03 -0.17185784745E+04  0.21453272184E+04  0.89449791575E+03 0.  0.
         23    2    4    4    0    0  0.67014301965E+02 -0.75564744200E+03 -0.68695320630E+03  0.10274842046E+04  0.91242039560E+02 0.  0.
         23    2    4    4    0    0 -0.40851715662E+03 -0.10001965442E+03 -0.10316252682E+04  0.11178430138E+04  0.91826526468E+02 0.  0.
          3    1    3    3  502    0  0.22262115721E+03  0.59019604827E+03 -0.10101919233E+04  0.11909572943E+04  0.00000000000E+00 0. -1.
         -3    1    3    3    0  502  0.11888169745E+03  0.26547104815E+03 -0.58563753142E+03  0.65389529253E+03  0.00000000000E+00 0.  1.
         13    1    5    5    0    0 -0.19187832814E+02 -0.28205150446E+03 -0.25427690094E+03  0.38023409428E+03  0.00000000000E+00 0.  1.
        -13    1    5    5    0    0  0.86202134779E+02 -0.47359593753E+03 -0.43267630536E+03  0.64725011032E+03  0.00000000000E+00 0. -1.
          1    1    6    6  503    0 -0.19886507693E+03 -0.73758683297E+02 -0.41569696177E+03  0.46668150404E+03  0.00000000000E+00 0. -1.
         -1    1    6    6    0  503 -0.20965207969E+03 -0.26260971124E+02 -0.61592830642E+03  0.65116150975E+03  0.00000000000E+00 0.  1.
<mgrwt>
<rscale>  0 0.22217639E+04</rscale>
<asrwt>0</asrwt>
<pdfrwt beam="1">  1        2 0.56189135E+00 0.22217639E+04</pdfrwt>
<pdfrwt beam="2">  1       -2 0.51982453E-01 0.22217639E+04</pdfrwt>
<totfact> 0.20258010E+00</totfact>
</mgrwt>
</event>
<event>
12    3  0.4769008E-008  0.1771171E+04  0.7818608E-02  0.8721783E-01
         -2   -1    0    0    0  501 -0.00000000000E+00  0.00000000000E+00  0.63896127717E+03  0.63896127717E+03  0.00000000000E+00 0. -1.
          2   -1    0    0  501    0  0.00000000000E+00 -0.00000000000E+00 -0.12274003731E+04  0.12274003731E+04  0.00000000000E+00 0.  1.
         23    2    1    2    0    0 -0.38768144000E+03  0.47367914484E+03 -0.36740028069E+03  0.71965797590E+03  0.90861459639E+02 0.  0.
        254    2    1    2    0    0  0.38768144000E+03 -0.47367914484E+03 -0.22103881522E+03  0.11467036744E+04  0.94414105291E+03 0.  0.
         23    2    4    4    0    0  0.39600382006E+03 -0.18510318552E+03 -0.54423900861E+03  0.70388366791E+03  0.90409649257E+02 0.  0.
         23    2    4    4    0    0 -0.83223800550E+01 -0.28857595932E+03  0.32320019338E+03  0.44282000645E+03  0.91026626875E+02 0.  0.
          1    1    3    3  502    0 -0.79010217726E+01  0.22516669756E+02  0.17372247982E+01  0.23925812671E+02  0.00000000000E+00 0. -1.
         -1    1    3    3    0  502 -0.37978041823E+03  0.45116247508E+03 -0.36913750549E+03  0.69573216323E+03  0.00000000000E+00 0.  1.
         13    1    5    5    0    0  0.34648901983E+03 -0.15254367538E+03 -0.41518771865E+03  0.56187637028E+03  0.00000000000E+00 0.  1.
        -13    1    5    5    0    0  0.49514800226E+02 -0.32559510142E+02 -0.12905128996E+03  0.14200729763E+03  0.00000000000E+00 0. -1.
          4    1    6    6  503    0 -0.15350038315E+02 -0.15083457796E+02  0.57721933273E+02  0.61603213846E+02  0.00000000000E+00 0. -1.
         -4    1    6    6    0  503  0.70276582599E+01 -0.27349250152E+03  0.26547826011E+03  0.38121679260E+03  0.00000000000E+00 0.  1.
<mgrwt>
<rscale>  0 0.17711706E+04</rscale>
<asrwt>0</asrwt>
<pdfrwt beam="1">  1        2 0.18883083E+00 0.17711706E+04</pdfrwt>
<pdfrwt beam="2">  1       -2 0.98301735E-01 0.17711706E+04</pdfrwt>
<totfact> 0.14849123E+01</totfact>
</mgrwt>
</event>
<event>
12    3  0.4769008E-008  0.2630494E+04  0.7818608E-02  0.8357916E-01
         -2   -1    0    0    0  501 -0.00000000000E+00  0.00000000000E+00  0.14441541178E+04  0.14441541178E+04  0.00000000000E+00 0.  1.
          2   -1    0    0  501    0  0.00000000000E+00 -0.00000000000E+00 -0.11978465466E+04  0.11978465466E+04  0.00000000000E+00 0. -1.
         23    2    1    2    0    0  0.69631755331E+03 -0.81869230842E+03  0.51744214587E+03  0.11962233413E+04  0.89937072246E+02 0.  0.
        254    2    1    2    0    0 -0.69631755331E+03  0.81869230842E+03 -0.27113457457E+03  0.14457773231E+04  0.92824720825E+03 0.  0.
         23    2    4    4    0    0 -0.63305059492E+03  0.44952361044E+03  0.22898879664E+03  0.81458598341E+03  0.91049015942E+02 0.  0.
         23    2    4    4    0    0 -0.63266958388E+02  0.36916869798E+03 -0.50012337121E+03  0.63119133972E+03  0.89391751962E+02 0.  0.
          3    1    3    3  502    0  0.17169466737E+03 -0.24323835088E+03  0.11028501940E+03  0.31750077109E+03  0.00000000000E+00 0. -1.
         -3    1    3    3    0  502  0.52462288595E+03 -0.57545395754E+03  0.40715712647E+03  0.87872257018E+03  0.00000000000E+00 0.  1.
         13    1    5    5    0    0 -0.47367642052E+02  0.66837135907E+02  0.18482775006E+02  0.83979218988E+02  0.00000000000E+00 0. -1.
        -13    1    5    5    0    0 -0.58568295287E+03  0.38268647453E+03  0.21050602163E+03  0.73060676442E+03  0.00000000000E+00 0.  1.
          1    1    6    6  503    0 -0.61586700598E+01  0.12842855000E+02  0.26891320192E+00  0.14245717103E+02  0.00000000000E+00 0. -1.
         -1    1    6    6    0  503 -0.57108288328E+02  0.35632584298E+03 -0.50039228441E+03  0.61694562262E+03  0.00000000000E+00 0.  1.
<mgrwt>
<rscale>  0 0.26304943E+04</rscale>
<asrwt>0</asrwt>
<pdfrwt beam="1">  1        2 0.18428408E+00 0.26304943E+04</pdfrwt>
<pdfrwt beam="2">  1       -2 0.22217756E+00 0.26304943E+04</pdfrwt>
<totfact> 0.16048674E+00</totfact>
</mgrwt>
</event>
<event>
12    3  0.4769008E-008  0.1741343E+04  0.7818608E-02  0.8738130E-01
          2   -1    0    0  501    0  0.00000000000E+00  0.00000000000E+00  0.98730249719E+03  0.98730249719E+03  0.00000000000E+00 0.  1.
         -2   -1    0    0    0  501 -0.00000000000E+00 -0.00000000000E+00 -0.76781852845E+03  0.76781852845E+03  0.00000000000E+00 0. -1.
         23    2    1    2    0    0  0.55046776874E+03  0.12931217809E+03 -0.20825992268E+03  0.60904900307E+03  0.88499089961E+02 0.  0.
        254    2    1    2    0    0 -0.55046776874E+03 -0.12931217809E+03  0.42774389143E+03  0.11460720226E+04  0.90043314047E+03 0.  0.
         23    2    4    4    0    0  0.11073555349E+03 -0.19043903580E+03 -0.13224839971E+03  0.27248759055E+03  0.90721875062E+02 0.  0.
         23    2    4    4    0    0 -0.66120332223E+03  0.61126857710E+02  0.55999229114E+03  0.87358443202E+03  0.92908921364E+02 0.  0.
          4    1    3    3  502    0  0.22254027339E+03  0.61328093934E+02 -0.13075806265E+03  0.26529790677E+03  0.00000000000E+00 0. -1.
         -4    1    3    3    0  502  0.32792749534E+03  0.67984084157E+02 -0.77501860037E+02  0.34375109631E+03  0.00000000000E+00 0.  1.
         13    1    5    5    0    0  0.32569311213E+02 -0.31272606821E+01 -0.54530862564E+01  0.33170407625E+02  0.00000000000E+00 0.  1.
        -13    1    5    5    0    0  0.78166242279E+02 -0.18731177512E+03 -0.12679531346E+03  0.23931718293E+03  0.00000000000E+00 0. -1.
          2    1    6    6  503    0 -0.30990971898E+03  0.47824307461E+02  0.31933860229E+03  0.44755819869E+03  0.00000000000E+00 0. -1.
         -2    1    6    6    0  503 -0.35129360325E+03  0.13302550249E+02  0.24065368885E+03  0.42602623333E+03  0.00000000000E+00 0.  1.
<mgrwt>
<rscale>  0 0.17413433E+04</rscale>
<asrwt>0</asrwt>
<pdfrwt beam="1">  1        2 0.15189269E+00 0.17413433E+04</pdfrwt>
<pdfrwt beam="2">  1       -2 0.11812593E+00 0.17413433E+04</pdfrwt>
<totfact> 0.13443178E+01</totfact>
</mgrwt>
</event>
<event>
12    3  0.4769008E-008  0.1676907E+04  0.7818608E-02  0.8774646E-01
          1   -1    0    0  501    0  0.00000000000E+00  0.00000000000E+00  0.83262519949E+03  0.83262519949E+03  0.00000000000E+00 0. -1.
         -1   -1    0    0    0  501 -0.00000000000E+00 -0.00000000000E+00 -0.84432209983E+03  0.84432209983E+03  0.00000000000E+00 0.  1.
         23    2    1    2    0    0 -0.20433733366E+03 -0.17843207878E+03 -0.52793482359E+03  0.60092516908E+03  0.93830316041E+02 0.  0.
        254    2    1    2    0    0  0.20433733366E+03  0.17843207878E+03  0.51623792325E+03  0.10760221302E+04  0.90428440144E+03 0.  0.
         23    2    4    4    0    0  0.43865824528E+03  0.34191436259E+03  0.53295496853E+03  0.77589363340E+03  0.92970126253E+02 0.  0.
         23    2    4    4    0    0 -0.23432091162E+03 -0.16348228381E+03 -0.16717045283E+02  0.30012849683E+03  0.90359881954E+02 0.  0.
          3    1    3    3  502    0 -0.72645651398E+02 -0.10295776947E+03 -0.16565413338E+03  0.20813213319E+03  0.00000000000E+00 0. -1.
         -3    1    3    3    0  502 -0.13169168226E+03 -0.75474309317E+02 -0.36228069021E+03  0.39279303589E+03  0.00000000000E+00 0.  1.
         13    1    5    5    0    0  0.17041646899E+03  0.79481924646E+02  0.19471483504E+03  0.27068988942E+03  0.00000000000E+00 0.  1.
        -13    1    5    5    0    0  0.26824177629E+03  0.26243243794E+03  0.33824013349E+03  0.50520374399E+03  0.00000000000E+00 0. -1.
          2    1    6    6  503    0 -0.67073961970E+02 -0.14597332793E+02  0.23648644331E+02  0.72603421943E+02  0.00000000000E+00 0.  1.
         -2    1    6    6    0  503 -0.16724694965E+03 -0.14888495101E+03 -0.40365689614E+02  0.22752507489E+03  0.00000000000E+00 0. -1.
<mgrwt>
<rscale>  0 0.16769065E+04</rscale>
<asrwt>0</asrwt>
<pdfrwt beam="1">  1        1 0.12809618E+00 0.16769065E+04</pdfrwt>
<pdfrwt beam="2">  1       -1 0.12989571E+00 0.16769065E+04</pdfrwt>
<totfact> 0.10041386E+01</totfact>
</mgrwt>
</event>
<event>
12    3  0.4769008E-008  0.1381134E+04  0.7818608E-02  0.8967589E-01
          2   -1    0    0  501    0  0.00000000000E+00  0.00000000000E+00  0.54545285015E+03  0.54545285015E+03  0.00000000000E+00 0. -1.
         -2   -1    0    0    0  501 -0.00000000000E+00 -0.00000000000E+00 -0.87428728029E+03  0.87428728029E+03  0.00000000000E+00 0.  1.
         23    2    1    2    0    0 -0.30214591660E+03  0.24116072618E+03 -0.14753324341E+03  0.42330427154E+03  0.89273723025E+02 0.  0.
        254    2    1    2    0    0  0.30214591660E+03 -0.24116072618E+03 -0.18130118673E+03  0.99643585890E+03  0.90031308433E+03 0.  0.
         23    2    4    4    0    0  0.13796764609E+03 -0.56456929747E+03 -0.19888789741E+03  0.62066615058E+03  0.88862318943E+02 0.  0.
         23    2    4    4    0    0  0.16417827052E+03  0.32340857129E+03  0.17586710674E+02  0.37576970833E+03  0.96674571684E+02 0.  0.
          4    1    3    3  502    0 -0.15983293354E+03  0.18308068913E+03 -0.88255973760E+02  0.25856183454E+03  0.00000000000E+00 0. -1.
         -4    1    3    3    0  502 -0.14231298307E+03  0.58080037051E+02 -0.59277269652E+02  0.16474243701E+03  0.00000000000E+00 0.  1.
         13    1    5    5    0    0  0.82451062585E+01 -0.14350719860E+03 -0.79146202038E+02  0.16409271502E+03  0.00000000000E+00 0.  1.
        -13    1    5    5    0    0  0.12972253983E+03 -0.42106209887E+03 -0.11974169537E+03  0.45657343555E+03  0.00000000000E+00 0. -1.
          3    1    6    6  503    0  0.16970431921E+03  0.30025862707E+03  0.34429730714E+02  0.34661247156E+03  0.00000000000E+00 0. -1.
         -3    1    6    6    0  503 -0.55260486903E+01  0.23149944221E+02 -0.16843020040E+02  0.29157236763E+02  0.00000000000E+00 0.  1.
<mgrwt>
<rscale>  0 0.13811336E+04</rscale>
<asrwt>0</asrwt>
<pdfrwt beam="1">  1        2 0.83915823E-01 0.13811336E+04</pdfrwt>
<pdfrwt beam="2">  1       -2 0.13450574E+00 0.13811336E+04</pdfrwt>
<totfact> 0.21566090E+01</totfact>
</mgrwt>
</event>
<event>
12    3  0.4769008E-008  0.1708512E+04  0.7818608E-02  0.8756525E-01
         -2   -1    0    0    0  501 -0.00000000000E+00  0.00000000000E+00  0.26673479286E+03  0.26673479286E+03  0.00000000000E+00 0.  1.
          2   -1    0    0  501    0  0.00000000000E+00 -0.00000000000E+00 -0.27358755765E+04  0.27358755765E+04  0.00000000000E+00 0. -1.
         23    2    1    2    0    0  0.74691102368E+02  0.55929183465E+02  0.16914275469E+03  0.21266706665E+03  0.88944788718E+02 0.  0.
        254    2    1    2    0    0 -0.74691102368E+02 -0.55929183465E+02 -0.26382835383E+04  0.27899433027E+04  0.90251690808E+03 0.  0.
         23    2    4    4    0    0 -0.15746476099E+03 -0.46487014100E+02 -0.26596610768E+04  0.26662713969E+04  0.90829096519E+02 0.  0.
         23    2    4    4    0    0  0.82773658623E+02 -0.94421693650E+01  0.21377538472E+02  0.12367190586E+03  0.88865674043E+02 0.  0.
          2    1    3    3  502    0 -0.19034498889E+02  0.23274393233E+01  0.14406393376E+02  0.23984855469E+02  0.00000000000E+00 0. -1.
         -2    1    3    3    0  502  0.93725601257E+02  0.53601744142E+02  0.15473636131E+03  0.18868221119E+03  0.00000000000E+00 0.  1.
         13    1    5    5    0    0 -0.40512648174E+02 -0.17962733929E+02 -0.14405032405E+04  0.14411847628E+04  0.00000000000E+00 0. -1.
        -13    1    5    5    0    0 -0.11695211282E+03 -0.28524280171E+02 -0.12191578363E+04  0.12250866341E+04  0.00000000000E+00 0.  1.
          4    1    6    6  503    0  0.91250503906E+02 -0.28748136994E+02  0.30897475807E+02  0.10053737541E+03  0.00000000000E+00 0. -1.
         -4    1    6    6    0  503 -0.84768452827E+01  0.19305967629E+02 -0.95199373347E+01  0.23134530444E+02  0.00000000000E+00 0.  1.
<mgrwt>
<rscale>  0 0.17085119E+04</rscale>
<asrwt>0</asrwt>
<pdfrwt beam="1">  1        2 0.42090395E+00 0.17085119E+04</pdfrwt>
<pdfrwt beam="2">  1       -2 0.41036120E-01 0.17085119E+04</pdfrwt>
<totfact> 0.13557091E+01</totfact>
</mgrwt>
</event>
<event>
12    3  0.4769008E-008  0.1555313E+04  0.7818608E-02  0.8848481E-01
         -2   -1    0    0    0  501 -0.00000000000E+00  0.00000000000E+00  0.54371947076E+03  0.54371947076E+03  0.00000000000E+00 0.  1.
          2   -1    0    0  501    0  0.00000000000E+00 -0.00000000000E+00 -0.11122461886E+04  0.11122461886E+04  0.00000000000E+00 0. -1.
         23    2    1    2    0    0 -0.10166609069E+03 -0.49876037908E+03 -0.25776430116E+03  0.57779283536E+03  0.91127470645E+02 0.  0.
        254    2    1    2    0    0  0.10166609069E+03  0.49876037908E+03 -0.31076241672E+03  0.10781728240E+04  0.89821236305E+03 0.  0.
         23    2    4    4    0    0  0.17473638729E+03 -0.21455763017E+03 -0.58940028987E+00  0.29172885455E+03  0.92399109710E+02 0.  0.
         23    2    4    4    0    0 -0.73070296601E+02  0.71331800925E+03 -0.31017301643E+03  0.78644396950E+03  0.90138595900E+02 0.  0.
          3    1    3    3  502    0 -0.11660285030E+03 -0.46723300775E+03 -0.23271761688E+03  0.53484614371E+03  0.00000000000E+00 0.  1.
         -3    1    3    3    0  502  0.14936759615E+02 -0.31527371330E+02 -0.25046684278E+02  0.42946691655E+02  0.00000000000E+00 0. -1.
         13    1    5    5    0    0  0.52710009777E+02 -0.13128963135E+03  0.18850555189E+02  0.14272580658E+03  0.00000000000E+00 0.  1.
        -13    1    5    5    0    0  0.12202637751E+03 -0.83267998818E+02 -0.19439955479E+02  0.14900304797E+03  0.00000000000E+00 0. -1.
          4    1    6    6  503    0 -0.10136143836E+02  0.23774544417E+02  0.38916199812E+01  0.26136470308E+02  0.00000000000E+00 0. -1.
         -4    1    6    6    0  503 -0.62934152765E+02  0.68954346484E+03 -0.31406463641E+03  0.76030749919E+03  0.00000000000E+00 0.  1.
<mgrwt>
<rscale>  0 0.15553134E+04</rscale>
<asrwt>0</asrwt>
<pdfrwt beam="1">  1        2 0.17111480E+00 0.15553134E+04</pdfrwt>
<pdfrwt beam="2">  1       -2 0.83649150E-01 0.15553134E+04</pdfrwt>
<totfact> 0.25748767E+01</totfact>
</mgrwt>
</event>
<event>
12    3  0.4769008E-008  0.1118115E+04  0.7818608E-02  0.9187713E-01
          2   -1    0    0  501    0  0.00000000000E+00  0.00000000000E+00  0.91857053472E+03  0.91857053472E+03  0.00000000000E+00 0. -1.
         -2   -1    0    0    0  501 -0.00000000000E+00 -0.00000000000E+00 -0.34025200829E+03  0.34025200829E+03  0.00000000000E+00 0.  1.
         23    2    1    2    0    0 -0.80150468540E+01 -0.74500236227E+02 -0.51596224385E+02  0.13803215016E+03  0.10380837121E+03 0.  0.
        254    2    1    2    0    0  0.80150468540E+01  0.74500236227E+02  0.62991475082E+03  0.11207903929E+04  0.92399349849E+03 0.  0.
         23    2    4    4    0    0 -0.19499863058E+03  0.44019031316E+03  0.25920026326E+03  0.55435025299E+03  0.91254856275E+02 0.  0.
         23    2    4    4    0    0  0.20301367743E+03 -0.36569007693E+03  0.37071448756E+03  0.56644013986E+03  0.92094599018E+02 0.  0.
          2    1    3    3  502    0  0.14941423910E+02  0.10766106382E+02  0.17884713908E+02  0.25671349529E+02  0.00000000000E+00 0. -1.
         -2    1    3    3    0  502 -0.22956470764E+02 -0.85266342609E+02 -0.69480938293E+02  0.11236080063E+03  0.00000000000E+00 0.  1.
         13    1    5    5    0    0 -0.44303130928E+02  0.11367938413E+03  0.11253920195E+03  0.16598446241E+03  0.00000000000E+00 0. -1.
        -13    1    5    5    0    0 -0.15069549965E+03  0.32651092903E+03  0.14666106131E+03  0.38836579058E+03  0.00000000000E+00 0.  1.
          2    1    6    6  503    0  0.19468695170E+03 -0.30776648412E+03  0.28397424367E+03  0.46180579141E+03  0.00000000000E+00 0. -1.
         -2    1    6    6    0  503  0.83267257269E+01 -0.57923592813E+02  0.86740243894E+02  0.10463434845E+03  0.00000000000E+00 0.  1.
<mgrwt>
<rscale>  0 0.11181153E+04</rscale>
<asrwt>0</asrwt>
<pdfrwt beam="1">  1        2 0.14131854E+00 0.11181153E+04</pdfrwt>
<pdfrwt beam="2">  1       -2 0.52346463E-01 0.11181153E+04</pdfrwt>
<totfact> 0.97315371E+01</totfact>
</mgrwt>
</event>
<event>
12    3  0.4769008E-008  0.1145541E+04  0.7818608E-02  0.9161907E-01
          2   -1    0    0  501    0  0.00000000000E+00  0.00000000000E+00  0.46619447838E+04  0.46619447838E+04  0.00000000000E+00 0. -1.
         -2   -1    0    0    0  501 -0.00000000000E+00 -0.00000000000E+00 -0.70371070935E+02  0.70371070935E+02  0.00000000000E+00 0.  1.
         23    2    1    2    0    0  0.92754491820E+02  0.92112257561E+02  0.32199361106E+03  0.36742998342E+03  0.11931824424E+03 0.  0.
        254    2    1    2    0    0 -0.92754491820E+02 -0.92112257561E+02  0.42695801018E+04  0.43648858713E+04  0.89767831661E+03 0.  0.
         23    2    4    4    0    0 -0.43006334381E+03  0.31793801375E+02  0.32492008644E+04  0.32792248942E+04  0.10022137647E+03 0.  0.
         23    2    4    4    0    0  0.33730885199E+03 -0.12390605894E+03  0.10203792375E+04  0.10856609771E+04  0.91411136867E+02 0.  0.
          3    1    3    3  502    0 -0.22177049554E+02  0.21101254345E+02  0.19922081968E+02  0.36523606227E+02  0.00000000000E+00 0. -1.
         -3    1    3    3    0  502  0.11493154137E+03  0.71011003216E+02  0.30207152909E+03  0.33090637719E+03  0.00000000000E+00 0.  1.
         13    1    5    5    0    0 -0.17009077204E+03 -0.36356936762E+02  0.12551833665E+04  0.12671771704E+04  0.00000000000E+00 0. -1.
        -13    1    5    5    0    0 -0.25997257177E+03  0.68150738137E+02  0.19940174978E+04  0.20120477238E+04  0.00000000000E+00 0.  1.
          3    1    6    6  503    0  0.36739846095E+02 -0.48240775773E+02  0.15394859657E+03  0.16546044580E+03  0.00000000000E+00 0. -1.
         -3    1    6    6    0  503  0.30056900589E+03 -0.75665283163E+02  0.86643064090E+03  0.92020053134E+03  0.00000000000E+00 0.  1.
<mgrwt>
<rscale>  0 0.11455410E+04</rscale>
<asrwt>0</asrwt>
<pdfrwt beam="1">  1        2 0.71722203E+00 0.11455410E+04</pdfrwt>
<pdfrwt beam="2">  1       -2 0.10826322E-01 0.11455410E+04</pdfrwt>
<totfact> 0.54061754E+00</totfact>
</mgrwt>
</event>
<event>
12    3  0.4769008E-008  0.1290393E+04  0.7818608E-02  0.9037219E-01
          1   -1    0    0  501    0  0.00000000000E+00  0.00000000000E+00  0.53677047628E+03  0.53677047628E+03  0.00000000000E+00 0. -1.
         -1   -1    0    0    0  501 -0.00000000000E+00 -0.00000000000E+00 -0.77552373232E+03  0.77552373232E+03  0.00000000000E+00 0.  1.
         23    2    1    2    0    0 -0.11542855111E+03 -0.17931973445E+02 -0.36370226957E+03  0.39357254362E+03  0.94734893855E+02 0.  0.
        254    2    1    2    0    0  0.11542855111E+03  0.17931973445E+02  0.12494901353E+03  0.91872166498E+03  0.90265826072E+03 0.  0.
         23    2    4    4    0    0 -0.38257575353E+03 -0.51509073964E+02  0.19493602245E+02  0.39711374295E+03  0.91114940714E+02 0.  0.
         23    2    4    4    0    0  0.49800430464E+03  0.69441047409E+02  0.10545541129E+03  0.52160792203E+03  0.90131204649E+02 0.  0.
          1    1    3    3  502    0 -0.11522678179E+02 -0.28128947451E+02 -0.25677280625E+02  0.39791111287E+02  0.00000000000E+00 0. -1.
         -1    1    3    3    0  502 -0.10390587293E+03  0.10196974006E+02 -0.33802498895E+03  0.35378143233E+03  0.00000000000E+00 0.  1.
         13    1    5    5    0    0 -0.14096045209E+03 -0.60653516792E+02  0.23780202246E+02  0.15528746302E+03  0.00000000000E+00 0. -1.
        -13    1    5    5    0    0 -0.24161530144E+03  0.91444428273E+01 -0.42866000007E+01  0.24182627993E+03  0.00000000000E+00 0.  1.
          1    1    6    6  503    0  0.72710258591E+02 -0.10565288448E+02  0.40825807876E+02  0.84054468132E+02  0.00000000000E+00 0. -1.
         -1    1    6    6    0  503  0.42529404605E+03  0.80006335857E+02  0.64629603413E+02  0.43755345390E+03  0.00000000000E+00 0.  1.
<mgrwt>
<rscale>  0 0.12903926E+04</rscale>
<asrwt>0</asrwt>
<pdfrwt beam="1">  1        1 0.82580073E-01 0.12903926E+04</pdfrwt>
<pdfrwt beam="2">  1       -1 0.11931134E+00 0.12903926E+04</pdfrwt>
<totfact> 0.24794062E+01</totfact>
</mgrwt>
</event>
<event>
12    3  0.4769008E-008  0.2656043E+04  0.7818608E-02  0.8349410E-01
          2   -1    0    0  501    0  0.00000000000E+00  0.00000000000E+00  0.31373078432E+04  0.31373078432E+04  0.00000000000E+00 0. -1.
         -2   -1    0    0    0  501 -0.00000000000E+00 -0.00000000000E+00 -0.56215125362E+03  0.56215125362E+03  0.00000000000E+00 0.  1.
         23    2    1    2    0    0 -0.52153461043E+03  0.99430701411E+03  0.68614794558E+03  0.13190853539E+04  0.92424993155E+02 0.  0.
        254    2    1    2    0    0  0.52153461043E+03 -0.99430701411E+03  0.18890086440E+04  0.23803737429E+04  0.91497579798E+03 0.  0.
         23    2    4    4    0    0  0.50409294724E+03 -0.90736931560E+02  0.88062280950E+03  0.10231574420E+04  0.94930123535E+02 0.  0.
         23    2    4    4    0    0  0.17441663188E+02 -0.90357008255E+03  0.10083858345E+04  0.13572163009E+04  0.91929269549E+02 0.  0.
          4    1    3    3  502    0 -0.79359419175E+01  0.50614771317E+02  0.43072342928E+02  0.66933257615E+02  0.00000000000E+00 0. -1.
         -4    1    3    3    0  502 -0.51359866851E+03  0.94369224280E+03  0.64307560265E+03  0.12521520962E+04  0.00000000000E+00 0.  1.
         13    1    5    5    0    0  0.46627316690E+03 -0.10058082988E+03  0.76935324512E+03  0.90522460488E+03  0.00000000000E+00 0. -1.
        -13    1    5    5    0    0  0.37819780344E+02  0.98438983189E+01  0.11126956438E+03  0.11793283715E+03  0.00000000000E+00 0.  1.
          1    1    6    6  503    0  0.12667929747E+02 -0.76832230912E+03  0.90292698139E+03  0.11856461449E+04  0.00000000000E+00 0. -1.
         -1    1    6    6    0  503  0.47737334411E+01 -0.13524777343E+03  0.10545885309E+03  0.17157015604E+03  0.00000000000E+00 0.  1.
<mgrwt>
<rscale>  0 0.26560433E+04</rscale>
<asrwt>0</asrwt>
<pdfrwt beam="1">  1        2 0.48266273E+00 0.26560433E+04</pdfrwt>
<pdfrwt beam="2">  1       -2 0.86484810E-01 0.26560433E+04</pdfrwt>
<totfact> 0.14520623E+00</totfact>
</mgrwt>
</event>
<event>
12    3  0.4769008E-008  0.1292715E+04  0.7818608E-02  0.9035362E-01
          2   -1    0    0  501    0  0.00000000000E+00  0.00000000000E+00  0.83040023055E+03  0.83040023055E+03  0.00000000000E+00 0. -1.
         -2   -1    0    0    0  501 -0.00000000000E+00 -0.00000000000E+00 -0.50310469672E+03  0.50310469672E+03  0.00000000000E+00 0.  1.
         23    2    1    2    0    0 -0.14763232413E+03 -0.27624069726E+03  0.17977447918E+03  0.37260072351E+03  0.91696291351E+02 0.  0.
        254    2    1    2    0    0  0.14763232413E+03  0.27624069726E+03  0.14752105465E+03  0.96090420375E+03  0.89636499334E+03 0.  0.
         23    2    4    4    0    0 -0.27959125059E+03  0.39815961549E+03  0.77016516854E+02  0.50173994500E+03  0.95441509413E+02 0.  0.
         23    2    4    4    0    0  0.42722357473E+03 -0.12191891824E+03  0.70504537796E+02  0.45916425876E+03  0.92069111230E+02 0.  0.
          1    1    3    3  502    0 -0.65002921193E+02 -0.17248343891E+03  0.14753774525E+03  0.23610019639E+03  0.00000000000E+00 0. -1.
         -1    1    3    3    0  502 -0.82629402940E+02 -0.10375725835E+03  0.32236733927E+02  0.13650052712E+03  0.00000000000E+00 0.  1.
         13    1    5    5    0    0 -0.20897300313E+03  0.28874678321E+03  0.13092924203E+02  0.35667330362E+03  0.00000000000E+00 0. -1.
        -13    1    5    5    0    0 -0.70618247468E+02  0.10941283228E+03  0.63923592650E+02  0.14506664138E+03  0.00000000000E+00 0.  1.
          4    1    6    6  503    0  0.32684886818E+03 -0.11447188589E+03  0.87234286775E+02  0.35713277093E+03  0.00000000000E+00 0. -1.
         -4    1    6    6    0  503  0.10037470655E+03 -0.74470323468E+01 -0.16729748978E+02  0.10203148782E+03  0.00000000000E+00 0.  1.
<mgrwt>
<rscale>  0 0.12927154E+04</rscale>
<asrwt>0</asrwt>
<pdfrwt beam="1">  1        2 0.12775388E+00 0.12927154E+04</pdfrwt>
<pdfrwt beam="2">  1       -2 0.77400723E-01 0.12927154E+04</pdfrwt>
<totfact> 0.47846726E+01</totfact>
</mgrwt>
</event>
<event>
12    3  0.4769008E-008  0.2566352E+04  0.7818608E-02  0.8379721E-01
         -2   -1    0    0    0  501 -0.00000000000E+00  0.00000000000E+00  0.62255567175E+03  0.62255567175E+03  0.00000000000E+00 0.  1.
          2   -1    0    0  501    0  0.00000000000E+00 -0.00000000000E+00 -0.26448096867E+04  0.26448096867E+04  0.00000000000E+00 0. -1.
         23    2    1    2    0    0 -0.72636528522E+03 -0.58111774203E+03 -0.75860579446E+02  0.93761460603E+03  0.89788441646E+02 0.  0.
        254    2    1    2    0    0  0.72636528522E+03  0.58111774203E+03 -0.19463934355E+04  0.23297507524E+04  0.87976519877E+03 0.  0.
         23    2    4    4    0    0 -0.12486632306E+03  0.28016925853E+03 -0.25114880406E+03  0.40730105475E+03  0.93445253240E+02 0.  0.
         23    2    4    4    0    0  0.85123160829E+03  0.30094848349E+03 -0.16952446314E+04  0.19224496977E+04  0.82421107822E+02 0.  0.
          1    1    3    3  502    0 -0.88036720563E+01 -0.18032450817E+02 -0.11732287057E+02  0.23244794766E+02  0.00000000000E+00 0. -1.
         -1    1    3    3    0  502 -0.71756161317E+03 -0.56308529121E+03 -0.64128292389E+02  0.91436981127E+03  0.00000000000E+00 0.  1.
         13    1    5    5    0    0 -0.13727060329E+03  0.26119342318E+03 -0.21682826676E+03  0.36616897753E+03  0.00000000000E+00 0.  1.
        -13    1    5    5    0    0  0.12404280226E+02  0.18975835350E+02 -0.34320537303E+02  0.41132077214E+02  0.00000000000E+00 0. -1.
          3    1    6    6  503    0  0.81061779085E+02  0.84738140974E+01 -0.18390820491E+03  0.20115925379E+03  0.00000000000E+00 0. -1.
         -3    1    6    6    0  503  0.77016982920E+03  0.29247466940E+03 -0.15113364265E+04  0.17212904439E+04  0.00000000000E+00 0.  1.
<mgrwt>
<rscale>  0 0.25663525E+04</rscale>
<asrwt>0</asrwt>
<pdfrwt beam="1">  1        2 0.40689380E+00 0.25663525E+04</pdfrwt>
<pdfrwt beam="2">  1       -2 0.95777795E-01 0.25663525E+04</pdfrwt>
<totfact> 0.23221625E+00</totfact>
</mgrwt>
</event>
<event>
12    3  0.4769008E-008  0.1664253E+04  0.7818608E-02  0.8782019E-01
         -4   -1    0    0    0  501 -0.00000000000E+00  0.00000000000E+00  0.13482068524E+04  0.13482068524E+04  0.00000000000E+00 0.  1.
          4   -1    0    0  501    0  0.00000000000E+00 -0.00000000000E+00 -0.51359665414E+03  0.51359665414E+03  0.00000000000E+00 0. -1.
         23    2    1    2    0    0 -0.57645633829E+03  0.12650706951E+03  0.31356524186E+03  0.67496310078E+03  0.94583708554E+02 0.  0.
        254    2    1    2    0    0  0.57645633829E+03 -0.12650706951E+03  0.52104495643E+03  0.11868404058E+04  0.88814207962E+03 0.  0.
         23    2    4    4    0    0 -0.11231764381E+03  0.15713052779E+03 -0.77862796442E+02  0.22685995603E+03  0.89986491782E+02 0.  0.
         23    2    4    4    0    0  0.68877398210E+03 -0.28363759730E+03  0.59890775287E+03  0.95998044975E+03  0.89510236528E+02 0.  0.
          4    1    3    3  502    0 -0.26423780679E+02 -0.14135310334E+02  0.16565627718E+02  0.34240958008E+02  0.00000000000E+00 0. -1.
         -4    1    3    3    0  502 -0.55003255761E+03  0.14064237984E+03  0.29699961414E+03  0.64072214277E+03  0.00000000000E+00 0.  1.
         13    1    5    5    0    0 -0.70162081326E+02  0.41150084939E+02 -0.74749962757E+00  0.81342522103E+02  0.00000000000E+00 0. -1.
        -13    1    5    5    0    0 -0.42155562483E+02  0.11598044285E+03 -0.77115296814E+02  0.14551743392E+03  0.00000000000E+00 0.  1.
          1    1    6    6  503    0  0.74840188079E+02 -0.13857970821E+02  0.34874285030E+02  0.83721639159E+02  0.00000000000E+00 0. -1.
         -1    1    6    6    0  503  0.61393379402E+03 -0.26977962648E+03  0.56403346784E+03  0.87625881060E+03  0.00000000000E+00 0.  1.
<mgrwt>
<rscale>  0 0.16642530E+04</rscale>
<asrwt>0</asrwt>
<pdfrwt beam="1">  1        4 0.79014870E-01 0.16642530E+04</pdfrwt>
<pdfrwt beam="2">  1       -4 0.20741644E+00 0.16642530E+04</pdfrwt>
<totfact> 0.32049811E-01</totfact>
</mgrwt>
</event>
<event>
12    3  0.4769008E-008  0.1597680E+04  0.7818608E-02  0.8821974E-01
         -1   -1    0    0    0  501 -0.00000000000E+00  0.00000000000E+00  0.19263544787E+04  0.19263544787E+04  0.00000000000E+00 0.  1.
          1   -1    0    0  501    0  0.00000000000E+00 -0.00000000000E+00 -0.33127118196E+03  0.33127118196E+03  0.00000000000E+00 0. -1.
         23    2    1    2    0    0 -0.31235847012E+03  0.27069842543E+02 -0.81397669091E+02  0.33720558618E+03  0.93709319625E+02 0.  0.
        254    2    1    2    0    0  0.31235847012E+03 -0.27069842543E+02  0.16764809659E+04  0.19204200745E+04  0.88268014789E+03 0.  0.
         23    2    4    4    0    0  0.11446398929E+03  0.41398357778E+03  0.68028581501E+03  0.80939256798E+03  0.88561455920E+02 0.  0.
         23    2    4    4    0    0  0.19789448083E+03 -0.44105342032E+03  0.99619515084E+03  0.11110275065E+04  0.91032942313E+02 0.  0.
          2    1    3    3  502    0 -0.23757791356E+03  0.46203752021E+02 -0.92736877123E+02  0.25918753845E+03  0.00000000000E+00 0. -1.
         -2    1    3    3    0  502 -0.74780556563E+02 -0.19133909478E+02  0.11339208032E+02  0.78018047723E+02  0.00000000000E+00 0.  1.
         13    1    5    5    0    0  0.32314170973E+02  0.38787706576E+02  0.11907619396E+03  0.12933611946E+03  0.00000000000E+00 0. -1.
        -13    1    5    5    0    0  0.82149818317E+02  0.37519587120E+03  0.56120962105E+03  0.68005644852E+03  0.00000000000E+00 0.  1.
          3    1    6    6  503    0  0.10925492973E+03 -0.14104180487E+03  0.33425196090E+03  0.37888494792E+03  0.00000000000E+00 0. -1.
         -3    1    6    6    0  503  0.88639551100E+02 -0.30001161545E+03  0.66194318994E+03  0.73214255861E+03  0.00000000000E+00 0.  1.
<mgrwt>
<rscale>  0 0.15976805E+04</rscale>
<asrwt>0</asrwt>
<pdfrwt beam="1">  1        1 0.50964798E-01 0.15976805E+04</pdfrwt>
<pdfrwt beam="2">  1       -1 0.29636222E+00 0.15976805E+04</pdfrwt>
<totfact> 0.25812741E+00</totfact>
</mgrwt>
</event>
<event>
12    3  0.4769008E-008  0.1855087E+04  0.7818608E-02  0.8677541E-01
          1   -1    0    0  501    0  0.00000000000E+00  0.00000000000E+00  0.69888835334E+03  0.69888835334E+03  0.00000000000E+00 0. -1.
         -1   -1    0    0    0  501 -0.00000000000E+00 -0.00000000000E+00 -0.12310075243E+04  0.12310075243E+04  0.00000000000E+00 0.  1.
         23    2    1    2    0    0 -0.14349941456E+03 -0.64026343422E+03  0.58168027088E+02  0.66519752827E+03  0.92600675325E+02 0.  0.
        254    2    1    2    0    0  0.14349941456E+03  0.64026343422E+03 -0.59028719802E+03  0.12646983493E+04  0.90581101312E+03 0.  0.
         23    2    4    4    0    0  0.21849393450E+03 -0.14835805348E+03 -0.12040574048E+02  0.27970361555E+03  0.91320455992E+02 0.  0.
         23    2    4    4    0    0 -0.74994519943E+02  0.78862148770E+03 -0.57824662397E+03  0.98499473378E+03  0.91090277046E+02 0.  0.
          2    1    3    3  502    0 -0.87465276586E+02 -0.28003959556E+03  0.65349015975E+02  0.30057086283E+03  0.00000000000E+00 0. -1.
         -2    1    3    3    0  502 -0.56034137974E+02 -0.36022383865E+03 -0.71809888875E+01  0.36462666545E+03  0.00000000000E+00 0.  1.
         13    1    5    5    0    0  0.91478261578E+02 -0.52841788739E+02 -0.49132868296E+02  0.11650993831E+03  0.00000000000E+00 0.  1.
        -13    1    5    5    0    0  0.12701567293E+03 -0.95516264739E+02  0.37092294248E+02  0.16319367724E+03  0.00000000000E+00 0. -1.
          1    1    6    6  503    0 -0.68810426547E+00  0.47319545816E+03 -0.35235032966E+03  0.58997048225E+03  0.00000000000E+00 0. -1.
         -1    1    6    6    0  503 -0.74306415678E+02  0.31542602953E+03 -0.22589629431E+03  0.39502425153E+03  0.00000000000E+00 0.  1.
<mgrwt>
<rscale>  0 0.18550869E+04</rscale>
<asrwt>0</asrwt>
<pdfrwt beam="1">  1        1 0.10752129E+00 0.18550869E+04</pdfrwt>
<pdfrwt beam="2">  1       -1 0.18938577E+00 0.18550869E+04</pdfrwt>
<totfact> 0.45769222E+00</totfact>
</mgrwt>
</event>
<event>
12    3  0.4769008E-008  0.2449450E+04  0.7818608E-02  0.8421219E-01
          2   -1    0    0  501    0  0.00000000000E+00  0.00000000000E+00  0.15507160686E+04  0.15507160686E+04  0.00000000000E+00 0. -1.
         -2   -1    0    0    0  501 -0.00000000000E+00 -0.00000000000E+00 -0.96726361044E+03  0.96726361044E+03  0.00000000000E+00 0.  1.
         23    2    1    2    0    0 -0.23558393185E+02 -0.87110389510E+03 -0.35136265204E+03  0.94410776338E+03  0.92232107670E+02 0.  0.
        254    2    1    2    0    0  0.23558393185E+02  0.87110389510E+03  0.93481511018E+03  0.15738719156E+04  0.91859486316E+03 0.  0.
         23    2    4    4    0    0  0.40054152142E+03  0.51732839015E+03  0.79050735512E+03  0.10299726918E+04  0.88767639166E+02 0.  0.
         23    2    4    4    0    0 -0.37698312823E+03  0.35377550495E+03  0.14430775506E+03  0.54389922381E+03  0.87910469304E+02 0.  0.
          1    1    3    3  502    0 -0.16654664396E+02 -0.13524952220E+03 -0.22645693261E+02  0.13813992371E+03  0.00000000000E+00 0. -1.
         -1    1    3    3    0  502 -0.69037287891E+01 -0.73585437290E+03 -0.32871695878E+03  0.80596783967E+03  0.00000000000E+00 0.  1.
         13    1    5    5    0    0  0.18767797145E+03  0.21888699161E+03  0.28381556917E+03  0.40458103437E+03  0.00000000000E+00 0.  1.
        -13    1    5    5    0    0  0.21286354996E+03  0.29844139853E+03  0.50669178594E+03  0.62539165745E+03  0.00000000000E+00 0. -1.
          3    1    6    6  503    0 -0.38040078230E+03  0.35539362056E+03  0.14269375081E+03  0.53978781685E+03  0.00000000000E+00 0. -1.
         -3    1    6    6    0  503  0.34176540643E+01 -0.16181156058E+01  0.16140042513E+01  0.41114069538E+01  0.00000000000E+00 0.  1.
<mgrwt>
<rscale>  0 0.24494499E+04</rscale>
<asrwt>0</asrwt>
<pdfrwt beam="1">  1        2 0.23857170E+00 0.24494499E+04</pdfrwt>
<pdfrwt beam="2">  1       -2 0.14880979E+00 0.24494499E+04</pdfrwt>
<totfact> 0.32578037E+00</totfact>
</mgrwt>
</event>
<event>
12    3  0.4769008E-008  0.1444808E+04  0.7818608E-02  0.8922008E-01
         -2   -1    0    0    0  501 -0.00000000000E+00  0.00000000000E+00  0.66059405449E+03  0.66059405449E+03  0.00000000000E+00 0.  1.
          2   -1    0    0  501    0  0.00000000000E+00 -0.00000000000E+00 -0.78999736582E+03  0.78999736582E+03  0.00000000000E+00 0. -1.
         23    2    1    2    0    0 -0.10679377153E+03 -0.32469457862E+03 -0.30726002214E+03  0.46853309497E+03  0.91011322673E+02 0.  0.
        254    2    1    2    0    0  0.10679377153E+03  0.32469457862E+03  0.17785671081E+03  0.98205832534E+03  0.90331282830E+03 0.  0.
         23    2    4    4    0    0  0.20827597952E+03  0.60951383018E+03  0.11123175904E+03  0.65954146528E+03  0.87957076906E+02 0.  0.
         23    2    4    4    0    0 -0.10148220800E+03 -0.28481925156E+03  0.66624951767E+02  0.32251686006E+03  0.90319412210E+02 0.  0.
          4    1    3    3  502    0 -0.11812734870E+03 -0.31517667702E+03 -0.28132880400E+03  0.43867562527E+03  0.00000000000E+00 0. -1.
         -4    1    3    3    0  502  0.11333577174E+02 -0.95179015990E+01 -0.25931218144E+02  0.29857469699E+02  0.00000000000E+00 0.  1.
         13    1    5    5    0    0  0.17115074876E+03  0.52354709892E+03  0.12520729774E+03  0.56486371011E+03  0.00000000000E+00 0.  1.
        -13    1    5    5    0    0  0.37125230757E+02  0.85966731264E+02 -0.13975538700E+02  0.94677755175E+02  0.00000000000E+00 0. -1.
          1    1    6    6  503    0 -0.68340812983E+02 -0.10222396271E+03  0.59995811280E+02  0.13681996434E+03  0.00000000000E+00 0. -1.
         -1    1    6    6    0  503 -0.33141395014E+02 -0.18259528885E+03  0.66291404871E+01  0.18569689571E+03  0.00000000000E+00 0.  1.
<mgrwt>
<rscale>  0 0.14448080E+04</rscale>
<asrwt>0</asrwt>
<pdfrwt beam="1">  1        2 0.12153806E+00 0.14448080E+04</pdfrwt>
<pdfrwt beam="2">  1       -2 0.10162985E+00 0.14448080E+04</pdfrwt>
<totfact> 0.27014495E+01</totfact>
</mgrwt>
</event>
<event>
12    3  0.4769008E-008  0.1906901E+04  0.7818608E-02  0.8651429E-01
          2   -1    0    0  501    0  0.00000000000E+00  0.00000000000E+00  0.11551771733E+04  0.11551771733E+04  0.00000000000E+00 0. -1.
         -2   -1    0    0    0  501 -0.00000000000E+00 -0.00000000000E+00 -0.78695065591E+03  0.78695065591E+03  0.00000000000E+00 0.  1.
         23    2    1    2    0    0  0.19041785794E+03  0.64204692773E+03  0.47580876465E+03  0.82644565733E+03  0.90195487518E+02 0.  0.
        254    2    1    2    0    0 -0.19041785794E+03 -0.64204692773E+03 -0.10758224723E+03  0.11156821719E+04  0.88582704336E+03 0.  0.
         23    2    4    4    0    0 -0.41615032796E+01 -0.81761567964E+03 -0.63267593107E+00  0.82360550974E+03  0.99060172071E+02 0.  0.
         23    2    4    4    0    0 -0.18625635466E+03  0.17556875191E+03 -0.10694957130E+03  0.29207666217E+03  0.91404318743E+02 0.  0.
          3    1    3    3  502    0  0.12824569162E+03  0.53139699330E+03  0.35932216340E+03  0.65417286631E+03  0.00000000000E+00 0. -1.
         -3    1    3    3    0  502  0.62172166319E+02  0.11064993443E+03  0.11648660124E+03  0.17227279101E+03  0.00000000000E+00 0.  1.
         13    1    5    5    0    0 -0.11881398681E+02 -0.62770290464E+02 -0.24298447311E+02  0.68349773527E+02  0.00000000000E+00 0. -1.
        -13    1    5    5    0    0  0.77198954009E+01 -0.75484538917E+03  0.23665771380E+02  0.75525573621E+03  0.00000000000E+00 0.  1.
          1    1    6    6  503    0 -0.72040835986E+02  0.13497205375E+02 -0.34164851052E+02  0.80865899179E+02  0.00000000000E+00 0. -1.
         -1    1    6    6    0  503 -0.11421551867E+03  0.16207154653E+03 -0.72784720245E+02  0.21121076299E+03  0.00000000000E+00 0.  1.
<mgrwt>
<rscale>  0 0.19069006E+04</rscale>
<asrwt>0</asrwt>
<pdfrwt beam="1">  1        2 0.17771957E+00 0.19069006E+04</pdfrwt>
<pdfrwt beam="2">  1       -2 0.12106933E+00 0.19069006E+04</pdfrwt>
<totfact> 0.98008496E+00</totfact>
</mgrwt>
</event>
<event>
12    3  0.4769008E-008  0.2285604E+04  0.7818608E-02  0.8483619E-01
          1   -1    0    0  501    0  0.00000000000E+00  0.00000000000E+00  0.21979377681E+04  0.21979377681E+04  0.00000000000E+00 0. -1.
         -1   -1    0    0    0  501 -0.00000000000E+00 -0.00000000000E+00 -0.59419160969E+03  0.59419160969E+03  0.00000000000E+00 0.  1.
         23    2    1    2    0    0 -0.54751611694E+03  0.37742857733E+03 -0.19193941488E+03  0.69918967864E+03  0.98991102803E+02 0.  0.
        254    2    1    2    0    0  0.54751611694E+03 -0.37742857733E+03  0.17956855733E+04  0.20929396992E+04  0.84479800951E+03 0.  0.
         23    2    4    4    0    0  0.55227989775E+02 -0.43276613311E+03  0.36715371903E+03  0.57828821106E+03  0.96326241634E+02 0.  0.
         23    2    4    4    0    0  0.49228812716E+03  0.55337555777E+02  0.14285318543E+04  0.15146514881E+04  0.89755370468E+02 0.  0.
          3    1    3    3  502    0 -0.89927539623E+02  0.71124566707E+02  0.39955261355E+01  0.11472415003E+03  0.00000000000E+00 0. -1.
         -3    1    3    3    0  502 -0.45758857732E+03  0.30630401063E+03 -0.19593494102E+03  0.58446552860E+03  0.00000000000E+00 0.  1.
         13    1    5    5    0    0  0.71322956275E+01 -0.28860571686E+03  0.19358690045E+03  0.34759173965E+03  0.00000000000E+00 0. -1.
        -13    1    5    5    0    0  0.48095694147E+02 -0.14416041625E+03  0.17356681858E+03  0.23069647141E+03  0.00000000000E+00 0.  1.
          2    1    6    6  503    0  0.11364847181E+03  0.41966484789E+02  0.27531204516E+03  0.30078876841E+03  0.00000000000E+00 0.  1.
         -2    1    6    6    0  503  0.37863965536E+03  0.13371070989E+02  0.11532198091E+04  0.12138627197E+04  0.00000000000E+00 0. -1.
<mgrwt>
<rscale>  0 0.22856038E+04</rscale>
<asrwt>0</asrwt>
<pdfrwt beam="1">  1        1 0.33814427E+00 0.22856038E+04</pdfrwt>
<pdfrwt beam="2">  1       -1 0.91414095E-01 0.22856038E+04</pdfrwt>
<totfact> 0.23077013E+00</totfact>
</mgrwt>
</event>
<event>
12    3  0.4769008E-008  0.1975539E+04  0.7818608E-02  0.8618143E-01
         -2   -1    0    0    0  501 -0.00000000000E+00  0.00000000000E+00  0.58882910923E+03  0.58882910923E+03  0.00000000000E+00 0. -1.
          2   -1    0    0  501    0  0.00000000000E+00 -0.00000000000E+00 -0.16569975870E+04  0.16569975870E+04  0.00000000000E+00 0.  1.
         23    2    1    2    0    0 -0.59038531174E+03 -0.29052636609E+03 -0.85528217526E+03  0.10828739550E+04  0.90266369627E+02 0.  0.
        254    2    1    2    0    0  0.59038531174E+03  0.29052636609E+03 -0.21288630251E+03  0.11629527412E+04  0.93497492732E+03 0.  0.
         23    2    4    4    0    0  0.81706661856E+03  0.28317038768E+03 -0.27164540485E+03  0.91094373833E+03  0.90796149709E+02 0.  0.
         23    2    4    4    0    0 -0.22668130683E+03  0.73559784067E+01  0.58759102343E+02  0.25200900285E+03  0.92829845007E+02 0.  0.
          3    1    3    3  502    0 -0.10057406961E+03 -0.72121959808E+02 -0.11657327215E+03  0.17001778832E+03  0.00000000000E+00 0. -1.
         -3    1    3    3    0  502 -0.48981124213E+03 -0.21840440628E+03 -0.73870890311E+03  0.91285616673E+03  0.00000000000E+00 0.  1.
         13    1    5    5    0    0  0.65503664602E+03  0.26431470203E+03 -0.22317082541E+03  0.74077019827E+03  0.00000000000E+00 0. -1.
        -13    1    5    5    0    0  0.16202997255E+03  0.18855685650E+02 -0.48474579439E+02  0.17017354006E+03  0.00000000000E+00 0.  1.
          4    1    6    6  503    0 -0.13792177097E+03  0.37749667952E+01  0.81587417047E+02  0.16029089775E+03  0.00000000000E+00 0. -1.
         -4    1    6    6    0  503 -0.88759535858E+02  0.35810116115E+01 -0.22828314704E+02  0.91718105095E+02  0.00000000000E+00 0.  1.
<mgrwt>
<rscale>  0 0.19755388E+04</rscale>
<asrwt>0</asrwt>
<pdfrwt beam="1">  1        2 0.25492270E+00 0.19755388E+04</pdfrwt>
<pdfrwt beam="2">  1       -2 0.90589095E-01 0.19755388E+04</pdfrwt>
<totfact> 0.10042670E+01</totfact>
</mgrwt>
</event>
<event>
12    3  0.4769008E-008  0.1992323E+04  0.7818608E-02  0.8610218E-01
         -1   -1    0    0    0  501 -0.00000000000E+00  0.00000000000E+00  0.15722944752E+04  0.15722944752E+04  0.00000000000E+00 0.  1.
          1   -1    0    0  501    0  0.00000000000E+00 -0.00000000000E+00 -0.63113998053E+03  0.63113998053E+03  0.00000000000E+00 0. -1.
         23    2    1    2    0    0  0.49871867846E+03 -0.23050006905E+03 -0.25053499260E+03  0.61070573774E+03  0.91340645464E+02 0.  0.
        254    2    1    2    0    0 -0.49871867846E+03  0.23050006905E+03  0.11916894873E+04  0.15927287180E+04  0.90266845131E+03 0.  0.
         23    2    4    4    0    0 -0.65550080245E+03  0.34307068209E+03  0.57948526839E+03  0.94423929145E+03  0.91683522663E+02 0.  0.
         23    2    4    4    0    0  0.15678212398E+03 -0.11257061304E+03  0.61220421889E+03  0.64848942656E+03  0.92150710284E+02 0.  0.
          4    1    3    3  502    0  0.21445624954E+03 -0.64896717545E+02 -0.13729412903E+03  0.26277888953E+03  0.00000000000E+00 0. -1.
         -4    1    3    3    0  502  0.28426242892E+03 -0.16560335150E+03 -0.11324086357E+03  0.34792684821E+03  0.00000000000E+00 0.  1.
         13    1    5    5    0    0 -0.11196750069E+03  0.23936075154E+02  0.74548875925E+02  0.13662793202E+03  0.00000000000E+00 0. -1.
        -13    1    5    5    0    0 -0.54353330175E+03  0.31913460693E+03  0.50493639246E+03  0.80761135944E+03  0.00000000000E+00 0.  1.
          3    1    6    6  503    0  0.16977931337E+02 -0.19995483990E+02  0.22519491850E+03  0.22671749128E+03  0.00000000000E+00 0. -1.
         -3    1    6    6    0  503  0.13980419265E+03 -0.92575129047E+02  0.38700930039E+03  0.42177193528E+03  0.00000000000E+00 0.  1.
<mgrwt>
<rscale>  0 0.19923232E+04</rscale>
<asrwt>0</asrwt>
<pdfrwt beam="1">  1        1 0.97098459E-01 0.19923232E+04</pdfrwt>
<pdfrwt beam="2">  1       -1 0.24189146E+00 0.19923232E+04</pdfrwt>
<totfact> 0.23263329E+00</totfact>
</mgrwt>
</event>
<event>
12    3  0.4769008E-008  0.1396972E+04  0.7818608E-02  0.8956013E-01
         -2   -1    0    0    0  501 -0.00000000000E+00  0.00000000000E+00  0.12866779704E+03  0.12866779704E+03  0.00000000000E+00 0.  1.
          2   -1    0    0  501    0  0.00000000000E+00 -0.00000000000E+00 -0.37918002833E+04  0.37918002833E+04  0.00000000000E+00 0. -1.
         23    2    1    2    0    0 -0.22462005466E+03 -0.13298497308E+03 -0.20344650816E+04  0.20535991723E+04  0.10041025811E+03 0.  0.
        254    2    1    2    0    0  0.22462005466E+03  0.13298497308E+03 -0.16286674046E+04  0.18668689081E+04  0.87435852656E+03 0.  0.
         23    2    4    4    0    0 -0.33975363507E+02 -0.30911729432E+03 -0.30711103411E+03  0.44655314831E+03  0.91568007597E+02 0.  0.
         23    2    4    4    0    0  0.25859541817E+03  0.44210226740E+03 -0.13215563705E+04  0.14203157597E+04  0.91976148047E+02 0.  0.
          1    1    3    3  502    0 -0.75146952375E+02 -0.76615523288E+02 -0.11346253050E+04  0.11396892496E+04  0.00000000000E+00 0. -1.
         -1    1    3    3    0  502 -0.14947310229E+03 -0.56369449791E+02 -0.89983977661E+03  0.91390992267E+03  0.00000000000E+00 0.  1.
         13    1    5    5    0    0 -0.20042810607E+02 -0.63162865019E+01 -0.21756994268E+02  0.30248579004E+02  0.00000000000E+00 0. -1.
        -13    1    5    5    0    0 -0.13932552901E+02 -0.30280100782E+03 -0.28535403984E+03  0.41630456930E+03  0.00000000000E+00 0.  1.
          2    1    6    6  503    0  0.18265879185E+03  0.23057539007E+03 -0.69584736486E+03  0.75546859626E+03  0.00000000000E+00 0. -1.
         -2    1    6    6    0  503  0.75936626319E+02  0.21152687733E+03 -0.62570900565E+03  0.66484716349E+03  0.00000000000E+00 0.  1.
<mgrwt>
<rscale>  0 0.13969719E+04</rscale>
<asrwt>0</asrwt>
<pdfrwt beam="1">  1        2 0.58335381E+00 0.13969719E+04</pdfrwt>
<pdfrwt beam="2">  1       -2 0.19795049E-01 0.13969719E+04</pdfrwt>
<totfact> 0.10806841E+01</totfact>
</mgrwt>
</event>
<event>
12    3  0.4769008E-008  0.1553716E+04  0.7818608E-02  0.8849498E-01
          2   -1    0    0  501    0  0.00000000000E+00  0.00000000000E+00  0.22158051825E+04  0.22158051825E+04  0.00000000000E+00 0. -1.
         -2   -1    0    0    0  501 -0.00000000000E+00 -0.00000000000E+00 -0.27236524522E+03  0.27236524522E+03  0.00000000000E+00 0.  1.
         23    2    1    2    0    0 -0.73571703187E+02  0.39567020362E+03  0.11465717789E+04  0.12183776273E+04  0.88597364972E+02 0.  0.
        254    2    1    2    0    0  0.73571703187E+02 -0.39567020362E+03  0.79686815840E+03  0.12697928004E+04  0.90299899697E+03 0.  0.
         23    2    4    4    0    0 -0.35466421782E+03 -0.24874975349E+03  0.64746517060E+03  0.78437346853E+03  0.91473732468E+02 0.  0.
         23    2    4    4    0    0  0.42823592100E+03 -0.14692045013E+03  0.14940298781E+03  0.48541933187E+03  0.91318411543E+02 0.  0.
          3    1    3    3  502    0 -0.62140728688E+02  0.33795028559E+03  0.10548416286E+04  0.11093974613E+04  0.00000000000E+00 0. -1.
         -3    1    3    3    0  502 -0.11430974500E+02  0.57719918030E+02  0.91730150230E+02  0.10898016598E+03  0.00000000000E+00 0.  1.
         13    1    5    5    0    0 -0.21798645247E+03 -0.13093841345E+03  0.30348272863E+03  0.39593525753E+03  0.00000000000E+00 0. -1.
        -13    1    5    5    0    0 -0.13667776535E+03 -0.11781134004E+03  0.34398244197E+03  0.38843821100E+03  0.00000000000E+00 0.  1.
          3    1    6    6  503    0  0.37608533923E+03 -0.12898017744E+03  0.16119603518E+03  0.42902241237E+03  0.00000000000E+00 0. -1.
         -3    1    6    6    0  503  0.52150581773E+02 -0.17940272682E+02 -0.11793047371E+02  0.56396919504E+02  0.00000000000E+00 0.  1.
<mgrwt>
<rscale>  0 0.15537160E+04</rscale>
<asrwt>0</asrwt>
<pdfrwt beam="1">  1        2 0.34089309E+00 0.15537160E+04</pdfrwt>
<pdfrwt beam="2">  1       -2 0.41902347E-01 0.15537160E+04</pdfrwt>
<totfact> 0.26301041E+01</totfact>
</mgrwt>
</event>
<event>
12    3  0.4769008E-008  0.2052565E+04  0.7818608E-02  0.8582431E-01
         -1   -1    0    0    0  501 -0.00000000000E+00  0.00000000000E+00  0.13487525146E+04  0.13487525146E+04  0.00000000000E+00 0.  1.
          1   -1    0    0  501    0  0.00000000000E+00 -0.00000000000E+00 -0.78091133548E+03  0.78091133548E+03  0.00000000000E+00 0. -1.
         23    2    1    2    0    0  0.79074778637E+03 -0.79376624086E+02 -0.45461184390E+02  0.80114008133E+03  0.90421239433E+02 0.  0.
        254    2    1    2    0    0 -0.79074778637E+03  0.79376624086E+02  0.61330236349E+03  0.13285237687E+04  0.87020279529E+03 0.  0.
         23    2    4    4    0    0 -0.41179234734E+03  0.46184974467E+03  0.25554868481E+03  0.67580965627E+03  0.92387429992E+02 0.  0.
         23    2    4    4    0    0 -0.37895543902E+03 -0.38247312059E+03  0.35775367868E+03  0.65271411246E+03  0.90305621419E+02 0.  0.
          4    1    3    3  502    0  0.59000383898E+03 -0.27835068750E+02 -0.91675502175E+01  0.59073121218E+03  0.00000000000E+00 0. -1.
         -4    1    3    3    0  502  0.20074394739E+03 -0.51541555337E+02 -0.36293634172E+02  0.21040886916E+03  0.00000000000E+00 0.  1.
         13    1    5    5    0    0 -0.10455089631E+03  0.12852020392E+03  0.26087074076E+02  0.16771663057E+03  0.00000000000E+00 0. -1.
        -13    1    5    5    0    0 -0.30724145103E+03  0.33332954075E+03  0.22946161073E+03  0.50809302570E+03  0.00000000000E+00 0.  1.
          1    1    6    6  503    0 -0.66987989529E+02 -0.12331369342E+03  0.88826208142E+02  0.16608357227E+03  0.00000000000E+00 0. -1.
         -1    1    6    6    0  503 -0.31196744949E+03 -0.25915942716E+03  0.26892747054E+03  0.48663054019E+03  0.00000000000E+00 0.  1.
<mgrwt>
<rscale>  0 0.20525653E+04</rscale>
<asrwt>0</asrwt>
<pdfrwt beam="1">  1        1 0.12014021E+00 0.20525653E+04</pdfrwt>
<pdfrwt beam="2">  1       -1 0.20750039E+00 0.20525653E+04</pdfrwt>
<totfact> 0.28368470E+00</totfact>
</mgrwt>
</event>
<event>
12    3  0.4769008E-008  0.1654268E+04  0.7818608E-02  0.8787886E-01
         -2   -1    0    0    0  501 -0.00000000000E+00  0.00000000000E+00  0.46044843140E+03  0.46044843140E+03  0.00000000000E+00 0.  1.
          2   -1    0    0  501    0  0.00000000000E+00 -0.00000000000E+00 -0.14858346802E+04  0.14858346802E+04  0.00000000000E+00 0. -1.
         23    2    1    2    0    0  0.50790895863E+03 -0.21842517139E+02 -0.68724820240E+03  0.85950022339E+03  0.89341683927E+02 0.  0.
        254    2    1    2    0    0 -0.50790895863E+03  0.21842517139E+02 -0.33813804640E+03  0.10867828882E+04  0.89906123367E+03 0.  0.
         23    2    4    4    0    0 -0.25383842763E+03 -0.35563084569E+03 -0.42311057454E+03  0.61500830272E+03  0.91134013296E+02 0.  0.
         23    2    4    4    0    0 -0.25407053100E+03  0.37747336283E+03  0.84972528146E+02  0.47177458549E+03  0.91175405721E+02 0.  0.
          3    1    3    3  502    0  0.16502069861E+03 -0.47925372195E+02 -0.24613058317E+03  0.30018150549E+03  0.00000000000E+00 0. -1.
         -3    1    3    3    0  502  0.34288826003E+03  0.26082855056E+02 -0.44111761923E+03  0.55931871790E+03  0.00000000000E+00 0.  1.
         13    1    5    5    0    0 -0.19686206279E+03 -0.20337799328E+03 -0.28535875292E+03  0.40192897107E+03  0.00000000000E+00 0.  1.
        -13    1    5    5    0    0 -0.56976364843E+02 -0.15225285241E+03 -0.13775182162E+03  0.21307933166E+03  0.00000000000E+00 0. -1.
          4    1    6    6  503    0 -0.51784875423E+02  0.28391423728E+02 -0.18296171006E+01  0.59085478441E+02  0.00000000000E+00 0. -1.
         -4    1    6    6    0  503 -0.20228565558E+03  0.34908193910E+03  0.86802145247E+02  0.41268910705E+03  0.00000000000E+00 0.  1.
<mgrwt>
<rscale>  0 0.16542675E+04</rscale>
<asrwt>0</asrwt>
<pdfrwt beam="1">  1        2 0.22858995E+00 0.16542675E+04</pdfrwt>
<pdfrwt beam="2">  1       -2 0.70838220E-01 0.16542675E+04</pdfrwt>
<totfact> 0.22361441E+01</totfact>
</mgrwt>
</event>
<event>
12    3  0.4769008E-008  0.1180376E+04  0.7818608E-02  0.9130209E-01
         -2   -1    0    0    0  501 -0.00000000000E+00  0.00000000000E+00  0.29302794465E+03  0.29302794465E+03  0.00000000000E+00 0.  1.
          2   -1    0    0  501    0  0.00000000000E+00 -0.00000000000E+00 -0.11886983313E+04  0.11886983313E+04  0.00000000000E+00 0. -1.
         23    2    1    2    0    0 -0.12510302066E+03 -0.15682456071E+03 -0.45961054785E+02  0.22100815727E+03  0.80544884396E+02 0.  0.
        254    2    1    2    0    0  0.12510302066E+03  0.15682456071E+03 -0.84970933185E+03  0.12607181187E+04  0.90948310456E+03 0.  0.
         23    2    4    4    0    0  0.16181150467E+02  0.51315787446E+03 -0.33868296252E+03  0.62209103948E+03  0.93264562111E+02 0.  0.
         23    2    4    4    0    0  0.10892187019E+03 -0.35633331375E+03 -0.51102636933E+03  0.63862707919E+03  0.88652083030E+02 0.  0.
          4    1    3    3  502    0 -0.54035516644E+02 -0.28162410325E+02  0.13567694186E+02  0.62426282444E+02  0.00000000000E+00 0. -1.
         -4    1    3    3    0  502 -0.71067504014E+02 -0.12866215038E+03 -0.59528748972E+02  0.15858187482E+03  0.00000000000E+00 0.  1.
         13    1    5    5    0    0 -0.77662777468E+01  0.34306108909E+03 -0.17663056398E+03  0.38593986843E+03  0.00000000000E+00 0.  1.
        -13    1    5    5    0    0  0.23947428213E+02  0.17009678538E+03 -0.16205239854E+03  0.23615117105E+03  0.00000000000E+00 0. -1.
          3    1    6    6  503    0 -0.11339443494E+02 -0.15938106571E+02 -0.45455214726E+02  0.49485177231E+02  0.00000000000E+00 0. -1.
         -3    1    6    6    0  503  0.12026131369E+03 -0.34039520718E+03 -0.46557115460E+03  0.58914190196E+03  0.00000000000E+00 0.  1.
<mgrwt>
<rscale>  0 0.11803759E+04</rscale>
<asrwt>0</asrwt>
<pdfrwt beam="1">  1        2 0.18287666E+00 0.11803759E+04</pdfrwt>
<pdfrwt beam="2">  1       -2 0.45081223E-01 0.11803759E+04</pdfrwt>
<totfact> 0.88652613E+01</totfact>
</mgrwt>
</event>
<event>
12    3  0.4769008E-008  0.1665682E+04  0.7818608E-02  0.8781183E-01
         -1   -1    0    0    0  501 -0.00000000000E+00  0.00000000000E+00  0.33062854985E+03  0.33062854985E+03  0.00000000000E+00 0.  1.
          1   -1    0    0  501    0  0.00000000000E+00 -0.00000000000E+00 -0.20978951438E+04  0.20978951438E+04  0.00000000000E+00 0. -1.
         23    2    1    2    0    0  0.32573870846E+03  0.57399740826E+02 -0.13056878995E+04  0.13505598809E+04  0.98947786899E+02 0.  0.
        254    2    1    2    0    0 -0.32573870846E+03 -0.57399740826E+02 -0.46157869444E+03  0.10779638128E+04  0.91626996787E+03 0.  0.
         23    2    4    4    0    0 -0.30357972891E+03  0.38667454510E+03 -0.35378920003E+03  0.61190934378E+03  0.87111373039E+02 0.  0.
         23    2    4    4    0    0 -0.22158979553E+02 -0.44407428592E+03 -0.10778949441E+03  0.46605446898E+03  0.88854944458E+02 0.  0.
          3    1    3    3  502    0  0.29679655058E+03  0.27677213672E+02 -0.12116422757E+04  0.12477705017E+04  0.00000000000E+00 0. -1.
         -3    1    3    3    0  502  0.28942157880E+02  0.29722527154E+02 -0.94045623823E+02  0.10278937923E+03  0.00000000000E+00 0.  1.
         13    1    5    5    0    0 -0.81834220507E+01  0.24820922914E+01 -0.24622008981E+02  0.26064775174E+02  0.00000000000E+00 0.  1.
        -13    1    5    5    0    0 -0.29539630686E+03  0.38419245281E+03 -0.32916719105E+03  0.58584456861E+03  0.00000000000E+00 0. -1.
          3    1    6    6  503    0 -0.11726620481E+01 -0.31040015824E+03 -0.34895803825E+02  0.31235772841E+03  0.00000000000E+00 0. -1.
         -3    1    6    6    0  503 -0.20986317505E+02 -0.13367412769E+03 -0.72893690586E+02  0.15369674057E+03  0.00000000000E+00 0.  1.
<mgrwt>
<rscale>  0 0.16656819E+04</rscale>
<asrwt>0</asrwt>
<pdfrwt beam="1">  1        1 0.32275310E+00 0.16656819E+04</pdfrwt>
<pdfrwt beam="2">  1       -1 0.50865931E-01 0.16656819E+04</pdfrwt>
<totfact> 0.94831438E+00</totfact>
</mgrwt>
</event>
<event>
12    3  0.4769008E-008  0.3167935E+04  0.7818608E-02  0.8197337E-01
          1   -1    0    0  501    0  0.00000000000E+00  0.00000000000E+00  0.13743485583E+04  0.13743485583E+04  0.00000000000E+00 0. -1.
         -1   -1    0    0    0  501 -0.00000000000E+00 -0.00000000000E+00 -0.18255582338E+04  0.18255582338E+04  0.00000000000E+00 0.  1.
         23    2    1    2    0    0  0.21107453429E+03  0.30468750979E+03 -0.16314122599E+04  0.16754893865E+04  0.91497459281E+02 0.  0.
        254    2    1    2    0    0 -0.21107453429E+03 -0.30468750979E+03  0.11802025844E+04  0.15244174055E+04  0.89083295197E+03 0.  0.
         23    2    4    4    0    0 -0.90836597960E+02 -0.28774348097E+02  0.12024318832E+04  0.12095240425E+04  0.89591993092E+02 0.  0.
         23    2    4    4    0    0 -0.12023793633E+03 -0.27591316170E+03 -0.22229298752E+02  0.31489336296E+03  0.89880221313E+02 0.  0.
          4    1    3    3  502    0  0.35161485782E+02  0.71431108648E+01 -0.13663556156E+03  0.14126793974E+03  0.00000000000E+00 0. -1.
         -4    1    3    3    0  502  0.17591304851E+03  0.29754439893E+03 -0.14947766983E+04  0.15342214468E+04  0.00000000000E+00 0.  1.
         13    1    5    5    0    0 -0.89380404466E+02 -0.29601064902E+01  0.11084128779E+04  0.11120147152E+04  0.00000000000E+00 0. -1.
        -13    1    5    5    0    0 -0.14561934940E+01 -0.25814241607E+02  0.94019005242E+02  0.97509327328E+02  0.00000000000E+00 0.  1.
          4    1    6    6  503    0 -0.42380163947E+02 -0.18668790298E+03 -0.38772451045E+02  0.19532474081E+03  0.00000000000E+00 0. -1.
         -4    1    6    6    0  503 -0.77857772386E+02 -0.89225258721E+02  0.16543152293E+02  0.11956862215E+03  0.00000000000E+00 0.  1.
<mgrwt>
<rscale>  0 0.31679352E+04</rscale>
<asrwt>0</asrwt>
<pdfrwt beam="1">  1        1 0.21143824E+00 0.31679352E+04</pdfrwt>
<pdfrwt beam="2">  1       -1 0.28085511E+00 0.31679352E+04</pdfrwt>
<totfact> 0.29524752E-01</totfact>
</mgrwt>
</event>
<event>
12    3  0.4769008E-008  0.2400497E+04  0.7818608E-02  0.8439318E-01
          2   -1    0    0  501    0  0.00000000000E+00  0.00000000000E+00  0.37784055785E+04  0.37784055785E+04  0.00000000000E+00 0. -1.
         -2   -1    0    0    0  501 -0.00000000000E+00 -0.00000000000E+00 -0.38127089566E+03  0.38127089566E+03  0.00000000000E+00 0.  1.
         23    2    1    2    0    0 -0.67920282274E+03 -0.42557100655E+03  0.26440167840E+04  0.27643737577E+04  0.92251624368E+02 0.  0.
        254    2    1    2    0    0  0.67920282274E+03  0.42557100655E+03  0.75311789875E+03  0.13953027164E+04  0.85863609569E+03 0.  0.
         23    2    4    4    0    0  0.11973388335E+03  0.10419555126E+03  0.72007088603E+03  0.74257620578E+03  0.87888706679E+02 0.  0.
         23    2    4    4    0    0  0.55946893939E+03  0.32137545529E+03  0.33047012719E+02  0.65272651058E+03  0.93124192108E+02 0.  0.
          1    1    3    3  502    0 -0.33770122957E+03 -0.20117654550E+03  0.14517884976E+04  0.15040624870E+04  0.00000000000E+00 0. -1.
         -1    1    3    3    0  502 -0.34150159318E+03 -0.22439446105E+03  0.11922282865E+04  0.12603112708E+04  0.00000000000E+00 0.  1.
         13    1    5    5    0    0  0.15819725415E+02  0.24237703738E+02  0.36696492949E+02  0.46737164970E+02  0.00000000000E+00 0. -1.
        -13    1    5    5    0    0  0.10391415794E+03  0.79957847521E+02  0.68337439308E+03  0.69583904081E+03  0.00000000000E+00 0.  1.
          4    1    6    6  503    0  0.22349571974E+03  0.18154913328E+03  0.18152159498E+02  0.28851330200E+03  0.00000000000E+00 0. -1.
         -4    1    6    6    0  503  0.33597321965E+03  0.13982632201E+03  0.14894853221E+02  0.36421320858E+03  0.00000000000E+00 0.  1.
<mgrwt>
<rscale>  0 0.24004967E+04</rscale>
<asrwt>0</asrwt>
<pdfrwt beam="1">  1        2 0.58129314E+00 0.24004967E+04</pdfrwt>
<pdfrwt beam="2">  1       -2 0.58657063E-01 0.24004967E+04</pdfrwt>
<totfact> 0.12499880E+00</totfact>
</mgrwt>
</event>
<event>
12    3  0.4769008E-008  0.2188677E+04  0.7818608E-02  0.8523156E-01
         -2   -1    0    0    0  501 -0.00000000000E+00  0.00000000000E+00  0.44182925646E+03  0.44182925646E+03  0.00000000000E+00 0.  1.
          2   -1    0    0  501    0  0.00000000000E+00 -0.00000000000E+00 -0.27104968604E+04  0.27104968604E+04  0.00000000000E+00 0. -1.
         23    2    1    2    0    0 -0.45071582854E+03  0.79441552074E+03 -0.10261630297E+04  0.13770876581E+04  0.95493858145E+02 0.  0.
        254    2    1    2    0    0  0.45071582854E+03 -0.79441552074E+03 -0.12425045742E+04  0.17752384587E+04  0.87943913414E+03 0.  0.
         23    2    4    4    0    0 -0.24437424971E+03 -0.23998287106E+03 -0.22021376093E+03  0.41736379850E+03  0.91585410852E+02 0.  0.
         23    2    4    4    0    0  0.69509007825E+03 -0.55443264969E+03 -0.10222908133E+04  0.13578746602E+04  0.90550019244E+02 0.  0.
          2    1    3    3  502    0 -0.85478161885E+02  0.20829318431E+03 -0.20922342025E+03  0.30735485415E+03  0.00000000000E+00 0.  1.
         -2    1    3    3    0  502 -0.36523766666E+03  0.58612233643E+03 -0.81693960944E+03  0.10697328040E+04  0.00000000000E+00 0. -1.
         13    1    5    5    0    0 -0.15570811929E+03 -0.15362897788E+03 -0.86666750353E+02  0.23528282316E+03  0.00000000000E+00 0. -1.
        -13    1    5    5    0    0 -0.88666130417E+02 -0.86353893177E+02 -0.13354701057E+03  0.18208097535E+03  0.00000000000E+00 0.  1.
          3    1    6    6  503    0  0.42992520540E+03 -0.30589053317E+03 -0.65612489748E+03  0.84196471519E+03  0.00000000000E+00 0. -1.
         -3    1    6    6    0  503  0.26516487284E+03 -0.24854211652E+03 -0.36616591580E+03  0.51590994502E+03  0.00000000000E+00 0.  1.
<mgrwt>
<rscale>  0 0.21886771E+04</rscale>
<asrwt>0</asrwt>
<pdfrwt beam="1">  1        2 0.41699951E+00 0.21886771E+04</pdfrwt>
<pdfrwt beam="2">  1       -2 0.67973733E-01 0.21886771E+04</pdfrwt>
<totfact> 0.47482475E+00</totfact>
</mgrwt>
</event>
<event>
12    3  0.4769008E-008  0.1123083E+04  0.7818608E-02  0.9182981E-01
          2   -1    0    0  501    0  0.00000000000E+00  0.00000000000E+00  0.23152172869E+04  0.23152172869E+04  0.00000000000E+00 0.  1.
         -2   -1    0    0    0  501 -0.00000000000E+00 -0.00000000000E+00 -0.13619842252E+03  0.13619842252E+03  0.00000000000E+00 0. -1.
         23    2    1    2    0    0  0.41797992331E+02 -0.12671180766E+02  0.92281320688E+00  0.10112586434E+03  0.91202839152E+02 0.  0.
        254    2    1    2    0    0 -0.41797992331E+02  0.12671180766E+02  0.21780960512E+04  0.23502898451E+04  0.88195936233E+03 0.  0.
         23    2    4    4    0    0 -0.50006430631E+02 -0.29912398830E+03  0.27911271653E+03  0.42369863275E+03  0.98187674264E+02 0.  0.
         23    2    4    4    0    0  0.82084383003E+01  0.31179516907E+03  0.18989833347E+04  0.19265912124E+04  0.91281916702E+02 0.  0.
          1    1    3    3  502    0 -0.22342309187E+02  0.13011532280E+02 -0.15452479918E+02  0.30120721898E+02  0.00000000000E+00 0. -1.
         -1    1    3    3    0  502  0.64140301518E+02 -0.25682713046E+02  0.16375293124E+02  0.71005142441E+02  0.00000000000E+00 0.  1.
         13    1    5    5    0    0 -0.59818699252E+02 -0.85918798142E+02  0.10477127077E+03  0.14811257824E+03  0.00000000000E+00 0. -1.
        -13    1    5    5    0    0  0.98122686206E+01 -0.21320519016E+03  0.17434144577E+03  0.27558605451E+03  0.00000000000E+00 0.  1.
          4    1    6    6  503    0  0.39135024468E+02  0.73967944585E+02  0.57572101273E+03  0.58177099572E+03  0.00000000000E+00 0. -1.
         -4    1    6    6    0  503 -0.30926586168E+02  0.23782722448E+03  0.13232623219E+04  0.13448202166E+04  0.00000000000E+00 0.  1.
<mgrwt>
<rscale>  0 0.11230832E+04</rscale>
<asrwt>0</asrwt>
<pdfrwt beam="1">  1        2 0.35618725E+00 0.11230832E+04</pdfrwt>
<pdfrwt beam="2">  1       -2 0.20953605E-01 0.11230832E+04</pdfrwt>
<totfact> 0.87230606E+01</totfact>
</mgrwt>
</event>
<event>
12    3  0.4769008E-008  0.1861380E+04  0.7818608E-02  0.8674323E-01
          1   -1    0    0  501    0  0.00000000000E+00  0.00000000000E+00  0.11434168863E+04  0.11434168863E+04  0.00000000000E+00 0. -1.
         -1   -1    0    0    0  501 -0.00000000000E+00 -0.00000000000E+00 -0.75753967617E+03  0.75753967617E+03  0.00000000000E+00 0.  1.
         23    2    1    2    0    0  0.53425216192E+03  0.39263074795E+03 -0.11537353612E+03  0.67905224251E+03  0.90645565085E+02 0.  0.
        254    2    1    2    0    0 -0.53425216192E+03 -0.39263074795E+03  0.50125074629E+03  0.12219043200E+04  0.89566376494E+03 0.  0.
         23    2    4    4    0    0  0.18146760119E+03 -0.32677542604E+03  0.23150575435E+03  0.44878057778E+03  0.89980127562E+02 0.  0.
         23    2    4    4    0    0 -0.71571976310E+03 -0.65855321910E+02  0.26974499194E+03  0.77312374222E+03  0.91467247588E+02 0.  0.
          3    1    3    3  502    0  0.34077276628E+03  0.21865386992E+03 -0.33475198751E+02  0.40627106960E+03  0.00000000000E+00 0. -1.
         -3    1    3    3    0  502  0.19347939564E+03  0.17397687803E+03 -0.81898337368E+02  0.27278117291E+03  0.00000000000E+00 0.  1.
         13    1    5    5    0    0  0.17479537114E+03 -0.32772895602E+03  0.23655310391E+03  0.44036014960E+03  0.00000000000E+00 0. -1.
        -13    1    5    5    0    0  0.66722300455E+01  0.95352998000E+00 -0.50473495621E+01  0.84204281842E+01  0.00000000000E+00 0.  1.
          4    1    6    6  503    0 -0.65826728023E+03 -0.67512939473E+02  0.27238009093E+03  0.71558697805E+03  0.00000000000E+00 0. -1.
         -4    1    6    6    0  503 -0.57452482875E+02  0.16576175629E+01 -0.26350989877E+01  0.57536764170E+02  0.00000000000E+00 0.  1.
<mgrwt>
<rscale>  0 0.18613798E+04</rscale>
<asrwt>0</asrwt>
<pdfrwt beam="1">  1        1 0.17591029E+00 0.18613798E+04</pdfrwt>
<pdfrwt beam="2">  1       -1 0.11654457E+00 0.18613798E+04</pdfrwt>
<totfact> 0.73410926E+00</totfact>
</mgrwt>
</event>
<event>
12    3  0.4769008E-008  0.2584744E+04  0.7818608E-02  0.8373402E-01
          2   -1    0    0  501    0  0.00000000000E+00  0.00000000000E+00  0.94750473368E+03  0.94750473368E+03  0.00000000000E+00 0. -1.
         -2   -1    0    0    0  501 -0.00000000000E+00 -0.00000000000E+00 -0.17627619787E+04  0.17627619787E+04  0.00000000000E+00 0.  1.
         23    2    1    2    0    0 -0.56692616212E+03 -0.55575456497E+02 -0.13865666348E+04  0.15018375636E+04  0.91951781409E+02 0.  0.
        254    2    1    2    0    0  0.56692616212E+03  0.55575456497E+02  0.57130938978E+03  0.12084291488E+04  0.89967365420E+03 0.  0.
         23    2    4    4    0    0 -0.94967952494E+02 -0.95342395129E+02 -0.14481539605E+03  0.21760759566E+03  0.90953188212E+02 0.  0.
         23    2    4    4    0    0  0.66189411462E+03  0.15091785163E+03  0.71612478583E+03  0.99082155310E+03  0.89513263288E+02 0.  0.
          4    1    3    3  502    0 -0.15172920503E+03  0.93712394389E+01 -0.28850266169E+03  0.32610329283E+03  0.00000000000E+00 0. -1.
         -4    1    3    3    0  502 -0.41519695709E+03 -0.64946695936E+02 -0.10980639731E+04  0.11757342708E+04  0.00000000000E+00 0.  1.
         13    1    5    5    0    0  0.77249067726E+01  0.11260605094E+02 -0.18644866950E+02  0.23110743721E+02  0.00000000000E+00 0.  1.
        -13    1    5    5    0    0 -0.10269285927E+03 -0.10660300022E+03 -0.12617052910E+03  0.19449685194E+03  0.00000000000E+00 0. -1.
          2    1    6    6  503    0  0.52539925822E+03  0.12802018815E+03  0.61783561556E+03  0.82106905737E+03  0.00000000000E+00 0. -1.
         -2    1    6    6    0  503  0.13649485640E+03  0.22897663472E+02  0.98289170274E+02  0.16975249573E+03  0.00000000000E+00 0.  1.
<mgrwt>
<rscale>  0 0.25847439E+04</rscale>
<asrwt>0</asrwt>
<pdfrwt beam="1">  1        2 0.14576996E+00 0.25847439E+04</pdfrwt>
<pdfrwt beam="2">  1       -2 0.27119415E+00 0.25847439E+04</pdfrwt>
<totfact> 0.11503358E+00</totfact>
</mgrwt>
</event>
<event>
12    3  0.4769008E-008  0.2116427E+04  0.7818608E-02  0.8554042E-01
         -1   -1    0    0    0  501 -0.00000000000E+00  0.00000000000E+00  0.76588206400E+03  0.76588206400E+03  0.00000000000E+00 0.  1.
          1   -1    0    0  501    0  0.00000000000E+00 -0.00000000000E+00 -0.14621254549E+04  0.14621254549E+04  0.00000000000E+00 0. -1.
         23    2    1    2    0    0 -0.22814848466E+03  0.79440680069E+03 -0.54519271560E+03  0.99430317284E+03  0.90938475542E+02 0.  0.
        254    2    1    2    0    0  0.22814848466E+03 -0.79440680069E+03 -0.15105067526E+03  0.12337043460E+04  0.90336936569E+03 0.  0.
         23    2    4    4    0    0  0.73191821473E+02 -0.91265980600E+03 -0.30402623834E+03  0.96966249600E+03  0.97511221572E+02 0.  0.
         23    2    4    4    0    0  0.15495666319E+03  0.11825300531E+03  0.15297556309E+03  0.26404185002E+03  0.91220803165E+02 0.  0.
          3    1    3    3  502    0 -0.21621187968E+03  0.74421063605E+03 -0.53499419372E+03  0.94170899701E+03  0.00000000000E+00 0. -1.
         -3    1    3    3    0  502 -0.11936604985E+02  0.50196164632E+02 -0.10198521879E+02  0.52594175826E+02  0.00000000000E+00 0.  1.
         13    1    5    5    0    0  0.75310470343E+02 -0.42016365456E+03 -0.16792145285E+03  0.45870118584E+03  0.00000000000E+00 0. -1.
        -13    1    5    5    0    0 -0.21186488699E+01 -0.49249615143E+03 -0.13610478549E+03  0.51096131016E+03  0.00000000000E+00 0.  1.
          4    1    6    6  503    0  0.30623598596E+02  0.30816745812E+02 -0.62741505804E+01  0.43895803659E+02  0.00000000000E+00 0. -1.
         -4    1    6    6    0  503  0.12433306459E+03  0.87436259499E+02  0.15924971367E+03  0.22014604637E+03  0.00000000000E+00 0.  1.
<mgrwt>
<rscale>  0 0.21164269E+04</rscale>
<asrwt>0</asrwt>
<pdfrwt beam="1">  1        1 0.22494238E+00 0.21164269E+04</pdfrwt>
<pdfrwt beam="2">  1       -1 0.11782801E+00 0.21164269E+04</pdfrwt>
<totfact> 0.41321125E+00</totfact>
</mgrwt>
</event>
<event>
12    3  0.4769008E-008  0.1253465E+04  0.7818608E-02  0.9067304E-01
          2   -1    0    0  501    0  0.00000000000E+00  0.00000000000E+00  0.48107555927E+03  0.48107555927E+03  0.00000000000E+00 0. -1.
         -2   -1    0    0    0  501 -0.00000000000E+00 -0.00000000000E+00 -0.81649111229E+03  0.81649111229E+03  0.00000000000E+00 0.  1.
         23    2    1    2    0    0  0.64756103486E+02 -0.16222536988E+03  0.15910455047E+03  0.25397734336E+03  0.93165494622E+02 0.  0.
        254    2    1    2    0    0 -0.64756103486E+02  0.16222536988E+03 -0.49452010349E+03  0.10435893282E+04  0.90222953265E+03 0.  0.
         23    2    4    4    0    0  0.35761499585E+03  0.15058273655E+03 -0.15443004153E+02  0.39822814903E+03  0.88224296543E+02 0.  0.
         23    2    4    4    0    0 -0.42237109934E+03  0.11642633332E+02 -0.47907709934E+03  0.64536117916E+03  0.91887365756E+02 0.  0.
          4    1    3    3  502    0  0.63117017022E+02 -0.16937952921E+03  0.12666968305E+03  0.22072243057E+03  0.00000000000E+00 0. -1.
         -4    1    3    3    0  502  0.16390864640E+01  0.71541593272E+01  0.32434867420E+02  0.33254912790E+02  0.00000000000E+00 0.  1.
         13    1    5    5    0    0  0.14577325710E+03  0.22305352570E+02 -0.28634011932E+02  0.15022409221E+03  0.00000000000E+00 0. -1.
        -13    1    5    5    0    0  0.21184173875E+03  0.12827738398E+03  0.13191007778E+02  0.24800405683E+03  0.00000000000E+00 0.  1.
          3    1    6    6  503    0 -0.38057547638E+03  0.23003336495E+02 -0.46148901204E+03  0.59861419541E+03  0.00000000000E+00 0. -1.
         -3    1    6    6    0  503 -0.41795622954E+02 -0.11360703163E+02 -0.17588087299E+02  0.46746983746E+02  0.00000000000E+00 0.  1.
<mgrwt>
<rscale>  0 0.12534655E+04</rscale>
<asrwt>0</asrwt>
<pdfrwt beam="1">  1        2 0.74011625E-01 0.12534655E+04</pdfrwt>
<pdfrwt beam="2">  1       -2 0.12561402E+00 0.12534655E+04</pdfrwt>
<totfact> 0.29977544E+01</totfact>
</mgrwt>
</event>
<event>
12    3  0.4769008E-008  0.3427202E+04  0.7818608E-02  0.8131262E-01
          2   -1    0    0  501    0  0.00000000000E+00  0.00000000000E+00  0.17371055890E+04  0.17371055890E+04  0.00000000000E+00 0. -1.
         -2   -1    0    0    0  501 -0.00000000000E+00 -0.00000000000E+00 -0.16904141820E+04  0.16904141820E+04  0.00000000000E+00 0.  1.
         23    2    1    2    0    0  0.15115261059E+04  0.40468208564E+03 -0.28854851789E+03  0.15935647110E+04  0.87803653763E+02 0.  0.
        254    2    1    2    0    0 -0.15115261059E+04 -0.40468208564E+03  0.33523992496E+03  0.18339550600E+04  0.89583848742E+03 0.  0.
         23    2    4    4    0    0 -0.72263228758E+03 -0.48857810531E+03  0.51271324585E+03  0.10159918141E+04  0.91970135541E+02 0.  0.
         23    2    4    4    0    0 -0.78889381835E+03  0.83896019674E+02 -0.17747332089E+03  0.81796324591E+03  0.90416222450E+02 0.  0.
          4    1    3    3  502    0  0.43958098249E+03  0.99037380538E+02 -0.47175597617E+02  0.45306222522E+03  0.00000000000E+00 0.  1.
         -4    1    3    3    0  502  0.10719451234E+04  0.30564470510E+03 -0.24137292028E+03  0.11405024858E+04  0.00000000000E+00 0. -1.
         13    1    5    5    0    0 -0.66199645181E+03 -0.43568960149E+03  0.49236027605E+03  0.93299698418E+03  0.00000000000E+00 0. -1.
        -13    1    5    5    0    0 -0.60635835764E+02 -0.52888503821E+02  0.20352969798E+02  0.82994829928E+02  0.00000000000E+00 0.  1.
          3    1    6    6  503    0 -0.64865129340E+03  0.87165344763E+02 -0.11546513500E+03  0.66458896708E+03  0.00000000000E+00 0. -1.
         -3    1    6    6    0  503 -0.14024252495E+03 -0.32693250887E+01 -0.62008185884E+02  0.15337427883E+03  0.00000000000E+00 0.  1.
<mgrwt>
<rscale>  0 0.34272017E+04</rscale>
<asrwt>0</asrwt>
<pdfrwt beam="1">  1        2 0.26724701E+00 0.34272017E+04</pdfrwt>
<pdfrwt beam="2">  1       -2 0.26006372E+00 0.34272017E+04</pdfrwt>
<totfact> 0.43091209E-01</totfact>
</mgrwt>
</event>
<event>
12    3  0.4769008E-008  0.1268481E+04  0.7818608E-02  0.9054940E-01
          1   -1    0    0  501    0  0.00000000000E+00  0.00000000000E+00  0.14045638959E+04  0.14045638959E+04  0.00000000000E+00 0. -1.
         -1   -1    0    0    0  501 -0.00000000000E+00 -0.00000000000E+00 -0.28639584707E+03  0.28639584707E+03  0.00000000000E+00 0.  1.
         23    2    1    2    0    0 -0.42576894654E+02 -0.38319846351E+01  0.68355146902E+03  0.69100145860E+03  0.91722019798E+02 0.  0.
        254    2    1    2    0    0  0.42576894654E+02  0.38319846351E+01  0.43461657980E+03  0.99995828437E+03  0.89955406896E+03 0.  0.
         23    2    4    4    0    0  0.49795637413E+02  0.41052747789E+03  0.38761549817E+02  0.42502217591E+03  0.90160837705E+02 0.  0.
         23    2    4    4    0    0 -0.72187427587E+01 -0.40669549326E+03  0.39585502999E+03  0.57493610846E+03  0.91635089168E+02 0.  0.
          2    1    3    3  502    0 -0.43945818804E+02  0.19107836767E+02  0.63970826121E+03  0.64150058759E+03  0.00000000000E+00 0. -1.
         -2    1    3    3    0  502  0.13689241494E+01 -0.22939821402E+02  0.43843207810E+02  0.49500871006E+02  0.00000000000E+00 0.  1.
         13    1    5    5    0    0  0.33406966159E+02  0.10744630378E+03  0.45631172833E+02  0.12142049876E+03  0.00000000000E+00 0. -1.
        -13    1    5    5    0    0  0.16388671254E+02  0.30308117411E+03 -0.68696230159E+01  0.30360167715E+03  0.00000000000E+00 0.  1.
          4    1    6    6  503    0  0.22796456815E+02 -0.24167287636E+02  0.29788986949E+02  0.44621967443E+02  0.00000000000E+00 0.  1.
         -4    1    6    6    0  503 -0.30015199574E+02 -0.38252820562E+03  0.36606604304E+03  0.53031414102E+03  0.00000000000E+00 0. -1.
<mgrwt>
<rscale>  0 0.12684814E+04</rscale>
<asrwt>0</asrwt>
<pdfrwt beam="1">  1        1 0.21608675E+00 0.12684814E+04</pdfrwt>
<pdfrwt beam="2">  1       -1 0.44060900E-01 0.12684814E+04</pdfrwt>
<totfact> 0.38249438E+01</totfact>
</mgrwt>
</event>
<event>
12    3  0.4769008E-008  0.3610282E+04  0.7818608E-02  0.8088140E-01
         -1   -1    0    0    0  501 -0.00000000000E+00  0.00000000000E+00  0.15648473065E+04  0.15648473065E+04  0.00000000000E+00 0.  1.
          1   -1    0    0  501    0  0.00000000000E+00 -0.00000000000E+00 -0.20823339737E+04  0.20823339737E+04  0.00000000000E+00 0. -1.
         23    2    1    2    0    0 -0.41184983398E+03 -0.42038099535E+03  0.13589513287E+04  0.14836990421E+04  0.90959698777E+02 0.  0.
        254    2    1    2    0    0  0.41184983398E+03  0.42038099535E+03 -0.18764379959E+04  0.21634822381E+04  0.90182890576E+03 0.  0.
         23    2    4    4    0    0  0.57726344595E+03  0.42619126121E+02 -0.14486313480E+04  0.15626579740E+04  0.91201345415E+02 0.  0.
         23    2    4    4    0    0 -0.16541361198E+03  0.37776186923E+03 -0.42780664793E+03  0.60082426414E+03  0.88913303255E+02 0.  0.
          1    1    3    3  502    0 -0.13729171060E+02 -0.72451876739E+01  0.11927820581E+02  0.19576919733E+02  0.00000000000E+00 0. -1.
         -1    1    3    3    0  502 -0.39812066292E+03 -0.41313580768E+03  0.13470235081E+04  0.14641221224E+04  0.00000000000E+00 0.  1.
         13    1    5    5    0    0  0.11200661263E+03  0.43303149293E+02 -0.32743275940E+03  0.34875902273E+03  0.00000000000E+00 0. -1.
        -13    1    5    5    0    0  0.46525683333E+03 -0.68402317145E+00 -0.11211985886E+04  0.12138989513E+04  0.00000000000E+00 0.  1.
          4    1    6    6  503    0 -0.15760985616E+03  0.31058065484E+03 -0.39173526180E+03  0.52417337328E+03  0.00000000000E+00 0.  1.
         -4    1    6    6    0  503 -0.78037558202E+01  0.67181214396E+02 -0.36071386123E+02  0.76650890858E+02  0.00000000000E+00 0. -1.
<mgrwt>
<rscale>  0 0.36102824E+04</rscale>
<asrwt>0</asrwt>
<pdfrwt beam="1">  1        1 0.32035907E+00 0.36102824E+04</pdfrwt>
<pdfrwt beam="2">  1       -1 0.24074574E+00 0.36102824E+04</pdfrwt>
<totfact> 0.16978753E-01</totfact>
</mgrwt>
</event>
<event>
12    3  0.4769008E-008  0.3215349E+04  0.7818608E-02  0.8184775E-01
         -2   -1    0    0    0  501 -0.00000000000E+00  0.00000000000E+00  0.11234439808E+04  0.11234439808E+04  0.00000000000E+00 0.  1.
          2   -1    0    0  501    0  0.00000000000E+00 -0.00000000000E+00 -0.23006203595E+04  0.23006203595E+04  0.00000000000E+00 0. -1.
         23    2    1    2    0    0  0.41707799454E+03 -0.13946728634E+04 -0.25374247354E+03  0.14804446104E+04  0.90909582212E+02 0.  0.
        254    2    1    2    0    0 -0.41707799454E+03  0.13946728634E+04 -0.92343390515E+03  0.19436197300E+04  0.89769762619E+03 0.  0.
         23    2    4    4    0    0  0.18785984421E+02  0.18165069562E+03  0.15837123713E+03  0.25827333736E+03  0.90960318880E+02 0.  0.
         23    2    4    4    0    0 -0.43586397896E+03  0.12130221678E+04 -0.10818051423E+04  0.16853463926E+04  0.93219684067E+02 0.  0.
          2    1    3    3  502    0  0.64167675086E+02 -0.19004371076E+03 -0.42425075359E+01  0.20062926356E+03  0.00000000000E+00 0. -1.
         -2    1    3    3    0  502  0.35291031945E+03 -0.12046291527E+04 -0.24949996600E+03  0.12798153469E+04  0.00000000000E+00 0.  1.
         13    1    5    5    0    0 -0.27445441727E+02  0.12944696328E+03  0.12025112133E+03  0.17880184774E+03  0.00000000000E+00 0. -1.
        -13    1    5    5    0    0  0.46231426148E+02  0.52203732336E+02  0.38120115806E+02  0.79471489620E+02  0.00000000000E+00 0.  1.
          1    1    6    6  503    0 -0.11369948761E+03  0.44824409703E+03 -0.39105926956E+03  0.60562174359E+03  0.00000000000E+00 0. -1.
         -1    1    6    6    0  503 -0.32216449135E+03  0.76477807077E+03 -0.69074587272E+03  0.10797246490E+04  0.00000000000E+00 0.  1.
<mgrwt>
<rscale>  0 0.32153495E+04</rscale>
<asrwt>0</asrwt>
<pdfrwt beam="1">  1        2 0.35394159E+00 0.32153495E+04</pdfrwt>
<pdfrwt beam="2">  1       -2 0.17283754E+00 0.32153495E+04</pdfrwt>
<totfact> 0.77519641E-01</totfact>
</mgrwt>
</event>
<event>
12    3  0.4769008E-008  0.2536999E+04  0.7818608E-02  0.8389922E-01
         -2   -1    0    0    0  501 -0.00000000000E+00  0.00000000000E+00  0.78352719388E+03  0.78352719388E+03  0.00000000000E+00 0.  1.
          2   -1    0    0  501    0  0.00000000000E+00 -0.00000000000E+00 -0.20536506263E+04  0.20536506263E+04  0.00000000000E+00 0. -1.
         23    2    1    2    0    0 -0.10843875313E+04 -0.68518226229E+02 -0.32416400293E+03  0.11375083329E+04  0.90839645983E+02 0.  0.
        254    2    1    2    0    0  0.10843875313E+04  0.68518226229E+02 -0.94595942947E+03  0.16996694872E+04  0.90191244485E+03 0.  0.
         23    2    4    4    0    0  0.47999311731E+03 -0.32298716295E+03 -0.11558099643E+03  0.59686664887E+03  0.90425271366E+02 0.  0.
         23    2    4    4    0    0  0.60439441401E+03  0.39150538918E+03 -0.83037843304E+03  0.11028028384E+04  0.89870355364E+02 0.  0.
          3    1    3    3  502    0 -0.65427076464E+03 -0.74875442524E+02 -0.22643167374E+03  0.69638198442E+03  0.00000000000E+00 0. -1.
         -3    1    3    3    0  502 -0.43011676669E+03  0.63572162946E+01 -0.97732329186E+02  0.44112634851E+03  0.00000000000E+00 0.  1.
         13    1    5    5    0    0  0.45220571071E+03 -0.31203286528E+03 -0.88395070267E+02  0.55647839334E+03  0.00000000000E+00 0.  1.
        -13    1    5    5    0    0  0.27787406604E+02 -0.10954297675E+02 -0.27185926164E+02  0.40388255529E+02  0.00000000000E+00 0. -1.
          3    1    6    6  503    0  0.23197788740E+03  0.99432868158E+02 -0.29334078230E+03  0.38697474087E+03  0.00000000000E+00 0. -1.
         -3    1    6    6    0  503  0.37241652662E+03  0.29207252102E+03 -0.53703765074E+03  0.71582809749E+03  0.00000000000E+00 0.  1.
<mgrwt>
<rscale>  0 0.25369991E+04</rscale>
<asrwt>0</asrwt>
<pdfrwt beam="1">  1        2 0.31594624E+00 0.25369991E+04</pdfrwt>
<pdfrwt beam="2">  1       -2 0.12054265E+00 0.25369991E+04</pdfrwt>
<totfact> 0.29117457E+00</totfact>
</mgrwt>
</event>
<event>
12    3  0.4769008E-008  0.1486136E+04  0.7818608E-02  0.8893725E-01
         -2   -1    0    0    0  501 -0.00000000000E+00  0.00000000000E+00  0.30970927537E+03  0.30970927537E+03  0.00000000000E+00 0. -1.
          2   -1    0    0  501    0  0.00000000000E+00 -0.00000000000E+00 -0.17828021755E+04  0.17828021755E+04  0.00000000000E+00 0.  1.
         23    2    1    2    0    0 -0.20284509189E+03  0.37525107958E+03 -0.20669809387E+03  0.48263862845E+03  0.90864952734E+02 0.  0.
        254    2    1    2    0    0  0.20284509189E+03 -0.37525107958E+03 -0.12663948063E+04  0.16098728225E+04  0.89776121269E+03 0.  0.
         23    2    4    4    0    0  0.37572239966E+03 -0.46611117922E+03 -0.42118291674E+03  0.73760602792E+03  0.90778026374E+02 0.  0.
         23    2    4    4    0    0 -0.17287730777E+03  0.90860099637E+02 -0.84521188956E+03  0.87226679453E+03  0.91236513177E+02 0.  0.
          1    1    3    3  502    0 -0.65102932575E+02  0.13925897552E+03 -0.28298727605E+02  0.15630825979E+03  0.00000000000E+00 0. -1.
         -1    1    3    3    0  502 -0.13774215931E+03  0.23599210406E+03 -0.17839936626E+03  0.32633036867E+03  0.00000000000E+00 0.  1.
         13    1    5    5    0    0  0.19951159038E+03 -0.31178668022E+03 -0.23574196893E+03  0.43885086827E+03  0.00000000000E+00 0. -1.
        -13    1    5    5    0    0  0.17621080928E+03 -0.15432449900E+03 -0.18544094781E+03  0.29875515966E+03  0.00000000000E+00 0.  1.
          1    1    6    6  503    0  0.63436517187E+01  0.23103708120E+02 -0.94221261448E+02  0.97219696332E+02  0.00000000000E+00 0. -1.
         -1    1    6    6    0  503 -0.17922095949E+03  0.67756391516E+02 -0.75099062811E+03  0.77504709820E+03  0.00000000000E+00 0.  1.
<mgrwt>
<rscale>  0 0.14861364E+04</rscale>
<asrwt>0</asrwt>
<pdfrwt beam="1">  1        2 0.27427725E+00 0.14861364E+04</pdfrwt>
<pdfrwt beam="2">  1       -2 0.47647582E-01 0.14861364E+04</pdfrwt>
<totfact> 0.35607437E+01</totfact>
</mgrwt>
</event>
<event>
12    3  0.4769008E-008  0.1521662E+04  0.7818608E-02  0.8870174E-01
         -2   -1    0    0    0  501 -0.00000000000E+00  0.00000000000E+00  0.12904005363E+04  0.12904005363E+04  0.00000000000E+00 0.  1.
          2   -1    0    0  501    0  0.00000000000E+00 -0.00000000000E+00 -0.44859248522E+03  0.44859248522E+03  0.00000000000E+00 0. -1.
         23    2    1    2    0    0  0.18694619546E+03 -0.43123238473E+03  0.12218228481E+03  0.49408884355E+03  0.91022112458E+02 0.  0.
        254    2    1    2    0    0 -0.18694619546E+03  0.43123238473E+03  0.71962576624E+03  0.12449041780E+04  0.90056366749E+03 0.  0.
         23    2    4    4    0    0  0.22131030958E+02  0.43139985242E+03 -0.47952243855E+02  0.44408514958E+03  0.91195324391E+02 0.  0.
         23    2    4    4    0    0 -0.20907722642E+03 -0.16746768610E+00  0.76757801009E+03  0.80081902837E+03  0.91770365395E+02 0.  0.
          3    1    3    3  502    0  0.12883353207E+02 -0.10901134261E+03  0.62511542798E+01  0.10994785372E+03  0.00000000000E+00 0. -1.
         -3    1    3    3    0  502  0.17406284225E+03 -0.32222104212E+03  0.11593113053E+03  0.38414098983E+03  0.00000000000E+00 0.  1.
         13    1    5    5    0    0  0.57330669631E+02  0.24319987627E+03 -0.21235621431E+02  0.25076669858E+03  0.00000000000E+00 0.  1.
        -13    1    5    5    0    0 -0.35199638673E+02  0.18819997615E+03 -0.26716622424E+02  0.19331845100E+03  0.00000000000E+00 0. -1.
          3    1    6    6  503    0 -0.15235842500E+02  0.26642339694E+02  0.72702372435E+02  0.78915018335E+02  0.00000000000E+00 0. -1.
         -3    1    6    6    0  503 -0.19384138392E+03 -0.26809807380E+02  0.69487563766E+03  0.72190401003E+03  0.00000000000E+00 0.  1.
<mgrwt>
<rscale>  0 0.15216622E+04</rscale>
<asrwt>0</asrwt>
<pdfrwt beam="1">  1        2 0.69014229E-01 0.15216622E+04</pdfrwt>
<pdfrwt beam="2">  1       -2 0.19852316E+00 0.15216622E+04</pdfrwt>
<totfact> 0.91480731E+00</totfact>
</mgrwt>
</event>
<event>
12    3  0.4769008E-008  0.1445020E+04  0.7818608E-02  0.8921860E-01
         -2   -1    0    0    0  501 -0.00000000000E+00  0.00000000000E+00  0.15206222009E+04  0.15206222009E+04  0.00000000000E+00 0. -1.
          2   -1    0    0  501    0  0.00000000000E+00 -0.00000000000E+00 -0.34329417540E+03  0.34329417540E+03  0.00000000000E+00 0.  1.
         23    2    1    2    0    0 -0.21752387158E+03 -0.18052560489E+03  0.80327565015E+03  0.85709332653E+03  0.97216621647E+02 0.  0.
        254    2    1    2    0    0  0.21752387158E+03  0.18052560489E+03  0.37405237537E+03  0.10068230498E+04  0.89099458211E+03 0.  0.
         23    2    4    4    0    0  0.25419935385E+02  0.52307943121E+03  0.20442988195E+03  0.56942570822E+03  0.90530636130E+02 0.  0.
         23    2    4    4    0    0  0.19210393620E+03 -0.34255382632E+03  0.16962249342E+03  0.43739734157E+03  0.91091151650E+02 0.  0.
          1    1    3    3  502    0 -0.14389338164E+03 -0.15648576400E+03  0.48530056045E+03  0.52982047298E+03  0.00000000000E+00 0. -1.
         -1    1    3    3    0  502 -0.73630489937E+02 -0.24039840886E+02  0.31797508970E+03  0.32727285355E+03  0.00000000000E+00 0.  1.
         13    1    5    5    0    0  0.87955001943E+01  0.48938075994E+02 -0.66333093313E+01  0.50162704257E+02  0.00000000000E+00 0. -1.
        -13    1    5    5    0    0  0.16624435191E+02  0.47414135522E+03  0.21106319128E+03  0.51926300396E+03  0.00000000000E+00 0.  1.
          2    1    6    6  503    0  0.97551805625E+02 -0.87924374448E+02  0.62124674494E+02  0.14528085071E+03  0.00000000000E+00 0. -1.
         -2    1    6    6    0  503  0.94552130571E+02 -0.25462945188E+03  0.10749781893E+03  0.29211649086E+03  0.00000000000E+00 0.  1.
<mgrwt>
<rscale>  0 0.14450201E+04</rscale>
<asrwt>0</asrwt>
<pdfrwt beam="1">  1        2 0.52814489E-01 0.14450201E+04</pdfrwt>
<pdfrwt beam="2">  1       -2 0.23394187E+00 0.14450201E+04</pdfrwt>
<totfact> 0.74014102E+00</totfact>
</mgrwt>
</event>
<event>
12    3  0.4769008E-008  0.3126110E+04  0.7818608E-02  0.8208608E-01
         -2   -1    0    0    0  501 -0.00000000000E+00  0.00000000000E+00  0.12921740050E+04  0.12921740050E+04  0.00000000000E+00 0.  1.
          2   -1    0    0  501    0  0.00000000000E+00 -0.00000000000E+00 -0.18907217761E+04  0.18907217761E+04  0.00000000000E+00 0. -1.
         23    2    1    2    0    0 -0.66159590029E+03 -0.12627933482E+04 -0.27225010118E+03  0.14542156137E+04  0.90921713390E+02 0.  0.
        254    2    1    2    0    0  0.66159590029E+03  0.12627933482E+04 -0.32629766991E+03  0.17286801675E+04  0.92168800381E+03 0.  0.
         23    2    4    4    0    0  0.67290122911E+03  0.47565961163E+03 -0.42188992514E+03  0.93022462290E+03  0.90986866300E+02 0.  0.
         23    2    4    4    0    0 -0.11305328819E+02  0.78713373660E+03  0.95592255230E+02  0.79845554456E+03  0.93198967955E+02 0.  0.
          1    1    3    3  502    0 -0.32502920203E+03 -0.59576454652E+03 -0.84874209529E+02  0.68394664156E+03  0.00000000000E+00 0. -1.
         -1    1    3    3    0  502 -0.33656669826E+03 -0.66702880171E+03 -0.18737589165E+03  0.77026897215E+03  0.00000000000E+00 0.  1.
         13    1    5    5    0    0  0.14805009875E+03  0.14796929938E+03 -0.87174507213E+02  0.22674465817E+03  0.00000000000E+00 0. -1.
        -13    1    5    5    0    0  0.52485113036E+03  0.32769031225E+03 -0.33471541793E+03  0.70347996473E+03  0.00000000000E+00 0.  1.
          2    1    6    6  503    0  0.28156983814E+02  0.21280383701E+03 -0.13702557253E+01  0.21466291339E+03  0.00000000000E+00 0. -1.
         -2    1    6    6    0  503 -0.39462312633E+02  0.57432989959E+03  0.96962510955E+02  0.58379263117E+03  0.00000000000E+00 0.  1.
<mgrwt>
<rscale>  0 0.31261104E+04</rscale>
<asrwt>0</asrwt>
<pdfrwt beam="1">  1        2 0.29088027E+00 0.31261104E+04</pdfrwt>
<pdfrwt beam="2">  1       -2 0.19879600E+00 0.31261104E+04</pdfrwt>
<totfact> 0.88184572E-01</totfact>
</mgrwt>
</event>
<event>
12    3  0.4769008E-008  0.1884850E+04  0.7818608E-02  0.8662434E-01
          1   -1    0    0  501    0  0.00000000000E+00  0.00000000000E+00  0.14251548641E+04  0.14251548641E+04  0.00000000000E+00 0. -1.
         -1   -1    0    0    0  501 -0.00000000000E+00 -0.00000000000E+00 -0.62320589173E+03  0.62320589173E+03  0.00000000000E+00 0.  1.
         23    2    1    2    0    0  0.51649537132E+03  0.16825601159E+03  0.83744840412E+03  0.10021936833E+04  0.89413619352E+02 0.  0.
        254    2    1    2    0    0 -0.51649537132E+03 -0.16825601159E+03 -0.35499431758E+02  0.10461670725E+04  0.89337997508E+03 0.  0.
         23    2    4    4    0    0  0.30698814651E+02 -0.28284275709E+03  0.26990114764E+03  0.40266748837E+03  0.91389464579E+02 0.  0.
         23    2    4    4    0    0 -0.54719418597E+03  0.11458674550E+03 -0.30540057940E+03  0.64349958411E+03  0.90942847150E+02 0.  0.
          1    1    3    3  502    0  0.29682690884E+03  0.11760852722E+03  0.41779609762E+03  0.52582464632E+03  0.00000000000E+00 0. -1.
         -1    1    3    3    0  502  0.21966846247E+03  0.50647484370E+02  0.41965230650E+03  0.47636903702E+03  0.00000000000E+00 0.  1.
         13    1    5    5    0    0  0.46658519543E+02 -0.27700595932E+03  0.24636435759E+03  0.37363714435E+03  0.00000000000E+00 0. -1.
        -13    1    5    5    0    0 -0.15959704892E+02 -0.58367977697E+01  0.23536790049E+02  0.29030344026E+02  0.00000000000E+00 0.  1.
          3    1    6    6  503    0 -0.52772915546E+03  0.91130020473E+02 -0.29417552930E+03  0.61101717177E+03  0.00000000000E+00 0. -1.
         -3    1    6    6    0  503 -0.19465030510E+02  0.23456725031E+02 -0.11225050096E+02  0.32482412343E+02  0.00000000000E+00 0.  1.
<mgrwt>
<rscale>  0 0.18848500E+04</rscale>
<asrwt>0</asrwt>
<pdfrwt beam="1">  1        1 0.21925459E+00 0.18848500E+04</pdfrwt>
<pdfrwt beam="2">  1       -1 0.95877830E-01 0.18848500E+04</pdfrwt>
<totfact> 0.72479195E+00</totfact>
</mgrwt>
</event>
<event>
12    3  0.4769008E-008  0.2986715E+04  0.7818608E-02  0.8247535E-01
         -2   -1    0    0    0  501 -0.00000000000E+00  0.00000000000E+00  0.14181144494E+04  0.14181144494E+04  0.00000000000E+00 0.  1.
          2   -1    0    0  501    0  0.00000000000E+00 -0.00000000000E+00 -0.15725929946E+04  0.15725929946E+04  0.00000000000E+00 0. -1.
         23    2    1    2    0    0  0.30637358420E+03  0.88150743672E+03  0.91383359994E+03  0.13095601820E+04  0.94529824555E+02 0.  0.
        254    2    1    2    0    0 -0.30637358420E+03 -0.88150743672E+03 -0.10683121451E+04  0.16811472620E+04  0.90224450292E+03 0.  0.
         23    2    4    4    0    0  0.13535806911E+03 -0.29378537227E+03 -0.84182968012E+03  0.90635732486E+03  0.90414258607E+02 0.  0.
         23    2    4    4    0    0 -0.44173165331E+03 -0.58772206445E+03 -0.22648246499E+03  0.77478993715E+03  0.91984026755E+02 0.  0.
          4    1    3    3  502    0  0.44675776746E+02  0.25431790279E+03  0.23970915617E+03  0.35232655344E+03  0.00000000000E+00 0. -1.
         -4    1    3    3    0  502  0.26169780746E+03  0.62718953393E+03  0.67412444377E+03  0.95723362853E+03  0.00000000000E+00 0.  1.
         13    1    5    5    0    0  0.13149829751E+03 -0.18478729983E+03 -0.56777646888E+03  0.61139861550E+03  0.00000000000E+00 0. -1.
        -13    1    5    5    0    0  0.38597715961E+01 -0.10899807244E+03 -0.27405321124E+03  0.29495870935E+03  0.00000000000E+00 0.  1.
          3    1    6    6  503    0 -0.17544317832E+03 -0.21734106498E+03 -0.13200633564E+03  0.30893869941E+03  0.00000000000E+00 0. -1.
         -3    1    6    6    0  503 -0.26628847499E+03 -0.37038099947E+03 -0.94476129348E+02  0.46585123773E+03  0.00000000000E+00 0.  1.
<mgrwt>
<rscale>  0 0.29867152E+04</rscale>
<asrwt>0</asrwt>
<pdfrwt beam="1">  1        2 0.24193738E+00 0.29867152E+04</pdfrwt>
<pdfrwt beam="2">  1       -2 0.21817145E+00 0.29867152E+04</pdfrwt>
<totfact> 0.10051379E+00</totfact>
</mgrwt>
</event>
<event>
12    3  0.4769008E-008  0.1682704E+04  0.7818608E-02  0.8771291E-01
          1   -1    0    0  501    0  0.00000000000E+00  0.00000000000E+00  0.64936009052E+03  0.64936009052E+03  0.00000000000E+00 0. -1.
         -1   -1    0    0    0  501 -0.00000000000E+00 -0.00000000000E+00 -0.10901089049E+04  0.10901089049E+04  0.00000000000E+00 0.  1.
         23    2    1    2    0    0 -0.30875018128E+03  0.47304790446E+03 -0.35541281268E+03  0.67376456753E+03  0.92409040109E+02 0.  0.
        254    2    1    2    0    0  0.30875018128E+03 -0.47304790446E+03 -0.85336001690E+02  0.10657044279E+04  0.89963475925E+03 0.  0.
         23    2    4    4    0    0 -0.99877060383E+02 -0.57099272477E+03  0.10571100366E+03  0.59565938343E+03  0.87333646657E+02 0.  0.
         23    2    4    4    0    0  0.40862724167E+03  0.97944820315E+02 -0.19104700535E+03  0.47004504445E+03  0.88735421897E+02 0.  0.
          1    1    3    3  502    0 -0.78354997298E+02  0.16882259236E+03 -0.15781397093E+03  0.24402012768E+03  0.00000000000E+00 0. -1.
         -1    1    3    3    0  502 -0.23039518399E+03  0.30422531209E+03 -0.19759884175E+03  0.42974443985E+03  0.00000000000E+00 0.  1.
         13    1    5    5    0    0 -0.22316717598E+02 -0.21061870889E+02  0.26078929787E+01  0.30796743261E+02  0.00000000000E+00 0. -1.
        -13    1    5    5    0    0 -0.77560342785E+02 -0.54993085388E+03  0.10310311068E+03  0.56486264017E+03  0.00000000000E+00 0.  1.
          1    1    6    6  503    0  0.11144703094E+01 -0.12612166426E+01 -0.15143594677E+02  0.15236835998E+02  0.00000000000E+00 0. -1.
         -1    1    6    6    0  503  0.40751277136E+03  0.99206036957E+02 -0.17590341067E+03  0.45480820845E+03  0.00000000000E+00 0.  1.
<mgrwt>
<rscale>  0 0.16827040E+04</rscale>
<asrwt>0</asrwt>
<pdfrwt beam="1">  1        1 0.99901553E-01 0.16827040E+04</pdfrwt>
<pdfrwt beam="2">  1       -1 0.16770906E+00 0.16827040E+04</pdfrwt>
<totfact> 0.74360910E+00</totfact>
</mgrwt>
</event>
<event>
12    3  0.4769008E-008  0.1749929E+04  0.7818608E-02  0.8733390E-01
         -2   -1    0    0    0  501 -0.00000000000E+00  0.00000000000E+00  0.38611269833E+03  0.38611269833E+03  0.00000000000E+00 0.  1.
          2   -1    0    0  501    0  0.00000000000E+00 -0.00000000000E+00 -0.19827440300E+04  0.19827440300E+04  0.00000000000E+00 0. -1.
         23    2    1    2    0    0  0.34283262665E+03  0.35514033500E+03 -0.33900154432E+02  0.50344446209E+03  0.92995905810E+02 0.  0.
        254    2    1    2    0    0 -0.34283262665E+03 -0.35514033500E+03 -0.15627311773E+04  0.18654122663E+04  0.89105292957E+03 0.  0.
         23    2    4    4    0    0 -0.63307848756E+03 -0.19689140190E+03 -0.11275697463E+04  0.13112282707E+04  0.91386265181E+02 0.  0.
         23    2    4    4    0    0  0.29024586091E+03 -0.15824893310E+03 -0.43516143097E+03  0.55418399560E+03  0.92027416427E+02 0.  0.
          4    1    3    3  502    0  0.20368409204E+03  0.15844931015E+03 -0.46357014818E+02  0.26218765429E+03  0.00000000000E+00 0. -1.
         -4    1    3    3    0  502  0.13914853461E+03  0.19669102485E+03  0.12456860386E+02  0.24125680781E+03  0.00000000000E+00 0.  1.
         13    1    5    5    0    0 -0.56234636674E+03 -0.16153680055E+03 -0.93396395237E+03  0.11020962927E+04  0.00000000000E+00 0. -1.
        -13    1    5    5    0    0 -0.70732120828E+02 -0.35354601354E+02 -0.19360579394E+03  0.20913197795E+03  0.00000000000E+00 0.  1.
          3    1    6    6  503    0  0.29249965381E+03 -0.16142123038E+03 -0.41073184314E+03  0.52944641661E+03  0.00000000000E+00 0. -1.
         -3    1    6    6    0  503 -0.22537928990E+01  0.31722972874E+01 -0.24429587832E+02  0.24737578987E+02  0.00000000000E+00 0.  1.
<mgrwt>
<rscale>  0 0.17499287E+04</rscale>
<asrwt>0</asrwt>
<pdfrwt beam="1">  1        2 0.30503755E+00 0.17499287E+04</pdfrwt>
<pdfrwt beam="2">  1       -2 0.59401952E-01 0.17499287E+04</pdfrwt>
<totfact> 0.17127327E+01</totfact>
</mgrwt>
</event>
<event>
12    3  0.4769008E-008  0.1323748E+04  0.7818608E-02  0.9010942E-01
         -2   -1    0    0    0  501 -0.00000000000E+00  0.00000000000E+00  0.23116580994E+03  0.23116580994E+03  0.00000000000E+00 0.  1.
          2   -1    0    0  501    0  0.00000000000E+00 -0.00000000000E+00 -0.18950784316E+04  0.18950784316E+04  0.00000000000E+00 0. -1.
         23    2    1    2    0    0  0.18704062077E+03 -0.22712809996E+03 -0.53140440315E+03  0.61447308125E+03  0.92817887747E+02 0.  0.
        254    2    1    2    0    0 -0.18704062077E+03  0.22712809996E+03 -0.11325082185E+04  0.15117711603E+04  0.95723863717E+03 0.  0.
         23    2    4    4    0    0 -0.60561091907E+02  0.56745716235E+03 -0.90566728715E+03  0.10741498897E+04  0.88822709130E+02 0.  0.
         23    2    4    4    0    0 -0.12647952886E+03 -0.34032906239E+03 -0.22684093139E+03  0.43762127058E+03  0.90744842150E+02 0.  0.
          1    1    3    3  502    0  0.35268634250E+02 -0.10375805882E+01 -0.77460941834E+02  0.85118450674E+02  0.00000000000E+00 0. -1.
         -1    1    3    3    0  502  0.15177198652E+03 -0.22609051937E+03 -0.45394346132E+03  0.52935463058E+03  0.00000000000E+00 0.  1.
         13    1    5    5    0    0 -0.71151227508E+02  0.53917615445E+03 -0.88012260838E+03  0.10345961669E+04  0.00000000000E+00 0.  1.
        -13    1    5    5    0    0  0.10590135601E+02  0.28281007899E+02 -0.25544678764E+02  0.39553722871E+02  0.00000000000E+00 0. -1.
          2    1    6    6  503    0 -0.34090808931E+02 -0.20833389039E+03 -0.15098443043E+03  0.25954092427E+03  0.00000000000E+00 0. -1.
         -2    1    6    6    0  503 -0.92388719932E+02 -0.13199517200E+03 -0.75856500958E+02  0.17808034630E+03  0.00000000000E+00 0.  1.
<mgrwt>
<rscale>  0 0.13237482E+04</rscale>
<asrwt>0</asrwt>
<pdfrwt beam="1">  1        2 0.29155053E+00 0.13237482E+04</pdfrwt>
<pdfrwt beam="2">  1       -2 0.35563971E-01 0.13237482E+04</pdfrwt>
<totfact> 0.55575893E+01</totfact>
</mgrwt>
</event>
<event>
12    3  0.4769008E-008  0.2082670E+04  0.7818608E-02  0.8568916E-01
         -1   -1    0    0    0  501 -0.00000000000E+00  0.00000000000E+00  0.60367751565E+03  0.60367751565E+03  0.00000000000E+00 0.  1.
          1   -1    0    0  501    0  0.00000000000E+00 -0.00000000000E+00 -0.17962869980E+04  0.17962869980E+04  0.00000000000E+00 0. -1.
         23    2    1    2    0    0 -0.83929777324E+03  0.81339900991E+02 -0.48707514557E+03  0.97799050433E+03  0.90478160137E+02 0.  0.
        254    2    1    2    0    0  0.83929777324E+03 -0.81339900991E+02 -0.70553433675E+03  0.14219740093E+04  0.90177294876E+03 0.  0.
         23    2    4    4    0    0 -0.14404306596E+02  0.84654836712E+02 -0.51118688835E+03  0.52622780119E+03  0.90717906183E+02 0.  0.
         23    2    4    4    0    0  0.85370207984E+03 -0.16599473770E+03 -0.19434744840E+03  0.89574620810E+03  0.90712979032E+02 0.  0.
          3    1    3    3  502    0 -0.75864685636E+03  0.74145820302E+02 -0.40700601504E+03  0.86411605217E+03  0.00000000000E+00 0. -1.
         -3    1    3    3    0  502 -0.80650916877E+02  0.71940806891E+01 -0.80069130534E+02  0.11387445216E+03  0.00000000000E+00 0.  1.
         13    1    5    5    0    0 -0.50891621820E+01  0.95247298580E+02 -0.49754211773E+03  0.50660251319E+03  0.00000000000E+00 0. -1.
        -13    1    5    5    0    0 -0.93151444144E+01 -0.10592461868E+02 -0.13644770621E+02  0.19625288003E+02  0.00000000000E+00 0.  1.
          1    1    6    6  503    0  0.56963610203E+03 -0.68188674296E+02 -0.11689312491E+03  0.58549038138E+03  0.00000000000E+00 0. -1.
         -1    1    6    6    0  503  0.28406597780E+03 -0.97806063407E+02 -0.77454323486E+02  0.31025582672E+03  0.00000000000E+00 0.  1.
<mgrwt>
<rscale>  0 0.20826695E+04</rscale>
<asrwt>0</asrwt>
<pdfrwt beam="1">  1        1 0.27635184E+00 0.20826695E+04</pdfrwt>
<pdfrwt beam="2">  1       -1 0.92873465E-01 0.20826695E+04</pdfrwt>
<totfact> 0.42511658E+00</totfact>
</mgrwt>
</event>
<event>
12    3  0.4769008E-008  0.2035687E+04  0.7818608E-02  0.8590115E-01
         -2   -1    0    0    0  501 -0.00000000000E+00  0.00000000000E+00  0.43181143636E+03  0.43181143636E+03  0.00000000000E+00 0. -1.
          2   -1    0    0  501    0  0.00000000000E+00 -0.00000000000E+00 -0.23992070345E+04  0.23992070345E+04  0.00000000000E+00 0.  1.
         23    2    1    2    0    0  0.49966813550E+03 -0.78264576853E+02  0.92462281855E+02  0.52291869466E+03  0.95399675252E+02 0.  0.
        254    2    1    2    0    0 -0.49966813550E+03  0.78264576853E+02 -0.20598578800E+04  0.23080997762E+04  0.91022881822E+03 0.  0.
         23    2    4    4    0    0 -0.31636970078E+03 -0.29783168899E+02 -0.11544634624E+03  0.34998669315E+03  0.90476526247E+02 0.  0.
         23    2    4    4    0    0 -0.18329843472E+03  0.10804774575E+03 -0.19444115337E+04  0.19581130830E+04  0.90542818091E+02 0.  0.
          4    1    3    3  502    0  0.15365650371E+03  0.11366459191E+02  0.54696657010E+02  0.16349691684E+03  0.00000000000E+00 0. -1.
         -4    1    3    3    0  502  0.34601163178E+03 -0.89631036044E+02  0.37765624845E+02  0.35942177782E+03  0.00000000000E+00 0.  1.
         13    1    5    5    0    0 -0.28606206100E+03  0.17220548943E+01 -0.10723423247E+03  0.30550556268E+03  0.00000000000E+00 0. -1.
        -13    1    5    5    0    0 -0.30307639781E+02 -0.31505223793E+02 -0.82121137734E+01  0.44481130471E+02  0.00000000000E+00 0.  1.
          4    1    6    6  503    0 -0.14381258422E+03  0.81138738638E+02 -0.17556326558E+04  0.17633807237E+04  0.00000000000E+00 0. -1.
         -4    1    6    6    0  503 -0.39485850493E+02  0.26909007114E+02 -0.18877887788E+03  0.19473235937E+03  0.00000000000E+00 0.  1.
<mgrwt>
<rscale>  0 0.20356867E+04</rscale>
<asrwt>0</asrwt>
<pdfrwt beam="1">  1        2 0.36910878E+00 0.20356867E+04</pdfrwt>
<pdfrwt beam="2">  1       -2 0.66432527E-01 0.20356867E+04</pdfrwt>
<totfact> 0.76807701E+00</totfact>
</mgrwt>
</event>
<event>
12    3  0.4769008E-008  0.1389308E+04  0.7818608E-02  0.8961595E-01
          1   -1    0    0  501    0  0.00000000000E+00  0.00000000000E+00  0.84798239384E+03  0.84798239384E+03  0.00000000000E+00 0. -1.
         -1   -1    0    0    0  501 -0.00000000000E+00 -0.00000000000E+00 -0.56904941107E+03  0.56904941107E+03  0.00000000000E+00 0.  1.
         23    2    1    2    0    0 -0.22336814136E+03  0.85274479323E+02 -0.24163037003E+03  0.35176198384E+03  0.90477589231E+02 0.  0.
        254    2    1    2    0    0  0.22336814136E+03 -0.85274479323E+02  0.52056335280E+03  0.10652698211E+04  0.89813613892E+03 0.  0.
         23    2    4    4    0    0 -0.45734243090E+02 -0.41764143198E+02 -0.23345671251E+03  0.25814419844E+03  0.91107222131E+02 0.  0.
         23    2    4    4    0    0  0.26910238445E+03 -0.43510336125E+02  0.75402006531E+03  0.80712562264E+03  0.92716067457E+02 0.  0.
          2    1    3    3  502    0 -0.17246464785E+02  0.40607417999E+02 -0.32940784362E+02  0.55059043022E+02  0.00000000000E+00 0. -1.
         -2    1    3    3    0  502 -0.20612167657E+03  0.44667061324E+02 -0.20868958567E+03  0.29670294081E+03  0.00000000000E+00 0.  1.
         13    1    5    5    0    0 -0.51496615268E+02 -0.65296403705E+02 -0.15326071762E+03  0.17436848708E+03  0.00000000000E+00 0.  1.
        -13    1    5    5    0    0  0.57623721777E+01  0.23532260507E+02 -0.80195994892E+02  0.83775711364E+02  0.00000000000E+00 0. -1.
          1    1    6    6  503    0  0.19200531076E+03 -0.72268657921E+02  0.51629957595E+03  0.55556642303E+03  0.00000000000E+00 0. -1.
         -1    1    6    6    0  503  0.77097073690E+02  0.28758321796E+02  0.23772048936E+03  0.25155919961E+03  0.00000000000E+00 0.  1.
<mgrwt>
<rscale>  0 0.13893076E+04</rscale>
<asrwt>0</asrwt>
<pdfrwt beam="1">  1        1 0.13045883E+00 0.13893076E+04</pdfrwt>
<pdfrwt beam="2">  1       -1 0.87546063E-01 0.13893076E+04</pdfrwt>
<totfact> 0.25198011E+01</totfact>
</mgrwt>
</event>
<event>
12    3  0.4769008E-008  0.2195877E+04  0.7818608E-02  0.8520146E-01
          1   -1    0    0  501    0  0.00000000000E+00  0.00000000000E+00  0.19536343154E+04  0.19536343154E+04  0.00000000000E+00 0. -1.
         -1   -1    0    0    0  501 -0.00000000000E+00 -0.00000000000E+00 -0.61703941285E+03  0.61703941285E+03  0.00000000000E+00 0.  1.
         23    2    1    2    0    0  0.49057115621E+03 -0.73344949956E+03  0.83716383967E+03  0.12196843243E+04  0.90434113270E+02 0.  0.
        254    2    1    2    0    0 -0.49057115621E+03  0.73344949956E+03  0.49943106286E+03  0.13509894039E+04  0.89282291370E+03 0.  0.
         23    2    4    4    0    0 -0.69702866679E+03  0.39026837588E+03  0.48637521324E+03  0.93984060546E+03  0.92634486436E+02 0.  0.
         23    2    4    4    0    0  0.20645751058E+03  0.34318112368E+03  0.13055849615E+02  0.41114879845E+03  0.92059176257E+02 0.  0.
          4    1    3    3  502    0  0.49078592058E+03 -0.73316051148E+03  0.83918487021E+03  0.12176314721E+04  0.00000000000E+00 0. -1.
         -4    1    3    3    0  502 -0.21476436945E+00 -0.28898807544E+00 -0.20210305407E+01  0.20528522325E+01  0.00000000000E+00 0.  1.
         13    1    5    5    0    0 -0.14170113167E+03  0.12416432669E+03  0.11252075288E+03  0.21944682856E+03  0.00000000000E+00 0. -1.
        -13    1    5    5    0    0 -0.55532753512E+03  0.26610404919E+03  0.37385446036E+03  0.72039377690E+03  0.00000000000E+00 0.  1.
          3    1    6    6  503    0  0.54537553187E+02  0.16527594023E+03 -0.18765072966E+02  0.17505030446E+03  0.00000000000E+00 0. -1.
         -3    1    6    6    0  503  0.15191995739E+03  0.17790518345E+03  0.31820922581E+02  0.23609849399E+03  0.00000000000E+00 0.  1.
<mgrwt>
<rscale>  0 0.21958774E+04</rscale>
<asrwt>0</asrwt>
<pdfrwt beam="1">  1        1 0.30055912E+00 0.21958774E+04</pdfrwt>
<pdfrwt beam="2">  1       -1 0.94929141E-01 0.21958774E+04</pdfrwt>
<totfact> 0.31336789E+00</totfact>
</mgrwt>
</event>
<event>
12    3  0.4769008E-008  0.1198047E+04  0.7818608E-02  0.9114568E-01
         -2   -1    0    0    0  501 -0.00000000000E+00  0.00000000000E+00  0.21639301203E+03  0.21639301203E+03  0.00000000000E+00 0.  1.
          2   -1    0    0  501    0  0.00000000000E+00 -0.00000000000E+00 -0.16582279326E+04  0.16582279326E+04  0.00000000000E+00 0. -1.
         23    2    1    2    0    0  0.17523763658E+03  0.54217262530E+02 -0.56946619074E+03  0.60535819844E+03  0.92298782241E+02 0.  0.
        254    2    1    2    0    0 -0.17523763658E+03 -0.54217262530E+02 -0.87236872985E+03  0.12692627462E+04  0.90352253833E+03 0.  0.
         23    2    4    4    0    0 -0.44211511660E+03  0.11091313606E+03 -0.16771145443E+03  0.49310884583E+03  0.85215619535E+02 0.  0.
         23    2    4    4    0    0  0.26687748002E+03 -0.16513039859E+03 -0.70465727542E+03  0.77615390038E+03  0.85914861305E+02 0.  0.
          1    1    3    3  502    0  0.69604484450E+02  0.20316036697E+02 -0.10352691034E+03  0.12639361838E+03  0.00000000000E+00 0. -1.
         -1    1    3    3    0  502  0.10563315213E+03  0.33901225833E+02 -0.46593928039E+03  0.47896458006E+03  0.00000000000E+00 0.  1.
         13    1    5    5    0    0 -0.21655224068E+03  0.12492138478E+02 -0.92100483390E+02  0.23565531080E+03  0.00000000000E+00 0. -1.
        -13    1    5    5    0    0 -0.22556287592E+03  0.98420997585E+02 -0.75610971041E+02  0.25745353503E+03  0.00000000000E+00 0.  1.
          3    1    6    6  503    0  0.12628090121E+03 -0.36875683076E+02 -0.23340891708E+03  0.26792985012E+03  0.00000000000E+00 0. -1.
         -3    1    6    6    0  503  0.14059657881E+03 -0.12825471552E+03 -0.47124835834E+03  0.50822405026E+03  0.00000000000E+00 0.  1.
<mgrwt>
<rscale>  0 0.11980466E+04</rscale>
<asrwt>0</asrwt>
<pdfrwt beam="1">  1        2 0.25511199E+00 0.11980466E+04</pdfrwt>
<pdfrwt beam="2">  1       -2 0.33291232E-01 0.11980466E+04</pdfrwt>
<totfact> 0.86038696E+01</totfact>
</mgrwt>
</event>
<event>
12    3  0.4769008E-008  0.1303631E+04  0.7818608E-02  0.9026691E-01
          2   -1    0    0  501    0  0.00000000000E+00  0.00000000000E+00  0.14755256482E+04  0.14755256482E+04  0.00000000000E+00 0.  1.
         -2   -1    0    0    0  501 -0.00000000000E+00 -0.00000000000E+00 -0.28794035967E+03  0.28794035967E+03  0.00000000000E+00 0. -1.
         23    2    1    2    0    0  0.19363670415E+03  0.11887169671E+03 -0.10835387214E+02  0.24372960271E+03  0.87527482255E+02 0.  0.
        254    2    1    2    0    0 -0.19363670415E+03 -0.11887169671E+03  0.11984206758E+04  0.15197364052E+04  0.90651032626E+03 0.  0.
         23    2    4    4    0    0  0.35127309746E+03 -0.11532945504E+03  0.45771211246E+03  0.59601918783E+03  0.95104270002E+02 0.  0.
         23    2    4    4    0    0 -0.54490980161E+03 -0.35422416728E+01  0.74070856330E+03  0.92371721733E+03  0.87550456763E+02 0.  0.
          1    1    3    3  502    0  0.10543336192E+03  0.81978840105E+02 -0.46893934758E+02  0.14154774865E+03  0.00000000000E+00 0. -1.
         -1    1    3    3    0  502  0.88203342233E+02  0.36892856609E+02  0.36058547544E+02  0.10218185407E+03  0.00000000000E+00 0.  1.
         13    1    5    5    0    0  0.33716473634E+03 -0.92481116280E+02  0.39327720899E+03  0.52621267507E+03  0.00000000000E+00 0.  1.
        -13    1    5    5    0    0  0.14108361116E+02 -0.22848338762E+02  0.64434903475E+02  0.69806512758E+02  0.00000000000E+00 0. -1.
          2    1    6    6  503    0 -0.52590652575E+03 -0.66225153158E+01  0.73469681655E+03  0.90354908211E+03  0.00000000000E+00 0.  1.
         -2    1    6    6    0  503 -0.19003275861E+02  0.30802736430E+01  0.60117467463E+01  0.20168135216E+02  0.00000000000E+00 0. -1.
<mgrwt>
<rscale>  0 0.13036309E+04</rscale>
<asrwt>0</asrwt>
<pdfrwt beam="1">  1        2 0.22700394E+00 0.13036309E+04</pdfrwt>
<pdfrwt beam="2">  1       -2 0.44298518E-01 0.13036309E+04</pdfrwt>
<totfact> 0.62039672E+01</totfact>
</mgrwt>
</event>
<event>
12    3  0.4769008E-008  0.2810489E+04  0.7818608E-02  0.8300019E-01
          1   -1    0    0  501    0  0.00000000000E+00  0.00000000000E+00  0.22695465189E+04  0.22695465189E+04  0.00000000000E+00 0. -1.
         -1   -1    0    0    0  501 -0.00000000000E+00 -0.00000000000E+00 -0.87009106373E+03  0.87009106373E+03  0.00000000000E+00 0.  1.
         23    2    1    2    0    0 -0.10437661034E+04 -0.70148092859E+03  0.69329097338E+03  0.14390009173E+04  0.92455905937E+02 0.  0.
        254    2    1    2    0    0  0.10437661034E+04  0.70148092859E+03  0.70616448175E+03  0.17006366652E+04  0.90109578848E+03 0.  0.
         23    2    4    4    0    0  0.96907048194E+03  0.26583300965E+03  0.21085623587E+03  0.10306902714E+04  0.89984973540E+02 0.  0.
         23    2    4    4    0    0  0.74695621485E+02  0.43564791893E+03  0.49530824588E+03  0.66994639379E+03  0.90163002255E+02 0.  0.
          1    1    3    3  502    0 -0.86287880001E+02 -0.30709121364E+02  0.41954580189E+02  0.10074142727E+03  0.00000000000E+00 0. -1.
         -1    1    3    3    0  502 -0.95747822342E+03 -0.67077180722E+03  0.65133639319E+03  0.13382594901E+04  0.00000000000E+00 0.  1.
         13    1    5    5    0    0  0.14935105618E+03  0.38401588421E+02  0.66093196028E+02  0.16777583419E+03  0.00000000000E+00 0. -1.
        -13    1    5    5    0    0  0.81971942576E+03  0.22743142123E+03  0.14476303984E+03  0.86291443726E+03  0.00000000000E+00 0.  1.
          3    1    6    6  503    0 -0.66142149962E+01  0.64753987010E+01  0.31488285071E+02  0.32820583863E+02  0.00000000000E+00 0. -1.
         -3    1    6    6    0  503  0.81309836481E+02  0.42917252023E+03  0.46381996080E+03  0.63712580992E+03  0.00000000000E+00 0.  1.
<mgrwt>
<rscale>  0 0.28104890E+04</rscale>
<asrwt>0</asrwt>
<pdfrwt beam="1">  1        1 0.34916100E+00 0.28104890E+04</pdfrwt>
<pdfrwt beam="2">  1       -1 0.13386016E+00 0.28104890E+04</pdfrwt>
<totfact> 0.79490399E-01</totfact>
</mgrwt>
</event>
<event>
12    3  0.4769008E-008  0.3100445E+04  0.7818608E-02  0.8215616E-01
          2   -1    0    0  501    0  0.00000000000E+00  0.00000000000E+00  0.15847872557E+04  0.15847872557E+04  0.00000000000E+00 0.  1.
         -2   -1    0    0    0  501 -0.00000000000E+00 -0.00000000000E+00 -0.15164114754E+04  0.15164114754E+04  0.00000000000E+00 0. -1.
         23    2    1    2    0    0 -0.28969399338E+03 -0.64443666180E+03 -0.11969425530E+04  0.13929580932E+04  0.91867040861E+02 0.  0.
        254    2    1    2    0    0  0.28969399338E+03  0.64443666180E+03  0.12653183334E+04  0.17082406379E+04  0.90434195496E+03 0.  0.
         23    2    4    4    0    0 -0.27904602840E+03  0.36031382209E+03  0.75735589231E+03  0.88865355629E+03  0.91784852377E+02 0.  0.
         23    2    4    4    0    0  0.56874002179E+03  0.28412283971E+03  0.50796244106E+03  0.81958708166E+03  0.97499448556E+02 0.  0.
          1    1    3    3  502    0 -0.17608257717E+03 -0.31308865919E+03 -0.66990286024E+03  0.76013118911E+03  0.00000000000E+00 0. -1.
         -1    1    3    3    0  502 -0.11361141621E+03 -0.33134800261E+03 -0.52703969279E+03  0.63282690406E+03  0.00000000000E+00 0.  1.
         13    1    5    5    0    0 -0.26993514449E+02  0.95522643098E+02  0.16689419334E+03  0.19418263810E+03  0.00000000000E+00 0. -1.
        -13    1    5    5    0    0 -0.25205251396E+03  0.26479117899E+03  0.59046169897E+03  0.69447091819E+03  0.00000000000E+00 0.  1.
          2    1    6    6  503    0  0.48088430608E+03  0.22120487161E+03  0.37729598498E+03  0.65002582360E+03  0.00000000000E+00 0. -1.
         -2    1    6    6    0  503  0.87855715705E+02  0.62917968103E+02  0.13066645607E+03  0.16956125806E+03  0.00000000000E+00 0.  1.
<mgrwt>
<rscale>  0 0.31004449E+04</rscale>
<asrwt>0</asrwt>
<pdfrwt beam="1">  1        2 0.24381342E+00 0.31004449E+04</pdfrwt>
<pdfrwt beam="2">  1       -2 0.23329407E+00 0.31004449E+04</pdfrwt>
<totfact> 0.78734655E-01</totfact>
</mgrwt>
</event>
<event>
12    3  0.4769008E-008  0.1694713E+04  0.7818608E-02  0.8764386E-01
          2   -1    0    0  501    0  0.00000000000E+00  0.00000000000E+00  0.11733416796E+04  0.11733416796E+04  0.00000000000E+00 0. -1.
         -2   -1    0    0    0  501 -0.00000000000E+00 -0.00000000000E+00 -0.61193837269E+03  0.61193837269E+03  0.00000000000E+00 0.  1.
         23    2    1    2    0    0 -0.56121097099E+03 -0.21452981839E+03  0.26405860878E+03  0.66301536273E+03  0.94242375910E+02 0.  0.
        254    2    1    2    0    0  0.56121097099E+03  0.21452981839E+03  0.29734469815E+03  0.11222646896E+04  0.90004631381E+03 0.  0.
         23    2    4    4    0    0  0.30588970257E+03 -0.26166398599E+03  0.38838356353E+03  0.56684532467E+03  0.91843769417E+02 0.  0.
         23    2    4    4    0    0  0.25532126842E+03  0.47619380438E+03 -0.91038865384E+02  0.55541936490E+03  0.90846609535E+02 0.  0.
          1    1    3    3  502    0 -0.15047326806E+03 -0.28065142970E+02  0.10090369288E+03  0.18333415363E+03  0.00000000000E+00 0. -1.
         -1    1    3    3    0  502 -0.41073770293E+03 -0.18646467542E+03  0.16315491590E+03  0.47968120910E+03  0.00000000000E+00 0.  1.
         13    1    5    5    0    0  0.52166218918E+02 -0.87845249142E+02  0.67958137715E+02  0.12270456664E+03  0.00000000000E+00 0. -1.
        -13    1    5    5    0    0  0.25372348365E+03 -0.17381873685E+03  0.32042542581E+03  0.44414075803E+03  0.00000000000E+00 0.  1.
          4    1    6    6  503    0  0.73087936763E+02  0.98984441671E+02 -0.55532983322E+02  0.13499510521E+03  0.00000000000E+00 0. -1.
         -4    1    6    6    0  503  0.18223333166E+03  0.37720936270E+03 -0.35505882062E+02  0.42042425969E+03  0.00000000000E+00 0.  1.
<mgrwt>
<rscale>  0 0.16947127E+04</rscale>
<asrwt>0</asrwt>
<pdfrwt beam="1">  1        2 0.18051410E+00 0.16947127E+04</pdfrwt>
<pdfrwt beam="2">  1       -2 0.94144366E-01 0.16947127E+04</pdfrwt>
<totfact> 0.17811663E+01</totfact>
</mgrwt>
</event>
<event>
12    3  0.4769008E-008  0.1498809E+04  0.7818608E-02  0.8885245E-01
         -1   -1    0    0    0  501 -0.00000000000E+00  0.00000000000E+00  0.80569204152E+03  0.80569204152E+03  0.00000000000E+00 0.  1.
          1   -1    0    0  501    0  0.00000000000E+00 -0.00000000000E+00 -0.69704934407E+03  0.69704934407E+03  0.00000000000E+00 0. -1.
         23    2    1    2    0    0 -0.17476855820E+02  0.19868587124E+03 -0.39484112696E+03  0.45221035611E+03  0.93878510371E+02 0.  0.
        254    2    1    2    0    0  0.17476855820E+02 -0.19868587124E+03  0.50348382441E+03  0.10505310295E+04  0.90018773961E+03 0.  0.
         23    2    4    4    0    0 -0.30200619355E+03 -0.33265812457E+03  0.51834888699E+03  0.69201228593E+03  0.91248377799E+02 0.  0.
         23    2    4    4    0    0  0.31948304937E+03  0.13397225333E+03 -0.14865062586E+02  0.35851874355E+03  0.91086419927E+02 0.  0.
          1    1    3    3  502    0 -0.33869169004E+02  0.17187152282E+03 -0.25830060079E+03  0.31209956958E+03  0.00000000000E+00 0. -1.
         -1    1    3    3    0  502  0.16392313184E+02  0.26814348417E+02 -0.13654052617E+03  0.14011078652E+03  0.00000000000E+00 0.  1.
         13    1    5    5    0    0 -0.71812984692E+01 -0.42971271917E+02  0.67809831864E+02  0.80599469944E+02  0.00000000000E+00 0.  1.
        -13    1    5    5    0    0 -0.29482489508E+03 -0.28968685265E+03  0.45053905513E+03  0.61141281599E+03  0.00000000000E+00 0. -1.
          2    1    6    6  503    0  0.28984281316E+03  0.13462132013E+03 -0.36724801243E+02  0.32168380002E+03  0.00000000000E+00 0. -1.
         -2    1    6    6    0  503  0.29640236212E+02 -0.64906679937E+00  0.21859738657E+02  0.36834943526E+02  0.00000000000E+00 0.  1.
<mgrwt>
<rscale>  0 0.14988090E+04</rscale>
<asrwt>0</asrwt>
<pdfrwt beam="1">  1        1 0.10723836E+00 0.14988090E+04</pdfrwt>
<pdfrwt beam="2">  1       -1 0.12395262E+00 0.14988090E+04</pdfrwt>
<totfact> 0.15163940E+01</totfact>
</mgrwt>
</event>
<event>
12    3  0.4769008E-008  0.1144849E+04  0.7818608E-02  0.9162548E-01
          1   -1    0    0  501    0  0.00000000000E+00  0.00000000000E+00  0.14359487007E+04  0.14359487007E+04  0.00000000000E+00 0. -1.
         -1   -1    0    0    0  501 -0.00000000000E+00 -0.00000000000E+00 -0.22819059936E+03  0.22819059936E+03  0.00000000000E+00 0.  1.
         23    2    1    2    0    0  0.30190581912E+02  0.14072363271E+03  0.38507030492E+02  0.17419350519E+03  0.90255048696E+02 0.  0.
        254    2    1    2    0    0 -0.30190581912E+02 -0.14072363271E+03  0.11692510709E+04  0.14899457949E+04  0.91218188590E+03 0.  0.
         23    2    4    4    0    0  0.15305023283E+03  0.13488839031E+03  0.11208485967E+04  0.11429774591E+04  0.92068690378E+02 0.  0.
         23    2    4    4    0    0 -0.18324081474E+03 -0.27561202302E+03  0.48402474208E+02  0.34696833580E+03  0.92222790678E+02 0.  0.
          1    1    3    3  502    0  0.37511711092E+02  0.17663546736E+02  0.28903222277E+02  0.50542315047E+02  0.00000000000E+00 0. -1.
         -1    1    3    3    0  502 -0.73211291797E+01  0.12306008597E+03  0.96038082151E+01  0.12365119015E+03  0.00000000000E+00 0.  1.
         13    1    5    5    0    0  0.14222932916E+03  0.14770387419E+03  0.10688408775E+04  0.10883319521E+04  0.00000000000E+00 0.  1.
        -13    1    5    5    0    0  0.10820903665E+02 -0.12815483880E+02  0.52007719142E+02  0.54645506984E+02  0.00000000000E+00 0. -1.
          4    1    6    6  503    0 -0.64084599600E+02 -0.33064992427E+02 -0.16779748544E+01  0.72131444112E+02  0.00000000000E+00 0. -1.
         -4    1    6    6    0  503 -0.11915621514E+03 -0.24254703059E+03  0.50080449062E+02  0.27483689169E+03  0.00000000000E+00 0.  1.
<mgrwt>
<rscale>  0 0.11448493E+04</rscale>
<asrwt>0</asrwt>
<pdfrwt beam="1">  1        1 0.22091518E+00 0.11448493E+04</pdfrwt>
<pdfrwt beam="2">  1       -1 0.35106247E-01 0.11448493E+04</pdfrwt>
<totfact> 0.55565005E+01</totfact>
</mgrwt>
</event>
<event>
12    3  0.4769008E-008  0.1539489E+04  0.7818608E-02  0.8858609E-01
          2   -1    0    0  501    0  0.00000000000E+00  0.00000000000E+00  0.16273966345E+04  0.16273966345E+04  0.00000000000E+00 0. -1.
         -2   -1    0    0    0  501 -0.00000000000E+00 -0.00000000000E+00 -0.36408265839E+03  0.36408265839E+03  0.00000000000E+00 0.  1.
         23    2    1    2    0    0 -0.29179469702E+02 -0.29350439868E+03  0.94594906843E+03  0.99494697285E+03  0.90019804556E+02 0.  0.
        254    2    1    2    0    0  0.29179469702E+02  0.29350439868E+03  0.31736490763E+03  0.99653232000E+03  0.89741846800E+03 0.  0.
         23    2    4    4    0    0  0.20707460725E+03  0.52391097380E+03  0.37963827574E+03  0.68553732160E+03  0.92052145359E+02 0.  0.
         23    2    4    4    0    0 -0.17789513755E+03 -0.23040657512E+03 -0.62273368105E+02  0.31099499840E+03  0.90033587256E+02 0.  0.
          2    1    3    3  502    0  0.23833566986E+02 -0.19542679975E+03  0.60933563703E+03  0.64035114705E+03  0.00000000000E+00 0. -1.
         -2    1    3    3    0  502 -0.53013036688E+02 -0.98077598934E+02  0.33661343140E+03  0.35459582579E+03  0.00000000000E+00 0.  1.
         13    1    5    5    0    0  0.11902421468E+03  0.19929288373E+03  0.12480356027E+03  0.26355330739E+03  0.00000000000E+00 0. -1.
        -13    1    5    5    0    0  0.88050392572E+02  0.32461809007E+03  0.25483471547E+03  0.42198401420E+03  0.00000000000E+00 0.  1.
          2    1    6    6  503    0 -0.94273437776E+02 -0.13960832585E+03  0.85646049432E+01  0.16867518541E+03  0.00000000000E+00 0. -1.
         -2    1    6    6    0  503 -0.83621699770E+02 -0.90798249270E+02 -0.70837973048E+02  0.14231981299E+03  0.00000000000E+00 0.  1.
<mgrwt>
<rscale>  0 0.15394894E+04</rscale>
<asrwt>0</asrwt>
<pdfrwt beam="1">  1        2 0.25036871E+00 0.15394894E+04</pdfrwt>
<pdfrwt beam="2">  1       -2 0.56012718E-01 0.15394894E+04</pdfrwt>
<totfact> 0.31033366E+01</totfact>
</mgrwt>
</event>
<event>
12    3  0.4769008E-008  0.1727877E+04  0.7818608E-02  0.8745623E-01
          2   -1    0    0  501    0  0.00000000000E+00  0.00000000000E+00  0.22476387003E+04  0.22476387003E+04  0.00000000000E+00 0.  1.
         -2   -1    0    0    0  501 -0.00000000000E+00 -0.00000000000E+00 -0.33207740575E+03  0.33207740575E+03  0.00000000000E+00 0. -1.
         23    2    1    2    0    0 -0.47916513031E+03 -0.40432534949E+03  0.95975612624E+03  0.11505073507E+04  0.97247785767E+02 0.  0.
        254    2    1    2    0    0  0.47916513031E+03  0.40432534949E+03  0.95580516833E+03  0.14292087554E+04  0.85790205516E+03 0.  0.
         23    2    4    4    0    0  0.13466754063E+03  0.11585115821E+03 -0.13775637404E+03  0.24353903594E+03  0.93688879171E+02 0.  0.
         23    2    4    4    0    0  0.34449758969E+03  0.28847419128E+03  0.10935615424E+04  0.11856697194E+04  0.89665424110E+02 0.  0.
          1    1    3    3  502    0 -0.10954257378E+02 -0.32585046358E+02  0.33002573066E+02  0.47654494330E+02  0.00000000000E+00 0. -1.
         -1    1    3    3    0  502 -0.46821087293E+03 -0.37174030313E+03  0.92675355318E+03  0.11028528564E+04  0.00000000000E+00 0.  1.
         13    1    5    5    0    0  0.11319005965E+03  0.10684655786E+03 -0.67747735424E+02  0.16975845247E+03  0.00000000000E+00 0. -1.
        -13    1    5    5    0    0  0.21477480977E+02  0.90046003547E+01 -0.70008638614E+02  0.73780583470E+02  0.00000000000E+00 0.  1.
          3    1    6    6  503    0  0.95758369062E+02  0.47092953872E+02  0.33698256753E+03  0.35347512270E+03  0.00000000000E+00 0. -1.
         -3    1    6    6    0  503  0.24873922062E+03  0.24138123741E+03  0.75657897485E+03  0.83219459673E+03  0.00000000000E+00 0.  1.
<mgrwt>
<rscale>  0 0.17278773E+04</rscale>
<asrwt>0</asrwt>
<pdfrwt beam="1">  1        2 0.34579056E+00 0.17278773E+04</pdfrwt>
<pdfrwt beam="2">  1       -2 0.51088833E-01 0.17278773E+04</pdfrwt>
<totfact> 0.16697831E+01</totfact>
</mgrwt>
</event>
<event>
12    3  0.4769008E-008  0.2015147E+04  0.7818608E-02  0.8599571E-01
         -1   -1    0    0    0  501 -0.00000000000E+00  0.00000000000E+00  0.17297637331E+04  0.17297637331E+04  0.00000000000E+00 0. -1.
          1   -1    0    0  501    0  0.00000000000E+00 -0.00000000000E+00 -0.58690372189E+03  0.58690372189E+03  0.00000000000E+00 0.  1.
         23    2    1    2    0    0  0.17253974837E+03  0.11693177526E+03 -0.43332277027E+03  0.48945588451E+03  0.91408067568E+02 0.  0.
        254    2    1    2    0    0 -0.17253974837E+03 -0.11693177526E+03  0.15761827815E+04  0.18272115705E+04  0.90050372451E+03 0.  0.
         23    2    4    4    0    0 -0.20770537032E+03 -0.48606111334E+03  0.82114989357E+03  0.98082240358E+03  0.91260686447E+02 0.  0.
         23    2    4    4    0    0  0.35165621949E+02  0.36912933807E+03  0.75503288788E+03  0.84638916689E+03  0.93844929758E+02 0.  0.
          1    1    3    3  502    0  0.15017900092E+02 -0.36356648106E+01 -0.31790706096E+01  0.15775356469E+02  0.00000000000E+00 0. -1.
         -1    1    3    3    0  502  0.15752184828E+03  0.12056744008E+03 -0.43014369966E+03  0.47368052804E+03  0.00000000000E+00 0.  1.
         13    1    5    5    0    0 -0.27588920583E+02 -0.62620952375E+02  0.58124671756E+02  0.89783125820E+02  0.00000000000E+00 0. -1.
        -13    1    5    5    0    0 -0.18011644974E+03 -0.42344016096E+03  0.76302522182E+03  0.89103927776E+03  0.00000000000E+00 0.  1.
          1    1    6    6  503    0  0.29142282877E+02  0.63343182390E+02  0.21173204280E+03  0.22291722534E+03  0.00000000000E+00 0. -1.
         -1    1    6    6    0  503  0.60233390725E+01  0.30578615569E+03  0.54330084508E+03  0.62347194154E+03  0.00000000000E+00 0.  1.
<mgrwt>
<rscale>  0 0.20151474E+04</rscale>
<asrwt>0</asrwt>
<pdfrwt beam="1">  1        1 0.90292881E-01 0.20151474E+04</pdfrwt>
<pdfrwt beam="2">  1       -1 0.26611750E+00 0.20151474E+04</pdfrwt>
<totfact> 0.17938822E+00</totfact>
</mgrwt>
</event>
<event>
12    3  0.4769008E-008  0.2036569E+04  0.7818608E-02  0.8589712E-01
         -2   -1    0    0    0  501 -0.00000000000E+00  0.00000000000E+00  0.36100616881E+03  0.36100616881E+03  0.00000000000E+00 0. -1.
          2   -1    0    0  501    0  0.00000000000E+00 -0.00000000000E+00 -0.28722584522E+04  0.28722584522E+04  0.00000000000E+00 0.  1.
         23    2    1    2    0    0  0.23458863638E+03  0.72277539753E+03 -0.54710734221E+03  0.94070381077E+03  0.90338873734E+02 0.  0.
        254    2    1    2    0    0 -0.23458863638E+03 -0.72277539753E+03 -0.19641449412E+04  0.22925608102E+04  0.90583310551E+03 0.  0.
         23    2    4    4    0    0 -0.32736342393E+03 -0.89513800307E+03 -0.14854322474E+04  0.17672593688E+04  0.90872763741E+02 0.  0.
         23    2    4    4    0    0  0.92774787543E+02  0.17236260555E+03 -0.47871269378E+03  0.52530144141E+03  0.91976802336E+02 0.  0.
          3    1    3    3  502    0  0.24023418944E+03  0.66429156211E+03 -0.50890881342E+03  0.87062272291E+03  0.00000000000E+00 0. -1.
         -3    1    3    3    0  502 -0.56455530537E+01  0.58483835422E+02 -0.38198528785E+02  0.70081087865E+02  0.00000000000E+00 0.  1.
         13    1    5    5    0    0 -0.11234731405E+03 -0.35760102845E+03 -0.50953711136E+03  0.63255709811E+03  0.00000000000E+00 0. -1.
        -13    1    5    5    0    0 -0.21501610988E+03 -0.53753697463E+03 -0.97589513602E+03  0.11347022707E+04  0.00000000000E+00 0.  1.
          1    1    6    6  503    0  0.47541831956E+02  0.46320337247E+02 -0.26428934797E+03  0.27249708050E+03  0.00000000000E+00 0. -1.
         -1    1    6    6    0  503  0.45232955587E+02  0.12604226830E+03 -0.21442334581E+03  0.25280436091E+03  0.00000000000E+00 0.  1.
<mgrwt>
<rscale>  0 0.20365687E+04</rscale>
<asrwt>0</asrwt>
<pdfrwt beam="1">  1        2 0.44188591E+00 0.20365687E+04</pdfrwt>
<pdfrwt beam="2">  1       -2 0.55539411E-01 0.20365687E+04</pdfrwt>
<totfact> 0.59058863E+00</totfact>
</mgrwt>
</event>
<event>
12    3  0.4769008E-008  0.1454247E+04  0.7818608E-02  0.8915461E-01
          2   -1    0    0  501    0  0.00000000000E+00  0.00000000000E+00  0.16300229959E+04  0.16300229959E+04  0.00000000000E+00 0.  1.
         -2   -1    0    0    0  501 -0.00000000000E+00 -0.00000000000E+00 -0.32435654713E+03  0.32435654713E+03  0.00000000000E+00 0. -1.
         23    2    1    2    0    0 -0.19680858525E+03  0.25792597468E+03  0.56845460922E+01  0.33680298733E+03  0.90246942127E+02 0.  0.
        254    2    1    2    0    0  0.19680858525E+03 -0.25792597468E+03  0.12999819027E+04  0.16175765557E+04  0.90627895189E+03 0.  0.
         23    2    4    4    0    0 -0.13389878724E+02 -0.54323364738E+03  0.53020329887E+03  0.76488500717E+03  0.93013179560E+02 0.  0.
         23    2    4    4    0    0  0.21019846397E+03  0.28530767269E+03  0.76977860379E+03  0.85269154852E+03  0.94551127472E+02 0.  0.
          1    1    3    3  502    0 -0.20173503009E+03  0.24335185172E+03 -0.80220037011E+01  0.31619851145E+03  0.00000000000E+00 0. -1.
         -1    1    3    3    0  502  0.49264448379E+01  0.14574122963E+02  0.13706549793E+02  0.20604475876E+02  0.00000000000E+00 0.  1.
         13    1    5    5    0    0  0.23214613053E+02 -0.44786895778E+03  0.41662213784E+03  0.61212705163E+03  0.00000000000E+00 0.  1.
        -13    1    5    5    0    0 -0.36604491778E+02 -0.95364689599E+02  0.11358116103E+03  0.15275795554E+03  0.00000000000E+00 0. -1.
          4    1    6    6  503    0  0.33347617167E+02  0.90608529747E+02  0.28850018978E+03  0.30422742930E+03  0.00000000000E+00 0.  1.
         -4    1    6    6    0  503  0.17685084681E+03  0.19469914295E+03  0.48127841401E+03  0.54846411922E+03  0.00000000000E+00 0. -1.
<mgrwt>
<rscale>  0 0.14542471E+04</rscale>
<asrwt>0</asrwt>
<pdfrwt beam="1">  1        2 0.25077276E+00 0.14542471E+04</pdfrwt>
<pdfrwt beam="2">  1       -2 0.49901008E-01 0.14542471E+04</pdfrwt>
<totfact> 0.39514575E+01</totfact>
</mgrwt>
</event>
<event>
12    3  0.4769008E-008  0.2215334E+04  0.7818608E-02  0.8512073E-01
          2   -1    0    0  501    0  0.00000000000E+00  0.00000000000E+00  0.15911881358E+04  0.15911881358E+04  0.00000000000E+00 0. -1.
         -2   -1    0    0    0  501 -0.00000000000E+00 -0.00000000000E+00 -0.77107577540E+03  0.77107577540E+03  0.00000000000E+00 0.  1.
         23    2    1    2    0    0  0.66063240047E+03  0.59451503115E+03  0.60542701906E+03  0.10796820730E+04  0.96375372592E+02 0.  0.
        254    2    1    2    0    0 -0.66063240047E+03 -0.59451503115E+03  0.21468534139E+03  0.12825818383E+04  0.89946822361E+03 0.  0.
         23    2    4    4    0    0 -0.50777657117E+03 -0.32967309735E+03  0.54772749416E+03  0.82154223275E+03  0.91677887144E+02 0.  0.
         23    2    4    4    0    0 -0.15285582930E+03 -0.26484193380E+03 -0.33304215277E+03  0.46103960554E+03  0.90190287188E+02 0.  0.
          2    1    3    3  502    0  0.42636377314E+03  0.40943083137E+03  0.35140769466E+03  0.68768236897E+03  0.00000000000E+00 0. -1.
         -2    1    3    3    0  502  0.23426862733E+03  0.18508419978E+03  0.25401932439E+03  0.39199970398E+03  0.00000000000E+00 0.  1.
         13    1    5    5    0    0 -0.15224192499E+03 -0.98086740471E+02  0.10987731267E+03  0.21182926195E+03  0.00000000000E+00 0.  1.
        -13    1    5    5    0    0 -0.35553464618E+03 -0.23158635688E+03  0.43785018150E+03  0.60971297080E+03  0.00000000000E+00 0. -1.
          3    1    6    6  503    0 -0.11191697395E+03 -0.14529912566E+03 -0.14182287089E+03  0.23184255796E+03  0.00000000000E+00 0. -1.
         -3    1    6    6    0  503 -0.40938855358E+02 -0.11954280815E+03 -0.19121928188E+03  0.22919704758E+03  0.00000000000E+00 0.  1.
<mgrwt>
<rscale>  0 0.22153344E+04</rscale>
<asrwt>0</asrwt>
<pdfrwt beam="1">  1        2 0.24479817E+00 0.22153344E+04</pdfrwt>
<pdfrwt beam="2">  1       -2 0.11862704E+00 0.22153344E+04</pdfrwt>
<totfact> 0.56270211E+00</totfact>
</mgrwt>
</event>
<event>
12    3  0.4769008E-008  0.1272707E+04  0.7818608E-02  0.9051493E-01
          1   -1    0    0  501    0  0.00000000000E+00  0.00000000000E+00  0.81555204090E+03  0.81555204090E+03  0.00000000000E+00 0. -1.
         -1   -1    0    0    0  501 -0.00000000000E+00 -0.00000000000E+00 -0.49652980089E+03  0.49652980089E+03  0.00000000000E+00 0.  1.
         23    2    1    2    0    0 -0.19961042756E+02 -0.25411003903E+03 -0.98734064261E+02  0.28864739987E+03  0.92728371300E+02 0.  0.
        254    2    1    2    0    0  0.19961042756E+02  0.25411003903E+03  0.41775630428E+03  0.10234344419E+04  0.89884780245E+03 0.  0.
         23    2    4    4    0    0 -0.74914828059E+02 -0.31780630885E+03  0.87749834691E+02  0.35007211616E+03  0.90759967048E+02 0.  0.
         23    2    4    4    0    0  0.94875870816E+02  0.57191634788E+03  0.33000646959E+03  0.67336232575E+03  0.91775878867E+02 0.  0.
          3    1    3    3  502    0 -0.20172315854E+02 -0.13209734426E+03 -0.31726728139E+01  0.13366636278E+03  0.00000000000E+00 0. -1.
         -3    1    3    3    0  502  0.21127309785E+00 -0.12201269477E+03 -0.95561391448E+02  0.15498103709E+03  0.00000000000E+00 0.  1.
         13    1    5    5    0    0 -0.47822940036E+02 -0.28578306238E+03  0.99745973293E+02  0.30644453254E+03  0.00000000000E+00 0. -1.
        -13    1    5    5    0    0 -0.27091888024E+02 -0.32023246468E+02 -0.11996138602E+02  0.43627583619E+02  0.00000000000E+00 0.  1.
          2    1    6    6  503    0  0.69978205030E+02  0.17304919259E+03  0.90483919593E+02  0.20743748923E+03  0.00000000000E+00 0.  1.
         -2    1    6    6    0  503  0.24897665786E+02  0.39886715529E+03  0.23952254999E+03  0.46592483652E+03  0.00000000000E+00 0. -1.
<mgrwt>
<rscale>  0 0.12727072E+04</rscale>
<asrwt>0</asrwt>
<pdfrwt beam="1">  1        1 0.12546955E+00 0.12727072E+04</pdfrwt>
<pdfrwt beam="2">  1       -1 0.76389200E-01 0.12727072E+04</pdfrwt>
<totfact> 0.36312263E+01</totfact>
</mgrwt>
</event>
<event>
12    3  0.4769008E-008  0.1732298E+04  0.7818608E-02  0.8743155E-01
         -2   -1    0    0    0  501 -0.00000000000E+00  0.00000000000E+00  0.20650744149E+03  0.20650744149E+03  0.00000000000E+00 0.  1.
          2   -1    0    0  501    0  0.00000000000E+00 -0.00000000000E+00 -0.36328675390E+04  0.36328675390E+04  0.00000000000E+00 0. -1.
         23    2    1    2    0    0 -0.20004033072E+02 -0.58336031500E+03 -0.18317241490E+04  0.19246019445E+04  0.90387323942E+02 0.  0.
        254    2    1    2    0    0  0.20004033072E+02  0.58336031500E+03 -0.15946359486E+04  0.19147730360E+04  0.88474999440E+03 0.  0.
         23    2    4    4    0    0  0.47445665531E+02  0.67251021715E+02 -0.13132423475E+04  0.13187791090E+04  0.88312422377E+02 0.  0.
         23    2    4    4    0    0 -0.27441632459E+02  0.51610929328E+03 -0.28139360105E+03  0.59599392702E+03  0.94363957782E+02 0.  0.
          2    1    3    3  502    0 -0.39862385115E+02 -0.42302272756E+03 -0.12187305621E+04  0.12906747928E+04  0.00000000000E+00 0. -1.
         -2    1    3    3    0  502  0.19858352043E+02 -0.16033758744E+03 -0.61299358692E+03  0.63392715173E+03  0.00000000000E+00 0.  1.
         13    1    5    5    0    0  0.27477997703E+02  0.11463994701E+02 -0.97022366478E+03  0.97068039191E+03  0.00000000000E+00 0. -1.
        -13    1    5    5    0    0  0.19967667828E+02  0.55787027014E+02 -0.34301868273E+03  0.34809871709E+03  0.00000000000E+00 0.  1.
          3    1    6    6  503    0  0.41835470590E+01  0.45224151415E+03 -0.22515050771E+03  0.50520554263E+03  0.00000000000E+00 0. -1.
         -3    1    6    6    0  503 -0.31625179518E+02  0.63867779138E+02 -0.56243093347E+02  0.90788384393E+02  0.00000000000E+00 0.  1.
<mgrwt>
<rscale>  0 0.17322981E+04</rscale>
<asrwt>0</asrwt>
<pdfrwt beam="1">  1        2 0.55890267E+00 0.17322981E+04</pdfrwt>
<pdfrwt beam="2">  1       -2 0.31770377E-01 0.17322981E+04</pdfrwt>
<totfact> 0.57763507E+00</totfact>
</mgrwt>
</event>
<event>
12    3  0.4769008E-008  0.1507964E+04  0.7818608E-02  0.8879174E-01
         -2   -1    0    0    0  501 -0.00000000000E+00  0.00000000000E+00  0.12857190230E+03  0.12857190230E+03  0.00000000000E+00 0.  1.
          2   -1    0    0  501    0  0.00000000000E+00 -0.00000000000E+00 -0.44215609193E+04  0.44215609193E+04  0.00000000000E+00 0. -1.
         23    2    1    2    0    0  0.18138721642E+03 -0.28272371311E+03 -0.24490205749E+04  0.24736295982E+04  0.91145993694E+02 0.  0.
        254    2    1    2    0    0 -0.18138721642E+03  0.28272371311E+03 -0.18439684420E+04  0.20765032234E+04  0.89376283288E+03 0.  0.
         23    2    4    4    0    0  0.24178636824E+03 -0.21337392491E+02 -0.14539150267E+03  0.29746799268E+03  0.91829109958E+02 0.  0.
         23    2    4    4    0    0 -0.42317358466E+03  0.30406110560E+03 -0.16985769394E+04  0.17790352307E+04  0.90959851570E+02 0.  0.
          3    1    3    3  502    0  0.92715536184E+02 -0.10346805395E+03 -0.12924753001E+04  0.12999208477E+04  0.00000000000E+00 0.  1.
         -3    1    3    3    0  502  0.88671680239E+02 -0.17925565916E+03 -0.11565452748E+04  0.11737087505E+04  0.00000000000E+00 0. -1.
         13    1    5    5    0    0  0.23282736114E+03  0.35570838436E+01 -0.13403983370E+03  0.26867807867E+03  0.00000000000E+00 0. -1.
        -13    1    5    5    0    0  0.89590071012E+01 -0.24894476335E+02 -0.11351668968E+02  0.28789914008E+02  0.00000000000E+00 0.  1.
          3    1    6    6  503    0 -0.37271977086E+03  0.28842021471E+03 -0.14413939927E+04  0.15164837256E+04  0.00000000000E+00 0. -1.
         -3    1    6    6    0  503 -0.50453813801E+02  0.15640890892E+02 -0.25718294664E+03  0.26255150512E+03  0.00000000000E+00 0.  1.
<mgrwt>
<rscale>  0 0.15079635E+04</rscale>
<asrwt>0</asrwt>
<pdfrwt beam="1">  1        2 0.68024003E+00 0.15079635E+04</pdfrwt>
<pdfrwt beam="2">  1       -2 0.19780296E-01 0.15079635E+04</pdfrwt>
<totfact> 0.31861440E+00</totfact>
</mgrwt>
</event>
<event>
12    3  0.4769008E-008  0.1357232E+04  0.7818608E-02  0.8985371E-01
          1   -1    0    0  501    0  0.00000000000E+00  0.00000000000E+00  0.12356393415E+04  0.12356393415E+04  0.00000000000E+00 0. -1.
         -1   -1    0    0    0  501 -0.00000000000E+00 -0.00000000000E+00 -0.37269767174E+03  0.37269767174E+03  0.00000000000E+00 0.  1.
         23    2    1    2    0    0 -0.24601767812E+03  0.48484530405E+02 -0.10909179847E+03  0.28790438551E+03  0.90069234842E+02 0.  0.
        254    2    1    2    0    0  0.24601767812E+03 -0.48484530405E+02  0.97203346822E+03  0.13204326277E+04  0.85779823582E+03 0.  0.
         23    2    4    4    0    0 -0.13803370155E+03 -0.38666448743E+02  0.90386598901E+03  0.91975610589E+03  0.91810518006E+02 0.  0.
         23    2    4    4    0    0  0.38405137966E+03 -0.98180816625E+01  0.68167479217E+02  0.40067652184E+03  0.91120870155E+02 0.  0.
          3    1    3    3  502    0 -0.41587859072E+02  0.38715955683E+02 -0.18577712662E+01  0.56850035714E+02  0.00000000000E+00 0. -1.
         -3    1    3    3    0  502 -0.20442981905E+03  0.97685747223E+01 -0.10723402721E+03  0.23105434979E+03  0.00000000000E+00 0.  1.
         13    1    5    5    0    0 -0.13279541223E+03 -0.89546581810E+01  0.81769199226E+03  0.82845337927E+03  0.00000000000E+00 0. -1.
        -13    1    5    5    0    0 -0.52382893143E+01 -0.29711790562E+02  0.86173996746E+02  0.91302726622E+02  0.00000000000E+00 0.  1.
          2    1    6    6  503    0  0.64627677118E+02 -0.10631163127E+02  0.46876633814E+02  0.80543013830E+02  0.00000000000E+00 0.  1.
         -2    1    6    6    0  503  0.31942370255E+03  0.81308146457E+00  0.21290845403E+02  0.32013350801E+03  0.00000000000E+00 0. -1.
<mgrwt>
<rscale>  0 0.13572323E+04</rscale>
<asrwt>0</asrwt>
<pdfrwt beam="1">  1        1 0.19009836E+00 0.13572323E+04</pdfrwt>
<pdfrwt beam="2">  1       -1 0.57338104E-01 0.13572323E+04</pdfrwt>
<totfact> 0.30327607E+01</totfact>
</mgrwt>
</event>
<event>
12    3  0.4769008E-008  0.1607158E+04  0.7818608E-02  0.8816163E-01
         -1   -1    0    0    0  501 -0.00000000000E+00  0.00000000000E+00  0.83232747020E+03  0.83232747020E+03  0.00000000000E+00 0.  1.
          1   -1    0    0  501    0  0.00000000000E+00 -0.00000000000E+00 -0.77582340126E+03  0.77582340126E+03  0.00000000000E+00 0. -1.
         23    2    1    2    0    0 -0.97280724585E+02  0.28912649356E+03  0.47561904802E+03  0.57248819940E+03  0.92041246010E+02 0.  0.
        254    2    1    2    0    0  0.97280724585E+02 -0.28912649356E+03 -0.41911497908E+03  0.10356626721E+04  0.89659474455E+03 0.  0.
         23    2    4    4    0    0 -0.80564000680E+01 -0.58443494536E+03 -0.38846461707E+03  0.70769680715E+03  0.91109281597E+02 0.  0.
         23    2    4    4    0    0  0.10533712465E+03  0.29530845180E+03 -0.30650362014E+02  0.32796586491E+03  0.91209496860E+02 0.  0.
          3    1    3    3  502    0 -0.91174152722E+02  0.14875863097E+03  0.30588921315E+03  0.35215063131E+03  0.00000000000E+00 0. -1.
         -3    1    3    3    0  502 -0.61065718627E+01  0.14036786259E+03  0.16972983486E+03  0.22033756809E+03  0.00000000000E+00 0.  1.
         13    1    5    5    0    0 -0.34191724743E+02 -0.89082058900E+02 -0.58206671328E+02  0.11177076472E+03  0.00000000000E+00 0.  1.
        -13    1    5    5    0    0  0.26135324675E+02 -0.49535288646E+03 -0.33025794574E+03  0.59592604243E+03  0.00000000000E+00 0. -1.
          4    1    6    6  503    0  0.75479500875E+02  0.24964259056E+03  0.82885137113E+01  0.26093538957E+03  0.00000000000E+00 0. -1.
         -4    1    6    6    0  503  0.29857623778E+02  0.45665861247E+02 -0.38938875725E+02  0.67030475336E+02  0.00000000000E+00 0.  1.
<mgrwt>
<rscale>  0 0.16071579E+04</rscale>
<asrwt>0</asrwt>
<pdfrwt beam="1">  1        1 0.11935745E+00 0.16071579E+04</pdfrwt>
<pdfrwt beam="2">  1       -1 0.12805038E+00 0.16071579E+04</pdfrwt>
<totfact> 0.11734509E+01</totfact>
</mgrwt>
</event>
<event>
12    3  0.4769008E-008  0.2498125E+04  0.7818608E-02  0.8403654E-01
         -2   -1    0    0    0  501 -0.00000000000E+00  0.00000000000E+00  0.56408043549E+03  0.56408043549E+03  0.00000000000E+00 0.  1.
          2   -1    0    0  501    0  0.00000000000E+00 -0.00000000000E+00 -0.27658419005E+04  0.27658419005E+04  0.00000000000E+00 0. -1.
         23    2    1    2    0    0 -0.49389248634E+03  0.18359435108E+03  0.30068345340E+03  0.61341487335E+03  0.90722620567E+02 0.  0.
        254    2    1    2    0    0  0.49389248634E+03 -0.18359435108E+03 -0.25024449184E+04  0.27165074626E+04  0.91626718324E+03 0.  0.
         23    2    4    4    0    0  0.54563848879E+02 -0.11739523928E+03 -0.21110109248E+04  0.21168028512E+04  0.87910924094E+02 0.  0.
         23    2    4    4    0    0  0.43932863746E+03 -0.66199111804E+02 -0.39143399364E+03  0.59970461143E+03  0.95042493087E+02 0.  0.
          3    1    3    3  502    0 -0.15733275603E+03  0.10154571410E+03  0.87841453125E+02  0.20683628565E+03  0.00000000000E+00 0. -1.
         -3    1    3    3    0  502 -0.33655973031E+03  0.82048636979E+02  0.21284200028E+03  0.40657858770E+03  0.00000000000E+00 0.  1.
         13    1    5    5    0    0 -0.18866883266E+02 -0.60326318171E+02 -0.91663837414E+03  0.91881507002E+03  0.00000000000E+00 0. -1.
        -13    1    5    5    0    0  0.73430732145E+02 -0.57068921105E+02 -0.11943725506E+04  0.11979877812E+04  0.00000000000E+00 0.  1.
          1    1    6    6  503    0  0.40179454496E+03 -0.33151317888E+02 -0.36098653772E+03  0.54115538125E+03  0.00000000000E+00 0. -1.
         -1    1    6    6    0  503  0.37534092505E+02 -0.33047793915E+02 -0.30447455914E+02  0.58549230178E+02  0.00000000000E+00 0.  1.
<mgrwt>
<rscale>  0 0.24981251E+04</rscale>
<asrwt>0</asrwt>
<pdfrwt beam="1">  1        2 0.42551415E+00 0.24981251E+04</pdfrwt>
<pdfrwt beam="2">  1       -2 0.86781604E-01 0.24981251E+04</pdfrwt>
<totfact> 0.24854628E+00</totfact>
</mgrwt>
</event>
<event>
12    3  0.4769008E-008  0.1586053E+04  0.7818608E-02  0.8829162E-01
          1   -1    0    0  501    0  0.00000000000E+00  0.00000000000E+00  0.23695164517E+04  0.23695164517E+04  0.00000000000E+00 0. -1.
         -1   -1    0    0    0  501 -0.00000000000E+00 -0.00000000000E+00 -0.26540909459E+03  0.26540909459E+03  0.00000000000E+00 0.  1.
         23    2    1    2    0    0 -0.13594419483E+03  0.26968505208E+03 -0.88489488625E+01  0.31613982237E+03  0.93033499177E+02 0.  0.
        254    2    1    2    0    0  0.13594419483E+03 -0.26968505208E+03  0.21129563060E+04  0.23187857239E+04  0.90607506923E+03 0.  0.
         23    2    4    4    0    0  0.89972927174E+02 -0.36175097901E+03  0.26665599726E+03  0.46724445648E+03  0.90846369204E+02 0.  0.
         23    2    4    4    0    0  0.45971267655E+02  0.92065926934E+02  0.18463003087E+04  0.18515412675E+04  0.93758960679E+02 0.  0.
          2    1    3    3  502    0 -0.13775743419E+03  0.18209600761E+03 -0.33128506288E+01  0.22835726754E+03  0.00000000000E+00 0.  1.
         -2    1    3    3    0  502  0.18132393564E+01  0.87589044471E+02 -0.55360982336E+01  0.87782554827E+02  0.00000000000E+00 0. -1.
         13    1    5    5    0    0  0.10480556187E+03 -0.30549824831E+03  0.24412452153E+03  0.40485820670E+03  0.00000000000E+00 0.  1.
        -13    1    5    5    0    0 -0.14832634695E+02 -0.56252730699E+02  0.22531475729E+02  0.62386249780E+02  0.00000000000E+00 0. -1.
          4    1    6    6  503    0  0.48328010494E+02  0.31964303955E+02  0.42055095004E+03  0.42452375070E+03  0.00000000000E+00 0. -1.
         -4    1    6    6    0  503 -0.23567428399E+01  0.60101622980E+02  0.14257493587E+04  0.14270175168E+04  0.00000000000E+00 0.  1.
<mgrwt>
<rscale>  0 0.15860532E+04</rscale>
<asrwt>0</asrwt>
<pdfrwt beam="1">  1        1 0.36454098E+00 0.15860532E+04</pdfrwt>
<pdfrwt beam="2">  1       -1 0.40832170E-01 0.15860532E+04</pdfrwt>
<totfact> 0.94086171E+00</totfact>
</mgrwt>
</event>
<event>
12    3  0.4769008E-008  0.1061633E+04  0.7818608E-02  0.9243415E-01
          2   -1    0    0  501    0  0.00000000000E+00  0.00000000000E+00  0.10918006468E+04  0.10918006468E+04  0.00000000000E+00 0. -1.
         -2   -1    0    0    0  501 -0.00000000000E+00 -0.00000000000E+00 -0.25807471770E+03  0.25807471770E+03  0.00000000000E+00 0.  1.
         23    2    1    2    0    0  0.21632785627E+02  0.41722456020E+02 -0.24979166445E+02  0.10452962914E+03  0.89965236966E+02 0.  0.
        254    2    1    2    0    0 -0.21632785627E+02 -0.41722456020E+02  0.85870509550E+03  0.12453457353E+04  0.90072349735E+03 0.  0.
         23    2    4    4    0    0 -0.64345219475E+02 -0.30742769145E+03 -0.14302348859E+02  0.32716424819E+03  0.90442221159E+02 0.  0.
         23    2    4    4    0    0  0.42712433849E+02  0.26570523543E+03  0.87300744436E+03  0.91818148713E+03  0.92149993250E+02 0.  0.
          2    1    3    3  502    0  0.89057628211E+01 -0.28240417412E+02 -0.13319230600E+02  0.32468995839E+02  0.00000000000E+00 0. -1.
         -2    1    3    3    0  502  0.12727022806E+02  0.69962873432E+02 -0.11659935844E+02  0.72060633304E+02  0.00000000000E+00 0.  1.
         13    1    5    5    0    0 -0.47023526519E+02 -0.10933568933E+03  0.31484740274E+02  0.12311293140E+03  0.00000000000E+00 0.  1.
        -13    1    5    5    0    0 -0.17321692957E+02 -0.19809200213E+03 -0.45787089133E+02  0.20405131679E+03  0.00000000000E+00 0. -1.
          1    1    6    6  503    0 -0.84093104768E+01  0.68150533931E+02  0.35203529099E+03  0.35866984524E+03  0.00000000000E+00 0. -1.
         -1    1    6    6    0  503  0.51121744326E+02  0.19755470150E+03  0.52097215337E+03  0.55951164189E+03  0.00000000000E+00 0.  1.
<mgrwt>
<rscale>  0 0.10616330E+04</rscale>
<asrwt>0</asrwt>
<pdfrwt beam="1">  1        2 0.16796933E+00 0.10616330E+04</pdfrwt>
<pdfrwt beam="2">  1       -2 0.39703803E-01 0.10616330E+04</pdfrwt>
<totfact> 0.13151048E+02</totfact>
</mgrwt>
</event>
<event>
12    3  0.4769008E-008  0.2147337E+04  0.7818608E-02  0.8540673E-01
         -2   -1    0    0    0  501 -0.00000000000E+00  0.00000000000E+00  0.71989889273E+03  0.71989889273E+03  0.00000000000E+00 0.  1.
          2   -1    0    0  501    0  0.00000000000E+00 -0.00000000000E+00 -0.16012864932E+04  0.16012864932E+04  0.00000000000E+00 0. -1.
         23    2    1    2    0    0 -0.57561406523E+03 -0.49449342501E+03 -0.85378167433E+03  0.11460002200E+04  0.92293322101E+02 0.  0.
        254    2    1    2    0    0  0.57561406523E+03  0.49449342501E+03 -0.27605926170E+02  0.11751851660E+04  0.89690734622E+03 0.  0.
         23    2    4    4    0    0  0.38228291600E+02 -0.13791051429E+03  0.24373624469E+03  0.29767636090E+03  0.93397787100E+02 0.  0.
         23    2    4    4    0    0  0.53738577363E+03  0.63240393929E+03 -0.27134217086E+03  0.87750880507E+03  0.87618018427E+02 0.  0.
          1    1    3    3  502    0 -0.54520240102E+03 -0.44694982628E+03 -0.76071809987E+03  0.10371604663E+04  0.00000000000E+00 0. -1.
         -1    1    3    3    0  502 -0.30411664214E+02 -0.47543598727E+02 -0.93063574458E+02  0.10883975373E+03  0.00000000000E+00 0.  1.
         13    1    5    5    0    0  0.32515730703E+02 -0.83529545412E+02  0.22094810469E+03  0.23843767040E+03  0.00000000000E+00 0. -1.
        -13    1    5    5    0    0  0.57125608970E+01 -0.54380968877E+02  0.22788140002E+02  0.59238690505E+02  0.00000000000E+00 0.  1.
          3    1    6    6  503    0  0.37632544655E+03  0.45775679657E+03 -0.23352341751E+03  0.63694215833E+03  0.00000000000E+00 0. -1.
         -3    1    6    6    0  503  0.16106032708E+03  0.17464714272E+03 -0.37818753351E+02  0.24056664674E+03  0.00000000000E+00 0.  1.
<mgrwt>
<rscale>  0 0.21473373E+04</rscale>
<asrwt>0</asrwt>
<pdfrwt beam="1">  1        2 0.24635176E+00 0.21473373E+04</pdfrwt>
<pdfrwt beam="2">  1       -2 0.11075368E+00 0.21473373E+04</pdfrwt>
<totfact> 0.66054800E+00</totfact>
</mgrwt>
</event>
<event>
12    3  0.4769008E-008  0.2409929E+04  0.7818608E-02  0.8435796E-01
          2   -1    0    0  501    0  0.00000000000E+00  0.00000000000E+00  0.16850414000E+04  0.16850414000E+04  0.00000000000E+00 0. -1.
         -2   -1    0    0    0  501 -0.00000000000E+00 -0.00000000000E+00 -0.86166415570E+03  0.86166415570E+03  0.00000000000E+00 0.  1.
         23    2    1    2    0    0 -0.42304181670E+03 -0.73713681857E+03  0.97187301664E+03  0.12944907477E+04  0.93989719610E+02 0.  0.
        254    2    1    2    0    0  0.42304181670E+03  0.73713681857E+03 -0.14849577238E+03  0.12522148080E+04  0.90755488148E+03 0.  0.
         23    2    4    4    0    0  0.74853631067E+02 -0.16105498512E+03  0.13956848881E+03  0.24258998589E+03  0.88480302167E+02 0.  0.
         23    2    4    4    0    0  0.34818818564E+03  0.89819180369E+03 -0.28806426119E+03  0.10096248221E+04  0.91529961974E+02 0.  0.
          2    1    3    3  502    0 -0.19625531966E+03 -0.27486755036E+03  0.43335833905E+03  0.54942494552E+03  0.00000000000E+00 0. -1.
         -2    1    3    3    0  502 -0.22678649705E+03 -0.46226926821E+03  0.53851467759E+03  0.74506580217E+03  0.00000000000E+00 0.  1.
         13    1    5    5    0    0  0.58791724740E+02 -0.44630813202E+02  0.86282286973E+02  0.11354738848E+03  0.00000000000E+00 0.  1.
        -13    1    5    5    0    0  0.16061906326E+02 -0.11642417192E+03  0.53286201836E+02  0.12904259741E+03  0.00000000000E+00 0. -1.
          2    1    6    6  503    0  0.35152317792E+03  0.89590981998E+03 -0.28301022675E+03  0.10031538958E+04  0.00000000000E+00 0. -1.
         -2    1    6    6    0  503 -0.33349922830E+01  0.22819837186E+01 -0.50540344395E+01  0.64709263120E+01  0.00000000000E+00 0.  1.
<mgrwt>
<rscale>  0 0.24099293E+04</rscale>
<asrwt>0</asrwt>
<pdfrwt beam="1">  1        2 0.25923714E+00 0.24099293E+04</pdfrwt>
<pdfrwt beam="2">  1       -2 0.13256372E+00 0.24099293E+04</pdfrwt>
<totfact> 0.37126911E+00</totfact>
</mgrwt>
</event>
<event>
12    3  0.4769008E-008  0.1963084E+04  0.7818608E-02  0.8624077E-01
          3   -1    0    0  501    0  0.00000000000E+00  0.00000000000E+00  0.89955491538E+03  0.89955491538E+03  0.00000000000E+00 0. -1.
         -3   -1    0    0    0  501 -0.00000000000E+00 -0.00000000000E+00 -0.10710016275E+04  0.10710016275E+04  0.00000000000E+00 0.  1.
         23    2    1    2    0    0  0.20091549402E+03  0.29415918788E+03  0.62090613446E+03  0.72176030273E+03  0.92286744592E+02 0.  0.
        254    2    1    2    0    0 -0.20091549402E+03 -0.29415918788E+03 -0.79235284654E+03  0.12487962401E+04  0.89709105020E+03 0.  0.
         23    2    4    4    0    0  0.27881908382E+03  0.12522870891E+03 -0.30989278393E+03  0.44449258382E+03  0.90098881803E+02 0.  0.
         23    2    4    4    0    0 -0.47973457784E+03 -0.41938789679E+03 -0.48246006260E+03  0.80430365629E+03  0.90028808583E+02 0.  0.
          2    1    3    3  502    0  0.64783247919E+02  0.40709992960E+02  0.17635740312E+03  0.19223971070E+03  0.00000000000E+00 0. -1.
         -2    1    3    3    0  502  0.13613224610E+03  0.25344919492E+03  0.44454873134E+03  0.52952059202E+03  0.00000000000E+00 0.  1.
         13    1    5    5    0    0  0.13253894724E+03  0.25781918178E+02 -0.89923679011E+02  0.16222684083E+03  0.00000000000E+00 0.  1.
        -13    1    5    5    0    0  0.14628013658E+03  0.99446790730E+02 -0.21996910492E+03  0.28226574299E+03  0.00000000000E+00 0. -1.
          3    1    6    6  503    0 -0.32051630025E+03 -0.30021831029E+03 -0.28187041817E+03  0.52183586040E+03  0.00000000000E+00 0. -1.
         -3    1    6    6    0  503 -0.15921827759E+03 -0.11916958650E+03 -0.20058964443E+03  0.28246779590E+03  0.00000000000E+00 0.  1.
<mgrwt>
<rscale>  0 0.19630841E+04</rscale>
<asrwt>0</asrwt>
<pdfrwt beam="1">  1        3 0.13839306E+00 0.19630841E+04</pdfrwt>
<pdfrwt beam="2">  1       -3 0.16476948E+00 0.19630841E+04</pdfrwt>
<totfact> 0.24373306E-01</totfact>
</mgrwt>
</event>
<event>
12    3  0.4769008E-008  0.1657755E+04  0.7818608E-02  0.8785832E-01
         -2   -1    0    0    0  501 -0.00000000000E+00  0.00000000000E+00  0.41181705865E+03  0.41181705865E+03  0.00000000000E+00 0. -1.
          2   -1    0    0  501    0  0.00000000000E+00 -0.00000000000E+00 -0.16683089454E+04  0.16683089454E+04  0.00000000000E+00 0.  1.
         23    2    1    2    0    0  0.10710788089E+03 -0.14025719626E+02  0.26857120342E+03  0.30311204100E+03  0.89875464580E+02 0.  0.
        254    2    1    2    0    0 -0.10710788089E+03  0.14025719626E+02 -0.15250630901E+04  0.17770139630E+04  0.90569993757E+03 0.  0.
         23    2    4    4    0    0 -0.12388809334E+03 -0.35825406223E+03 -0.29540824331E+03  0.48853381822E+03  0.87778292017E+02 0.  0.
         23    2    4    4    0    0  0.16780212448E+02  0.37227978186E+03 -0.12296548468E+04  0.12884801448E+04  0.96209301641E+02 0.  0.
          1    1    3    3  502    0  0.90089527821E+02  0.27376330722E+02  0.15959023912E+03  0.18529606291E+03  0.00000000000E+00 0. -1.
         -1    1    3    3    0  502  0.17018353068E+02 -0.41402050348E+02  0.10898096430E+03  0.11781597809E+03  0.00000000000E+00 0.  1.
         13    1    5    5    0    0 -0.13566234149E+03 -0.34779573113E+03 -0.28470973632E+03  0.46949523474E+03  0.00000000000E+00 0.  1.
        -13    1    5    5    0    0  0.11774248149E+02 -0.10458331103E+02 -0.10698506994E+02  0.19038583478E+02  0.00000000000E+00 0. -1.
          3    1    6    6  503    0  0.33802710590E+02  0.73149494933E+02 -0.18682320471E+03  0.20346100774E+03  0.00000000000E+00 0. -1.
         -3    1    6    6    0  503 -0.17022498142E+02  0.29913028693E+03 -0.10428316421E+04  0.10850191371E+04  0.00000000000E+00 0.  1.
<mgrwt>
<rscale>  0 0.16577552E+04</rscale>
<asrwt>0</asrwt>
<pdfrwt beam="1">  1        2 0.25666291E+00 0.16577552E+04</pdfrwt>
<pdfrwt beam="2">  1       -2 0.63356471E-01 0.16577552E+04</pdfrwt>
<totfact> 0.22488322E+01</totfact>
</mgrwt>
</event>
<event>
12    3  0.4769008E-008  0.1181377E+04  0.7818608E-02  0.9129315E-01
         -2   -1    0    0    0  501 -0.00000000000E+00  0.00000000000E+00  0.14273854407E+04  0.14273854407E+04  0.00000000000E+00 0.  1.
          2   -1    0    0  501    0  0.00000000000E+00 -0.00000000000E+00 -0.24444207101E+03  0.24444207101E+03  0.00000000000E+00 0. -1.
         23    2    1    2    0    0 -0.50757521880E+02 -0.21936301436E+03  0.21626834845E+03  0.32050765655E+03  0.72503112106E+02 0.  0.
        254    2    1    2    0    0  0.50757521880E+02  0.21936301436E+03  0.96667502128E+03  0.13513198552E+04  0.91701052131E+03 0.  0.
         23    2    4    4    0    0  0.24532222487E+03 -0.28986289053E+03  0.40241860777E+03  0.56136492885E+03  0.94796403626E+02 0.  0.
         23    2    4    4    0    0 -0.19456470299E+03  0.50922590489E+03  0.56425641351E+03  0.78995492635E+03  0.92070840211E+02 0.  0.
          4    1    3    3  502    0  0.69397072253E+00 -0.11752802667E+03  0.77162825339E+02  0.14059665808E+03  0.00000000000E+00 0. -1.
         -4    1    3    3    0  502 -0.51451492602E+02 -0.10183498769E+03  0.13910552311E+03  0.17991099847E+03  0.00000000000E+00 0.  1.
         13    1    5    5    0    0  0.99702773974E+02 -0.54608643248E+02  0.99042610095E+02  0.15077196580E+03  0.00000000000E+00 0. -1.
        -13    1    5    5    0    0  0.14561945090E+03 -0.23525424728E+03  0.30337599768E+03  0.41059296306E+03  0.00000000000E+00 0.  1.
          3    1    6    6  503    0 -0.14459213319E+02  0.20298244893E+01  0.13730955725E+02  0.20043157994E+02  0.00000000000E+00 0. -1.
         -3    1    6    6    0  503 -0.18010548967E+03  0.50719608040E+03  0.55052545778E+03  0.76991176836E+03  0.00000000000E+00 0.  1.
<mgrwt>
<rscale>  0 0.11813773E+04</rscale>
<asrwt>0</asrwt>
<pdfrwt beam="1">  1        2 0.37606473E-01 0.11813773E+04</pdfrwt>
<pdfrwt beam="2">  1       -2 0.21959775E+00 0.11813773E+04</pdfrwt>
<totfact> 0.13564314E+01</totfact>
</mgrwt>
</event>
<event>
12    3  0.4769008E-008  0.1286922E+04  0.7818608E-02  0.9040001E-01
          2   -1    0    0  501    0  0.00000000000E+00  0.00000000000E+00  0.10885267443E+04  0.10885267443E+04  0.00000000000E+00 0. -1.
         -2   -1    0    0    0  501 -0.00000000000E+00 -0.00000000000E+00 -0.38036936656E+03  0.38036936656E+03  0.00000000000E+00 0.  1.
         23    2    1    2    0    0  0.62508367905E+02  0.30063012594E+03  0.18820745644E+03  0.37154558397E+03  0.91314323214E+02 0.  0.
        254    2    1    2    0    0 -0.62508367905E+02 -0.30063012594E+03  0.51994992134E+03  0.10973505269E+04  0.91626660398E+03 0.  0.
         23    2    4    4    0    0 -0.62676349864E+02  0.15777286960E+03  0.59379193531E+03  0.62426469991E+03  0.91087594637E+02 0.  0.
         23    2    4    4    0    0  0.16798195865E+00 -0.45840299554E+03 -0.73842013968E+02  0.47308582702E+03  0.90687497308E+02 0.  0.
          3    1    3    3  502    0  0.46562251910E+02  0.18199220955E+03  0.62542612173E+02  0.19799188361E+03  0.00000000000E+00 0. -1.
         -3    1    3    3    0  502  0.15946115995E+02  0.11863791639E+03  0.12566484427E+03  0.17355370035E+03  0.00000000000E+00 0.  1.
         13    1    5    5    0    0 -0.27484216877E+02  0.14342157388E+03  0.53236936238E+03  0.55203466198E+03  0.00000000000E+00 0. -1.
        -13    1    5    5    0    0 -0.35192132987E+02  0.14351295722E+02  0.61422572935E+02  0.72230037928E+02  0.00000000000E+00 0.  1.
          3    1    6    6  503    0 -0.34810005007E+02 -0.17153775607E+03 -0.55044685846E+02  0.18348530089E+03  0.00000000000E+00 0. -1.
         -3    1    6    6    0  503  0.34977986966E+02 -0.28686523947E+03 -0.18797328122E+02  0.28960052613E+03  0.00000000000E+00 0.  1.
<mgrwt>
<rscale>  0 0.12869223E+04</rscale>
<asrwt>0</asrwt>
<pdfrwt beam="1">  1        2 0.16746565E+00 0.12869223E+04</pdfrwt>
<pdfrwt beam="2">  1       -2 0.58518365E-01 0.12869223E+04</pdfrwt>
<totfact> 0.59321332E+01</totfact>
</mgrwt>
</event>
<event>
12    3  0.4769008E-008  0.2179759E+04  0.7818608E-02  0.8526900E-01
          2   -1    0    0  501    0  0.00000000000E+00  0.00000000000E+00  0.16732179148E+04  0.16732179148E+04  0.00000000000E+00 0. -1.
         -2   -1    0    0    0  501 -0.00000000000E+00 -0.00000000000E+00 -0.70991185940E+03  0.70991185940E+03  0.00000000000E+00 0.  1.
         23    2    1    2    0    0  0.22239043630E+02  0.59856638618E+03 -0.33389742867E+03  0.69235826888E+03  0.95373926655E+02 0.  0.
        254    2    1    2    0    0 -0.22239043630E+02 -0.59856638618E+03  0.12972034841E+04  0.16907715054E+04  0.90398844594E+03 0.  0.
         23    2    4    4    0    0  0.24154110959E+03 -0.60904891914E+03  0.12418308453E+04  0.14069674877E+04  0.90171888213E+02 0.  0.
         23    2    4    4    0    0 -0.26378015322E+03  0.10482532956E+02  0.55372638785E+02  0.28380401768E+03  0.88253830481E+02 0.  0.
          2    1    3    3  502    0 -0.18071281101E+02  0.21988570804E+03 -0.16633752720E+03  0.27630502847E+03  0.00000000000E+00 0. -1.
         -2    1    3    3    0  502  0.40310324731E+02  0.37868067814E+03 -0.16755990147E+03  0.41605324041E+03  0.00000000000E+00 0.  1.
         13    1    5    5    0    0  0.13284056813E+03 -0.25177085865E+03  0.60708247331E+03  0.67051048553E+03  0.00000000000E+00 0. -1.
        -13    1    5    5    0    0  0.10870054147E+03 -0.35727806049E+03  0.63474837203E+03  0.73645700215E+03  0.00000000000E+00 0.  1.
          1    1    6    6  503    0 -0.29563445329E+02 -0.28231123586E+02  0.57761795778E+01  0.41283869600E+02  0.00000000000E+00 0. -1.
         -1    1    6    6    0  503 -0.23421670789E+03  0.38713656542E+02  0.49596459207E+02  0.24252014808E+03  0.00000000000E+00 0.  1.
<mgrwt>
<rscale>  0 0.21797589E+04</rscale>
<asrwt>0</asrwt>
<pdfrwt beam="1">  1        2 0.25741814E+00 0.21797589E+04</pdfrwt>
<pdfrwt beam="2">  1       -2 0.10921721E+00 0.21797589E+04</pdfrwt>
<totfact> 0.62124970E+00</totfact>
</mgrwt>
</event>
<event>
12    3  0.4769008E-008  0.2277993E+04  0.7818608E-02  0.8486649E-01
         -1   -1    0    0    0  501 -0.00000000000E+00  0.00000000000E+00  0.75512549678E+03  0.75512549678E+03  0.00000000000E+00 0.  1.
          1   -1    0    0  501    0  0.00000000000E+00 -0.00000000000E+00 -0.17180092768E+04  0.17180092768E+04  0.00000000000E+00 0. -1.
         23    2    1    2    0    0  0.74125288429E+03  0.54995150671E+03 -0.53806176611E+03  0.10723953750E+04  0.92837912162E+02 0.  0.
        254    2    1    2    0    0 -0.74125288429E+03 -0.54995150671E+03 -0.42482201390E+03  0.14007393986E+04  0.96420673149E+03 0.  0.
         23    2    4    4    0    0 -0.45449595302E+03 -0.25315908868E+03 -0.71421412218E+03  0.88824636485E+03  0.90684600969E+02 0.  0.
         23    2    4    4    0    0 -0.28675693127E+03 -0.29679241803E+03  0.28939210829E+03  0.51249303373E+03  0.92660888484E+02 0.  0.
          1    1    3    3  502    0  0.61690675874E+03  0.43229733882E+03 -0.40283885019E+03  0.85424474090E+03  0.00000000000E+00 0. -1.
         -1    1    3    3    0  502  0.12434612555E+03  0.11765416789E+03 -0.13522291593E+03  0.21815063409E+03  0.00000000000E+00 0.  1.
         13    1    5    5    0    0 -0.26040454118E+02 -0.27691017522E+02 -0.94273817613E+02  0.10164866152E+03  0.00000000000E+00 0.  1.
        -13    1    5    5    0    0 -0.42845549890E+03 -0.22546807116E+03 -0.61994030457E+03  0.78659770333E+03  0.00000000000E+00 0. -1.
          2    1    6    6  503    0 -0.15992230657E+03 -0.19355772962E+03  0.22362844472E+03  0.33622822624E+03  0.00000000000E+00 0. -1.
         -2    1    6    6    0  503 -0.12683462471E+03 -0.10323468841E+03  0.65763663570E+02  0.17626480750E+03  0.00000000000E+00 0.  1.
<mgrwt>
<rscale>  0 0.22779926E+04</rscale>
<asrwt>0</asrwt>
<pdfrwt beam="1">  1        1 0.26430912E+00 0.22779926E+04</pdfrwt>
<pdfrwt beam="2">  1       -1 0.11617315E+00 0.22779926E+04</pdfrwt>
<totfact> 0.28101650E+00</totfact>
</mgrwt>
</event>
<event>
12    3  0.4769008E-008  0.2381101E+04  0.7818608E-02  0.8446613E-01
         -4   -1    0    0    0  501 -0.00000000000E+00  0.00000000000E+00  0.13584699253E+04  0.13584699253E+04  0.00000000000E+00 0.  1.
          4   -1    0    0  501    0  0.00000000000E+00 -0.00000000000E+00 -0.10433877647E+04  0.10433877647E+04  0.00000000000E+00 0. -1.
         23    2    1    2    0    0 -0.22274436048E+03 -0.87025635797E+03  0.64543712187E+03  0.11099018309E+04  0.91278788016E+02 0.  0.
        254    2    1    2    0    0  0.22274436048E+03  0.87025635797E+03 -0.33035496122E+03  0.12919558592E+04  0.86778704927E+03 0.  0.
         23    2    4    4    0    0  0.39349468480E+03  0.83533609775E+03 -0.48062176725E+03  0.10449918823E+04  0.91576676805E+02 0.  0.
         23    2    4    4    0    0 -0.17075032432E+03  0.34920260225E+02  0.15026680603E+03  0.24696397687E+03  0.89643711690E+02 0.  0.
          2    1    3    3  502    0 -0.20255034280E+03 -0.68263329017E+03  0.47791426111E+03  0.85756451138E+03  0.00000000000E+00 0. -1.
         -2    1    3    3    0  502 -0.20194017679E+02 -0.18762306780E+03  0.16752286077E+03  0.25233731948E+03  0.00000000000E+00 0.  1.
         13    1    5    5    0    0  0.33796877301E+03  0.70577174454E+03 -0.36884417299E+03  0.86509113443E+03  0.00000000000E+00 0.  1.
        -13    1    5    5    0    0  0.55525911788E+02  0.12956435320E+03 -0.11177759426E+03  0.17990074786E+03  0.00000000000E+00 0. -1.
          1    1    6    6  503    0 -0.16356100354E+03  0.11788313919E+02  0.10243914907E+03  0.19335186962E+03  0.00000000000E+00 0.  1.
         -1    1    6    6    0  503 -0.71893207835E+01  0.23131946306E+02  0.47827656960E+02  0.53612107247E+02  0.00000000000E+00 0. -1.
<mgrwt>
<rscale>  0 0.23811013E+04</rscale>
<asrwt>0</asrwt>
<pdfrwt beam="1">  1        4 0.16052119E+00 0.23811013E+04</pdfrwt>
<pdfrwt beam="2">  1       -4 0.20899537E+00 0.23811013E+04</pdfrwt>
<totfact> 0.51214664E-02</totfact>
</mgrwt>
</event>
<event>
12    3  0.4769008E-008  0.1264535E+04  0.7818608E-02  0.9058172E-01
          2   -1    0    0  501    0  0.00000000000E+00  0.00000000000E+00  0.21409104711E+04  0.21409104711E+04  0.00000000000E+00 0. -1.
         -2   -1    0    0    0  501 -0.00000000000E+00 -0.00000000000E+00 -0.18672517483E+03  0.18672517483E+03  0.00000000000E+00 0.  1.
         23    2    1    2    0    0  0.15834935694E+03  0.23535077193E+03  0.31249650956E+03  0.43375384302E+03  0.10011904491E+03 0.  0.
        254    2    1    2    0    0 -0.15834935694E+03 -0.23535077193E+03  0.16416887867E+04  0.18938818029E+04  0.90065626425E+03 0.  0.
         23    2    4    4    0    0 -0.16145748798E+03  0.23564013888E+03  0.12144998666E+04  0.12517398140E+04  0.10123161905E+03 0.  0.
         23    2    4    4    0    0  0.31081310429E+01 -0.47099091081E+03  0.42718892018E+03  0.64214198891E+03  0.89520175675E+02 0.  0.
          4    1    3    3  502    0  0.92894725638E+02  0.13373244990E+03  0.10540996881E+03  0.19397180138E+03  0.00000000000E+00 0.  1.
         -4    1    3    3    0  502  0.65454631300E+02  0.10161832203E+03  0.20708654075E+03  0.23978204163E+03  0.00000000000E+00 0. -1.
         13    1    5    5    0    0 -0.52671287386E+02  0.16044394399E+03  0.60994999582E+03  0.63289455763E+03  0.00000000000E+00 0. -1.
        -13    1    5    5    0    0 -0.10878620060E+03  0.75196194892E+02  0.60454987073E+03  0.61884525640E+03  0.00000000000E+00 0.  1.
          2    1    6    6  503    0 -0.37376179804E+02 -0.28510721382E+03  0.28281816319E+03  0.40332271895E+03  0.00000000000E+00 0. -1.
         -2    1    6    6    0  503  0.40484310847E+02 -0.18588369699E+03  0.14437075698E+03  0.23881926996E+03  0.00000000000E+00 0.  1.
<mgrwt>
<rscale>  0 0.12645345E+04</rscale>
<asrwt>0</asrwt>
<pdfrwt beam="1">  1        2 0.32937082E+00 0.12645345E+04</pdfrwt>
<pdfrwt beam="2">  1       -2 0.28726952E-01 0.12645345E+04</pdfrwt>
<totfact> 0.60998856E+01</totfact>
</mgrwt>
</event>
<event>
12    3  0.4769008E-008  0.1036452E+04  0.7818608E-02  0.9269444E-01
         -2   -1    0    0    0  501 -0.00000000000E+00  0.00000000000E+00  0.26066437843E+03  0.26066437843E+03  0.00000000000E+00 0.  1.
          2   -1    0    0  501    0  0.00000000000E+00 -0.00000000000E+00 -0.10302842775E+04  0.10302842775E+04  0.00000000000E+00 0. -1.
         23    2    1    2    0    0 -0.90699831273E+02  0.17916471967E+02 -0.13305895523E+03  0.18676933064E+03  0.92901226784E+02 0.  0.
        254    2    1    2    0    0  0.90699831273E+02 -0.17916471967E+02 -0.63656094388E+03  0.11041793253E+04  0.89747127411E+03 0.  0.
         23    2    4    4    0    0 -0.29985012740E+03  0.22428953827E+03 -0.46608910724E+03  0.60443549031E+03  0.88810529614E+02 0.  0.
         23    2    4    4    0    0  0.39054995867E+03 -0.24220601024E+03 -0.17047183664E+03  0.49974383502E+03  0.97417821454E+02 0.  0.
          1    1    3    3  502    0 -0.30025444725E+02  0.38331269634E+02 -0.10717633637E+03  0.11771822560E+03  0.00000000000E+00 0. -1.
         -1    1    3    3    0  502 -0.60674386548E+02 -0.20414797666E+02 -0.25882618868E+02  0.69051105033E+02  0.00000000000E+00 0.  1.
         13    1    5    5    0    0 -0.85374281062E+02  0.69009049906E+02 -0.78181454864E+02  0.13477149818E+03  0.00000000000E+00 0. -1.
        -13    1    5    5    0    0 -0.21447584634E+03  0.15528048837E+03 -0.38790765238E+03  0.46966399213E+03  0.00000000000E+00 0.  1.
          3    1    6    6  503    0  0.24281740597E+03 -0.15066498804E+03 -0.15543340780E+03  0.32529951663E+03  0.00000000000E+00 0. -1.
         -3    1    6    6    0  503  0.14773255271E+03 -0.91541022200E+02 -0.15038428833E+02  0.17444431839E+03  0.00000000000E+00 0.  1.
<mgrwt>
<rscale>  0 0.10364524E+04</rscale>
<asrwt>0</asrwt>
<pdfrwt beam="1">  1        2 0.15850528E+00 0.10364524E+04</pdfrwt>
<pdfrwt beam="2">  1       -2 0.40102211E-01 0.10364524E+04</pdfrwt>
<totfact> 0.14114321E+02</totfact>
</mgrwt>
</event>
<event>
12    3  0.4769008E-008  0.3346967E+04  0.7818608E-02  0.8151046E-01
         -2   -1    0    0    0  501 -0.00000000000E+00  0.00000000000E+00  0.93066159614E+03  0.93066159614E+03  0.00000000000E+00 0.  1.
          2   -1    0    0  501    0  0.00000000000E+00 -0.00000000000E+00 -0.30092010530E+04  0.30092010530E+04  0.00000000000E+00 0. -1.
         23    2    1    2    0    0  0.26838145561E+03 -0.82442333638E+03  0.54664081683E+03  0.10289086034E+04  0.90190289442E+02 0.  0.
        254    2    1    2    0    0 -0.26838145561E+03  0.82442333638E+03 -0.26251802737E+04  0.29109540457E+04  0.91125163574E+03 0.  0.
         23    2    4    4    0    0 -0.95634036973E+02  0.44865597547E+03 -0.23733415193E+04  0.24189645398E+04  0.90561716043E+02 0.  0.
         23    2    4    4    0    0 -0.17274741863E+03  0.37576736091E+03 -0.25183875442E+03  0.49198950591E+03  0.87109904879E+02 0.  0.
          3    1    3    3  502    0  0.24020562149E+00 -0.74905068491E+01  0.18210397557E+02  0.19692231229E+02  0.00000000000E+00 0. -1.
         -3    1    3    3    0  502  0.26814124998E+03 -0.81693282953E+03  0.52843041928E+03  0.10092163722E+04  0.00000000000E+00 0.  1.
         13    1    5    5    0    0 -0.58464570646E+02  0.23417954760E+03 -0.14756196874E+04  0.14952296239E+04  0.00000000000E+00 0. -1.
        -13    1    5    5    0    0 -0.37169466327E+02  0.21447642787E+03 -0.89772183192E+03  0.92373491589E+03  0.00000000000E+00 0.  1.
          4    1    6    6  503    0 -0.14132576549E+03  0.29563025222E+03 -0.23757846110E+03  0.40473910510E+03  0.00000000000E+00 0. -1.
         -4    1    6    6    0  503 -0.31421653144E+02  0.80137108692E+02 -0.14260293315E+02  0.87250400809E+02  0.00000000000E+00 0.  1.
<mgrwt>
<rscale>  0 0.33469675E+04</rscale>
<asrwt>0</asrwt>
<pdfrwt beam="1">  1        2 0.46295400E+00 0.33469675E+04</pdfrwt>
<pdfrwt beam="2">  1       -2 0.14317871E+00 0.33469675E+04</pdfrwt>
<totfact> 0.48385698E-01</totfact>
</mgrwt>
</event>
<event>
12    3  0.4769008E-008  0.1335061E+04  0.7818608E-02  0.9002214E-01
         -2   -1    0    0    0  501 -0.00000000000E+00  0.00000000000E+00  0.31853616041E+03  0.31853616041E+03  0.00000000000E+00 0. -1.
          2   -1    0    0  501    0  0.00000000000E+00 -0.00000000000E+00 -0.13988900093E+04  0.13988900093E+04  0.00000000000E+00 0.  1.
         23    2    1    2    0    0  0.17207835205E+03 -0.19493985432E+03  0.17041018315E+02  0.27510696331E+03  0.88209630499E+02 0.  0.
        254    2    1    2    0    0 -0.17207835205E+03  0.19493985432E+03 -0.10973948672E+04  0.14423192064E+04  0.89910883243E+03 0.  0.
         23    2    4    4    0    0 -0.14494396659E+03  0.53227361718E+03 -0.83258556481E+03  0.10031104634E+04  0.93316247659E+02 0.  0.
         23    2    4    4    0    0 -0.27134385455E+02 -0.33733376286E+03 -0.26480930239E+03  0.43920874299E+03  0.90829570350E+02 0.  0.
          2    1    3    3  502    0  0.17763703182E+03 -0.16092935323E+03  0.98090120427E+01  0.23989453625E+03  0.00000000000E+00 0. -1.
         -2    1    3    3    0  502 -0.55586797713E+01 -0.34010501088E+02  0.72320062722E+01  0.35212427065E+02  0.00000000000E+00 0.  1.
         13    1    5    5    0    0 -0.82267353785E+02  0.44144155996E+03 -0.67552868827E+03  0.81115817017E+03  0.00000000000E+00 0.  1.
        -13    1    5    5    0    0 -0.62676612805E+02  0.90832057216E+02 -0.15705687654E+03  0.19195229324E+03  0.00000000000E+00 0. -1.
          2    1    6    6  503    0 -0.44217201987E+01 -0.82676030788E+02 -0.11874119207E+03  0.14475616868E+03  0.00000000000E+00 0. -1.
         -2    1    6    6    0  503 -0.22712665256E+02 -0.25465773207E+03 -0.14606811032E+03  0.29445257431E+03  0.00000000000E+00 0.  1.
<mgrwt>
<rscale>  0 0.13350611E+04</rscale>
<asrwt>0</asrwt>
<pdfrwt beam="1">  1        2 0.21521385E+00 0.13350611E+04</pdfrwt>
<pdfrwt beam="2">  1       -2 0.49005563E-01 0.13350611E+04</pdfrwt>
<totfact> 0.55849884E+01</totfact>
</mgrwt>
</event>
<event>
12    3  0.4769008E-008  0.1679572E+04  0.7818608E-02  0.8773102E-01
         -2   -1    0    0    0  501 -0.00000000000E+00  0.00000000000E+00  0.21336609538E+03  0.21336609538E+03  0.00000000000E+00 0.  1.
          2   -1    0    0  501    0  0.00000000000E+00 -0.00000000000E+00 -0.33053068343E+04  0.33053068343E+04  0.00000000000E+00 0. -1.
         23    2    1    2    0    0 -0.67482332401E+02  0.21361576170E+02 -0.24090782320E+04  0.24118444664E+04  0.91244836474E+02 0.  0.
        254    2    1    2    0    0  0.67482332401E+02 -0.21361576170E+02 -0.68286250687E+03  0.11068284632E+04  0.86819229525E+03 0.  0.
         23    2    4    4    0    0 -0.11106136674E+03 -0.18344249830E+03 -0.79259301568E+03  0.82652559716E+03  0.94631373746E+02 0.  0.
         23    2    4    4    0    0  0.17854369914E+03  0.16208092213E+03  0.10973050882E+03  0.28030286603E+03  0.91546896833E+02 0.  0.
          4    1    3    3  502    0 -0.34451402173E+02 -0.15086691954E+02 -0.19051657132E+04  0.19055369066E+04  0.00000000000E+00 0. -1.
         -4    1    3    3    0  502 -0.33030930228E+02  0.36448268124E+02 -0.50391251877E+03  0.50630755986E+03  0.00000000000E+00 0.  1.
         13    1    5    5    0    0  0.12523260477E+02 -0.11521276715E+01 -0.25327342462E+02  0.28277795659E+02  0.00000000000E+00 0. -1.
        -13    1    5    5    0    0 -0.12358462722E+03 -0.18229037062E+03 -0.76726567322E+03  0.79824780151E+03  0.00000000000E+00 0.  1.
          1    1    6    6  503    0  0.32148250067E+02  0.74105395351E+01 -0.11874861659E+02  0.35063348642E+02  0.00000000000E+00 0. -1.
         -1    1    6    6    0  503  0.14639544907E+03  0.15467038259E+03  0.12160537048E+03  0.24523951739E+03  0.00000000000E+00 0.  1.
<mgrwt>
<rscale>  0 0.16795719E+04</rscale>
<asrwt>0</asrwt>
<pdfrwt beam="1">  1        2 0.50850868E+00 0.16795719E+04</pdfrwt>
<pdfrwt beam="2">  1       -2 0.32825557E-01 0.16795719E+04</pdfrwt>
<totfact> 0.91885982E+00</totfact>
</mgrwt>
</event>
<event>
12    3  0.4769008E-008  0.1853814E+04  0.7818608E-02  0.8678194E-01
          1   -1    0    0  501    0  0.00000000000E+00  0.00000000000E+00  0.24121158751E+04  0.24121158751E+04  0.00000000000E+00 0. -1.
         -1   -1    0    0    0  501 -0.00000000000E+00 -0.00000000000E+00 -0.35618366354E+03  0.35618366354E+03  0.00000000000E+00 0.  1.
         23    2    1    2    0    0 -0.17722331982E+03  0.13091343761E+03 -0.20914985573E+03  0.31746954635E+03  0.92178183270E+02 0.  0.
        254    2    1    2    0    0  0.17722331982E+03 -0.13091343761E+03  0.22650820673E+04  0.24508299923E+04  0.90962874096E+03 0.  0.
         23    2    4    4    0    0 -0.13902973075E+03 -0.40950996515E+03  0.15891831759E+04  0.16494986310E+04  0.91186016694E+02 0.  0.
         23    2    4    4    0    0  0.31625305056E+03  0.27859652753E+03  0.67589889141E+03  0.80133136128E+03  0.87524979442E+02 0.  0.
          3    1    3    3  502    0 -0.73929856799E+02  0.11066577855E+03 -0.12682429009E+03  0.18383943762E+03  0.00000000000E+00 0. -1.
         -3    1    3    3    0  502 -0.10329346302E+03  0.20247659064E+02 -0.82325565641E+02  0.13363010872E+03  0.00000000000E+00 0.  1.
         13    1    5    5    0    0  0.11526643997E+02 -0.44527095071E+02  0.13238052033E+03  0.14014324058E+03  0.00000000000E+00 0. -1.
        -13    1    5    5    0    0 -0.15055637474E+03 -0.36498287007E+03  0.14568026556E+04  0.15093553904E+04  0.00000000000E+00 0.  1.
          4    1    6    6  503    0  0.14173347229E+02  0.19176275437E+02  0.88757006695E+02  0.91904404404E+02  0.00000000000E+00 0. -1.
         -4    1    6    6    0  503  0.30207970333E+03  0.25942025209E+03  0.58714188471E+03  0.70942695688E+03  0.00000000000E+00 0.  1.
<mgrwt>
<rscale>  0 0.18538137E+04</rscale>
<asrwt>0</asrwt>
<pdfrwt beam="1">  1        1 0.37109474E+00 0.18538137E+04</pdfrwt>
<pdfrwt beam="2">  1       -1 0.54797488E-01 0.18538137E+04</pdfrwt>
<totfact> 0.49292156E+00</totfact>
</mgrwt>
</event>
<event>
12    3  0.4769008E-008  0.1697087E+04  0.7818608E-02  0.8763027E-01
         -1   -1    0    0    0  501 -0.00000000000E+00  0.00000000000E+00  0.15666878059E+04  0.15666878059E+04  0.00000000000E+00 0.  1.
          1   -1    0    0  501    0  0.00000000000E+00 -0.00000000000E+00 -0.45958498748E+03  0.45958498748E+03  0.00000000000E+00 0. -1.
         23    2    1    2    0    0 -0.20904405084E+03  0.47497982385E+03  0.78012404881E+03  0.94150723224E+03  0.92396366647E+02 0.  0.
        254    2    1    2    0    0  0.20904405084E+03 -0.47497982385E+03  0.32697876958E+03  0.10847655611E+04  0.89470439731E+03 0.  0.
         23    2    4    4    0    0 -0.89719995599E+02 -0.64391869266E+03  0.10274235871E+03  0.66458008410E+03  0.91813591223E+02 0.  0.
         23    2    4    4    0    0  0.29876404644E+03  0.16893886881E+03  0.22423641087E+03  0.42018547702E+03  0.92051997794E+02 0.  0.
          4    1    3    3  502    0 -0.68414382512E+02  0.17806684578E+03  0.21165418394E+03  0.28493125992E+03  0.00000000000E+00 0. -1.
         -4    1    3    3    0  502 -0.14062966833E+03  0.29691297807E+03  0.56846986487E+03  0.65657597232E+03  0.00000000000E+00 0.  1.
         13    1    5    5    0    0 -0.18646997853E+02 -0.27437641767E+03  0.85006225289E+02  0.28784750727E+03  0.00000000000E+00 0.  1.
        -13    1    5    5    0    0 -0.71072997746E+02 -0.36954227499E+03  0.17736133424E+02  0.37673257682E+03  0.00000000000E+00 0. -1.
          3    1    6    6  503    0  0.12703135479E+03  0.30073340405E+02  0.53708224045E+02  0.14115928674E+03  0.00000000000E+00 0. -1.
         -3    1    6    6    0  503  0.17173269166E+03  0.13886552841E+03  0.17052818682E+03  0.27902619028E+03  0.00000000000E+00 0.  1.
<mgrwt>
<rscale>  0 0.16970871E+04</rscale>
<asrwt>0</asrwt>
<pdfrwt beam="1">  1        1 0.70705383E-01 0.16970871E+04</pdfrwt>
<pdfrwt beam="2">  1       -1 0.24102889E+00 0.16970871E+04</pdfrwt>
<totfact> 0.37808064E+00</totfact>
</mgrwt>
</event>
<event>
12    3  0.4769008E-008  0.2487328E+04  0.7818608E-02  0.8407514E-01
         -2   -1    0    0    0  501 -0.00000000000E+00  0.00000000000E+00  0.17123440685E+04  0.17123440685E+04  0.00000000000E+00 0.  1.
          2   -1    0    0  501    0  0.00000000000E+00 -0.00000000000E+00 -0.90326451738E+03  0.90326451738E+03  0.00000000000E+00 0. -1.
         23    2    1    2    0    0 -0.99408881430E+03  0.34756490561E+03  0.12390241458E+03  0.10643586631E+04  0.92160843743E+02 0.  0.
        254    2    1    2    0    0  0.99408881430E+03 -0.34756490561E+03  0.68517713657E+03  0.15512499228E+04  0.90988717989E+03 0.  0.
         23    2    4    4    0    0  0.99698679932E+03 -0.20554717447E+03  0.83964651115E+03  0.13227537341E+04  0.91863259690E+02 0.  0.
         23    2    4    4    0    0 -0.28979850268E+01 -0.14201773114E+03 -0.15446937457E+03  0.22849618867E+03  0.90400698447E+02 0.  0.
          2    1    3    3  502    0 -0.95776452808E+03  0.34862708504E+03  0.13004121176E+03  0.10275039914E+04  0.00000000000E+00 0. -1.
         -2    1    3    3    0  502 -0.36324286214E+02 -0.10621794325E+01 -0.61387971851E+01  0.36854671684E+02  0.00000000000E+00 0.  1.
         13    1    5    5    0    0  0.68468837506E+03 -0.16149542598E+03  0.53015841266E+03  0.88087847406E+03  0.00000000000E+00 0. -1.
        -13    1    5    5    0    0  0.31229842426E+03 -0.44051748498E+02  0.30948809849E+03  0.44187526005E+03  0.00000000000E+00 0.  1.
          3    1    6    6  503    0 -0.46297765970E+02 -0.64725519500E+02 -0.68248250920E+02  0.10483653830E+03  0.00000000000E+00 0. -1.
         -3    1    6    6    0  503  0.43399780943E+02 -0.77292211638E+02 -0.86221123652E+02  0.12365965037E+03  0.00000000000E+00 0.  1.
<mgrwt>
<rscale>  0 0.24873276E+04</rscale>
<asrwt>0</asrwt>
<pdfrwt beam="1">  1        2 0.13896377E+00 0.24873276E+04</pdfrwt>
<pdfrwt beam="2">  1       -2 0.26343755E+00 0.24873276E+04</pdfrwt>
<totfact> 0.13843835E+00</totfact>
</mgrwt>
</event>
<event>
12    3  0.4769008E-008  0.1603705E+04  0.7818608E-02  0.8818275E-01
          1   -1    0    0  501    0  0.00000000000E+00  0.00000000000E+00  0.75536087017E+03  0.75536087017E+03  0.00000000000E+00 0. -1.
         -1   -1    0    0    0  501 -0.00000000000E+00 -0.00000000000E+00 -0.85120602914E+03  0.85120602914E+03  0.00000000000E+00 0.  1.
         23    2    1    2    0    0  0.10132166456E+03 -0.13717521349E+03  0.49269648922E+03  0.52937290297E+03  0.91666356989E+02 0.  0.
        254    2    1    2    0    0 -0.10132166456E+03  0.13717521349E+03 -0.58854164819E+03  0.10771939963E+04  0.88593595434E+03 0.  0.
         23    2    4    4    0    0  0.25935549836E+02  0.16913174982E+02 -0.79061307297E+03  0.79684274468E+03  0.94501959566E+02 0.  0.
         23    2    4    4    0    0 -0.12725721440E+03  0.12026203850E+03  0.20207142478E+03  0.28035125166E+03  0.84300694383E+02 0.  0.
          4    1    3    3  502    0  0.19785801644E+02 -0.38472831820E+01  0.16600356672E+03  0.16722279659E+03  0.00000000000E+00 0. -1.
         -4    1    3    3    0  502  0.81535862918E+02 -0.13332793030E+03  0.32669292250E+03  0.36215010638E+03  0.00000000000E+00 0.  1.
         13    1    5    5    0    0 -0.35533834368E+02  0.23592216342E+01 -0.24232554183E+03  0.24492833142E+03  0.00000000000E+00 0. -1.
        -13    1    5    5    0    0  0.61469384205E+02  0.14553953347E+02 -0.54828753114E+03  0.55191441325E+03  0.00000000000E+00 0.  1.
          1    1    6    6  503    0 -0.46419176982E+02  0.84174264935E+02  0.61139766623E+02  0.11392154288E+03  0.00000000000E+00 0. -1.
         -1    1    6    6    0  503 -0.80838037416E+02  0.36087773570E+02  0.14093165816E+03  0.16642970878E+03  0.00000000000E+00 0.  1.
<mgrwt>
<rscale>  0 0.16037054E+04</rscale>
<asrwt>0</asrwt>
<pdfrwt beam="1">  1        1 0.11620936E+00 0.16037054E+04</pdfrwt>
<pdfrwt beam="2">  1       -1 0.13095477E+00 0.16037054E+04</pdfrwt>
<totfact> 0.11568859E+01</totfact>
</mgrwt>
</event>
<event>
12    3  0.4769008E-008  0.1360022E+04  0.7818608E-02  0.8983276E-01
         -2   -1    0    0    0  501 -0.00000000000E+00  0.00000000000E+00  0.30896719428E+03  0.30896719428E+03  0.00000000000E+00 0.  1.
          2   -1    0    0  501    0  0.00000000000E+00 -0.00000000000E+00 -0.14966465854E+04  0.14966465854E+04  0.00000000000E+00 0. -1.
         23    2    1    2    0    0 -0.15192058383E+03 -0.86528668757E+02 -0.78182149974E+03  0.80642688277E+03  0.92262589822E+02 0.  0.
        254    2    1    2    0    0  0.15192058383E+03  0.86528668757E+02 -0.40585789137E+03  0.99918689690E+03  0.89615107691E+03 0.  0.
         23    2    4    4    0    0  0.46903969623E+03 -0.22957511514E+02 -0.18076275365E+02  0.47856318438E+03  0.90391845542E+02 0.  0.
         23    2    4    4    0    0 -0.31711911240E+03  0.10948618027E+03 -0.38778161600E+03  0.52062371252E+03  0.90126096174E+02 0.  0.
          4    1    3    3  502    0 -0.55721400522E+02 -0.76945536424E+02 -0.48634597168E+03  0.49553798464E+03  0.00000000000E+00 0. -1.
         -4    1    3    3    0  502 -0.96199183308E+02 -0.95831323327E+01 -0.29547552806E+03  0.31088889813E+03  0.00000000000E+00 0.  1.
         13    1    5    5    0    0  0.98969715712E+02 -0.13359730341E+02 -0.40323590161E+02  0.10770087719E+03  0.00000000000E+00 0. -1.
        -13    1    5    5    0    0  0.37006998051E+03 -0.95977811725E+01  0.22247314796E+02  0.37086230719E+03  0.00000000000E+00 0.  1.
          2    1    6    6  503    0 -0.10020640119E+03  0.69356945713E+01 -0.69976127441E+02  0.12241766666E+03  0.00000000000E+00 0. -1.
         -2    1    6    6    0  503 -0.21691271120E+03  0.10255048570E+03 -0.31780548856E+03  0.39820604586E+03  0.00000000000E+00 0.  1.
<mgrwt>
<rscale>  0 0.13600216E+04</rscale>
<asrwt>0</asrwt>
<pdfrwt beam="1">  1        2 0.23025332E+00 0.13600216E+04</pdfrwt>
<pdfrwt beam="2">  1       -2 0.47533414E-01 0.13600216E+04</pdfrwt>
<totfact> 0.52180793E+01</totfact>
</mgrwt>
</event>
<event>
12    3  0.4769008E-008  0.1789634E+04  0.7818608E-02  0.8711832E-01
         -1   -1    0    0    0  501 -0.00000000000E+00  0.00000000000E+00  0.43410734571E+04  0.43410734571E+04  0.00000000000E+00 0.  1.
          1   -1    0    0  501    0  0.00000000000E+00 -0.00000000000E+00 -0.18444685769E+03  0.18444685769E+03  0.00000000000E+00 0. -1.
         23    2    1    2    0    0 -0.53816044882E+03  0.16684991147E+03  0.23937583211E+04  0.24608558592E+04  0.90978557345E+02 0.  0.
        254    2    1    2    0    0  0.53816044882E+03 -0.16684991147E+03  0.17628682783E+04  0.20646644556E+04  0.91524815554E+03 0.  0.
         23    2    4    4    0    0  0.50798489880E+02 -0.14271166767E+03 -0.50798138145E+02  0.18432692384E+03  0.91917666152E+02 0.  0.
         23    2    4    4    0    0  0.48736195894E+03 -0.24138243806E+02  0.18136664164E+04  0.18803375318E+04  0.90437987783E+02 0.  0.
          1    1    3    3  502    0 -0.31942518050E+03  0.12138110649E+03  0.12741889560E+04  0.13192131422E+04  0.00000000000E+00 0. -1.
         -1    1    3    3    0  502 -0.21873526832E+03  0.45468804984E+02  0.11195693652E+04  0.11416427170E+04  0.00000000000E+00 0.  1.
         13    1    5    5    0    0  0.23788424308E+02  0.33363694162E+01 -0.22933712864E+02  0.33211077635E+02  0.00000000000E+00 0. -1.
        -13    1    5    5    0    0  0.27010065572E+02 -0.14604803708E+03 -0.27864425281E+02  0.15111584621E+03  0.00000000000E+00 0.  1.
          4    1    6    6  503    0  0.16285717243E+03  0.37555445057E+01  0.76946179308E+03  0.78651637856E+03  0.00000000000E+00 0. -1.
         -4    1    6    6    0  503  0.32450478651E+03 -0.27893788312E+02  0.10442046233E+04  0.10938211532E+04  0.00000000000E+00 0.  1.
<mgrwt>
<rscale>  0 0.17896339E+04</rscale>
<asrwt>0</asrwt>
<pdfrwt beam="1">  1        1 0.28376443E-01 0.17896339E+04</pdfrwt>
<pdfrwt beam="2">  1       -1 0.66785738E+00 0.17896339E+04</pdfrwt>
<totfact> 0.39253554E-02</totfact>
</mgrwt>
</event>
<event>
12    3  0.4769008E-008  0.3447024E+04  0.7818608E-02  0.8126461E-01
          1   -1    0    0  501    0  0.00000000000E+00  0.00000000000E+00  0.19237622288E+04  0.19237622288E+04  0.00000000000E+00 0. -1.
         -1   -1    0    0    0  501 -0.00000000000E+00 -0.00000000000E+00 -0.15441060221E+04  0.15441060221E+04  0.00000000000E+00 0.  1.
         23    2    1    2    0    0  0.94895779365E+03 -0.90468052574E+03  0.11054214313E+04  0.17171670935E+04  0.87968962378E+02 0.  0.
        254    2    1    2    0    0 -0.94895779365E+03  0.90468052574E+03 -0.72576522464E+03  0.17507011575E+04  0.90512520333E+03 0.  0.
         23    2    4    4    0    0 -0.19534021801E+03  0.26763650033E+03  0.19732161121E+03  0.39633812146E+03  0.91438455764E+02 0.  0.
         23    2    4    4    0    0 -0.75361757564E+03  0.63704402541E+03 -0.92308683585E+03  0.13543630360E+04  0.91898782180E+02 0.  0.
          1    1    3    3  502    0  0.36084008169E+03 -0.35726074196E+03  0.37402449365E+03  0.63066244866E+03  0.00000000000E+00 0. -1.
         -1    1    3    3    0  502  0.58811771196E+03 -0.54741978379E+03  0.73139693764E+03  0.10865046448E+04  0.00000000000E+00 0.  1.
         13    1    5    5    0    0 -0.16112202281E+03  0.23642579891E+03  0.20133957159E+03  0.34985009320E+03  0.00000000000E+00 0. -1.
        -13    1    5    5    0    0 -0.34218195202E+02  0.31210701418E+02 -0.40179603809E+01  0.46488028260E+02  0.00000000000E+00 0.  1.
          1    1    6    6  503    0 -0.68016283549E+03  0.60626686994E+03 -0.85743302118E+03  0.12511484269E+04  0.00000000000E+00 0. -1.
         -1    1    6    6    0  503 -0.73454740152E+02  0.30777155471E+02 -0.65653814671E+02  0.10321460909E+03  0.00000000000E+00 0.  1.
<mgrwt>
<rscale>  0 0.34470236E+04</rscale>
<asrwt>0</asrwt>
<pdfrwt beam="1">  1        1 0.29596342E+00 0.34470236E+04</pdfrwt>
<pdfrwt beam="2">  1       -1 0.23755477E+00 0.34470236E+04</pdfrwt>
<totfact> 0.23147299E-01</totfact>
</mgrwt>
</event>
<event>
12    3  0.4769008E-008  0.1704552E+04  0.7818608E-02  0.8758772E-01
          2   -1    0    0  501    0  0.00000000000E+00  0.00000000000E+00  0.20245657646E+04  0.20245657646E+04  0.00000000000E+00 0. -1.
         -2   -1    0    0    0  501 -0.00000000000E+00 -0.00000000000E+00 -0.35878041766E+03  0.35878041766E+03  0.00000000000E+00 0.  1.
         23    2    1    2    0    0 -0.49594080673E+03 -0.38258339579E+02  0.10972247204E+04  0.12080942393E+04  0.90380415415E+02 0.  0.
        254    2    1    2    0    0  0.49594080673E+03  0.38258339579E+02  0.56856062647E+03  0.11752519430E+04  0.90029715048E+03 0.  0.
         23    2    4    4    0    0 -0.19248698674E+03 -0.79899756825E+01 -0.76094197965E+02  0.22644058689E+03  0.91487336024E+02 0.  0.
         23    2    4    4    0    0  0.68842779347E+03  0.46248315262E+02  0.64465482444E+03  0.94881135608E+03  0.92689876790E+02 0.  0.
          4    1    3    3  502    0 -0.35359912904E+03 -0.57085763791E+02  0.84666335624E+03  0.91930950571E+03  0.00000000000E+00 0. -1.
         -4    1    3    3    0  502 -0.14234167769E+03  0.18827424212E+02  0.25056136421E+03  0.28878473357E+03  0.00000000000E+00 0.  1.
         13    1    5    5    0    0 -0.92058771919E+02 -0.16644065033E+01 -0.85143409956E+02  0.12540728845E+03  0.00000000000E+00 0.  1.
        -13    1    5    5    0    0 -0.10042821482E+03 -0.63255691792E+01  0.90492119907E+01  0.10103329845E+03  0.00000000000E+00 0. -1.
          1    1    6    6  503    0  0.47100874187E+03  0.56150064353E+02  0.39215849487E+03  0.61545946231E+03  0.00000000000E+00 0. -1.
         -1    1    6    6    0  503  0.21741905160E+03 -0.99017490917E+01  0.25249632956E+03  0.33335189377E+03  0.00000000000E+00 0.  1.
<mgrwt>
<rscale>  0 0.17045522E+04</rscale>
<asrwt>0</asrwt>
<pdfrwt beam="1">  1        2 0.31147165E+00 0.17045522E+04</pdfrwt>
<pdfrwt beam="2">  1       -2 0.55196988E-01 0.17045522E+04</pdfrwt>
<totfact> 0.19006214E+01</totfact>
</mgrwt>
</event>
<event>
12    3  0.4769008E-008  0.1424001E+04  0.7818608E-02  0.8936626E-01
          1   -1    0    0  501    0  0.00000000000E+00  0.00000000000E+00  0.16344009496E+04  0.16344009496E+04  0.00000000000E+00 0. -1.
         -1   -1    0    0    0  501 -0.00000000000E+00 -0.00000000000E+00 -0.31017150000E+03  0.31017150000E+03  0.00000000000E+00 0.  1.
         23    2    1    2    0    0 -0.87453959434E+02 -0.27465721661E+03 -0.24749174891E+02  0.30324965535E+03  0.90901320980E+02 0.  0.
        254    2    1    2    0    0  0.87453959434E+02  0.27465721661E+03  0.13489786245E+04  0.16413227942E+04  0.88944499768E+03 0.  0.
         23    2    4    4    0    0 -0.11045890640E+03 -0.14840272119E+03  0.10690649659E+04  0.10889641652E+04  0.93372983806E+02 0.  0.
         23    2    4    4    0    0  0.19791286584E+03  0.42305993780E+03  0.27991365855E+03  0.55235862901E+03  0.92731792639E+02 0.  0.
          2    1    3    3  502    0  0.27472056999E+01 -0.61022752250E+02 -0.36316693997E+02  0.71064939979E+02  0.00000000000E+00 0. -1.
         -2    1    3    3    0  502 -0.90201165134E+02 -0.21363446436E+03  0.11567519106E+02  0.23218471537E+03  0.00000000000E+00 0.  1.
         13    1    5    5    0    0 -0.11271205949E+03 -0.86315615264E+02  0.65031952474E+03  0.66563494353E+03  0.00000000000E+00 0.  1.
        -13    1    5    5    0    0  0.22531530929E+01 -0.62087105921E+02  0.41874544117E+03  0.42332922167E+03  0.00000000000E+00 0. -1.
          2    1    6    6  503    0  0.12112487041E+03  0.34287511387E+03  0.23264572286E+03  0.43169272673E+03  0.00000000000E+00 0. -1.
         -2    1    6    6    0  503  0.76787995424E+02  0.80184823925E+02  0.47267935696E+02  0.12066590228E+03  0.00000000000E+00 0.  1.
<mgrwt>
<rscale>  0 0.14240008E+04</rscale>
<asrwt>0</asrwt>
<pdfrwt beam="1">  1        1 0.25144630E+00 0.14240008E+04</pdfrwt>
<pdfrwt beam="2">  1       -1 0.47718693E-01 0.14240008E+04</pdfrwt>
<totfact> 0.22559461E+01</totfact>
</mgrwt>
</event>
<event>
12    3  0.4769008E-008  0.2350630E+04  0.7818608E-02  0.8458222E-01
          2   -1    0    0  501    0  0.00000000000E+00  0.00000000000E+00  0.22278849338E+04  0.22278849338E+04  0.00000000000E+00 0. -1.
         -2   -1    0    0    0  501 -0.00000000000E+00 -0.00000000000E+00 -0.62003417776E+03  0.62003417776E+03  0.00000000000E+00 0.  1.
         23    2    1    2    0    0 -0.15217871655E+03  0.97775603505E+03  0.46071715152E+03  0.10952857611E+04  0.90693874582E+02 0.  0.
        254    2    1    2    0    0  0.15217871655E+03 -0.97775603505E+03  0.11471336045E+04  0.17526333505E+04  0.88127346990E+03 0.  0.
         23    2    4    4    0    0 -0.22809950177E+03 -0.75831077851E+03  0.10034489429E+04  0.12816082810E+04  0.92441254496E+02 0.  0.
         23    2    4    4    0    0  0.38027821832E+03 -0.21944525654E+03  0.14368466168E+03  0.47102506948E+03  0.91932530302E+02 0.  0.
          2    1    3    3  502    0 -0.17051242073E+02  0.32481324569E+03  0.18081726883E+03  0.37214147060E+03  0.00000000000E+00 0. -1.
         -2    1    3    3    0  502 -0.13512747448E+03  0.65294278936E+03  0.27989988269E+03  0.72314429049E+03  0.00000000000E+00 0.  1.
         13    1    5    5    0    0 -0.15828801856E+03 -0.37429586613E+03  0.48797939436E+03  0.63504045662E+03  0.00000000000E+00 0. -1.
        -13    1    5    5    0    0 -0.69811483214E+02 -0.38401491237E+03  0.51546954849E+03  0.64656782439E+03  0.00000000000E+00 0.  1.
          1    1    6    6  503    0  0.29721165115E+03 -0.18879791225E+03  0.14897838622E+03  0.38232705477E+03  0.00000000000E+00 0. -1.
         -1    1    6    6    0  503  0.83066567178E+02 -0.30647344297E+02 -0.52937245378E+01  0.88698014717E+02  0.00000000000E+00 0.  1.
<mgrwt>
<rscale>  0 0.23506295E+04</rscale>
<asrwt>0</asrwt>
<pdfrwt beam="1">  1        2 0.34275152E+00 0.23506295E+04</pdfrwt>
<pdfrwt beam="2">  1       -2 0.95389875E-01 0.23506295E+04</pdfrwt>
<totfact> 0.41503109E+00</totfact>
</mgrwt>
</event>
<event>
12    3  0.4769008E-008  0.1451773E+04  0.7818608E-02  0.8917172E-01
          1   -1    0    0  501    0  0.00000000000E+00  0.00000000000E+00  0.46956212567E+03  0.46956212567E+03  0.00000000000E+00 0. -1.
         -1   -1    0    0    0  501 -0.00000000000E+00 -0.00000000000E+00 -0.11221326536E+04  0.11221326536E+04  0.00000000000E+00 0.  1.
         23    2    1    2    0    0  0.13580224045E+03  0.31790775010E+03  0.95682136139E+02  0.37232981198E+03  0.99834020387E+02 0.  0.
        254    2    1    2    0    0 -0.13580224045E+03 -0.31790775010E+03 -0.74825266403E+03  0.12193649673E+04  0.89858849762E+03 0.  0.
         23    2    4    4    0    0 -0.52359814018E+01 -0.95315309085E+02 -0.89794955157E+03  0.90745482871E+03  0.89713128004E+02 0.  0.
         23    2    4    4    0    0 -0.13056625905E+03 -0.22259244102E+03  0.14969688753E+03  0.31191013855E+03  0.91015567870E+02 0.  0.
          2    1    3    3  502    0  0.14219472437E+03  0.22223822600E+03  0.66146417419E+02  0.27200095087E+03  0.00000000000E+00 0. -1.
         -2    1    3    3    0  502 -0.63924839173E+01  0.95669524100E+02  0.29535718720E+02  0.10032886111E+03  0.00000000000E+00 0.  1.
         13    1    5    5    0    0  0.12452312144E+02 -0.10283223220E+03 -0.84088065016E+03  0.84723656429E+03  0.00000000000E+00 0.  1.
        -13    1    5    5    0    0 -0.17688293546E+02  0.75169231100E+01 -0.57068901413E+02  0.60218264423E+02  0.00000000000E+00 0. -1.
          4    1    6    6  503    0 -0.95954932647E+02 -0.21454492451E+03  0.14477205922E+03  0.27603590865E+03  0.00000000000E+00 0.  1.
         -4    1    6    6    0  503 -0.34611326402E+02 -0.80475165043E+01  0.49248283143E+01  0.35874229903E+02  0.00000000000E+00 0. -1.
<mgrwt>
<rscale>  0 0.14517727E+04</rscale>
<asrwt>0</asrwt>
<pdfrwt beam="1">  1        1 0.72240328E-01 0.14517727E+04</pdfrwt>
<pdfrwt beam="2">  1       -1 0.17263579E+00 0.14517727E+04</pdfrwt>
<totfact> 0.11042499E+01</totfact>
</mgrwt>
</event>
<event>
12    3  0.4769008E-008  0.1277970E+04  0.7818608E-02  0.9047220E-01
         -2   -1    0    0    0  501 -0.00000000000E+00  0.00000000000E+00  0.19503773292E+03  0.19503773292E+03  0.00000000000E+00 0.  1.
          2   -1    0    0  501    0  0.00000000000E+00 -0.00000000000E+00 -0.20934492949E+04  0.20934492949E+04  0.00000000000E+00 0. -1.
         23    2    1    2    0    0 -0.26858058007E+02 -0.22629812931E+03 -0.90060522762E+03  0.93312745608E+03  0.87777415491E+02 0.  0.
        254    2    1    2    0    0  0.26858058007E+02  0.22629812931E+03 -0.99780633435E+03  0.13553595717E+04  0.88850992632E+03 0.  0.
         23    2    4    4    0    0  0.14567462365E+02  0.55625368586E+03 -0.52794387962E+03  0.77264111152E+03  0.92839502382E+02 0.  0.
         23    2    4    4    0    0  0.12290595642E+02 -0.32995555655E+03 -0.46986245473E+03  0.58271846019E+03  0.98834960644E+02 0.  0.
          1    1    3    3  502    0  0.15112848363E+02 -0.15352450365E+03 -0.67458859710E+03  0.69200285168E+03  0.00000000000E+00 0. -1.
         -1    1    3    3    0  502 -0.41970906369E+02 -0.72773625659E+02 -0.22601663052E+03  0.24112460439E+03  0.00000000000E+00 0.  1.
         13    1    5    5    0    0 -0.16102415574E+02  0.49797723130E+03 -0.46938814108E+03  0.68451869051E+03  0.00000000000E+00 0.  1.
        -13    1    5    5    0    0  0.30669877939E+02  0.58276454559E+02 -0.58555738539E+02  0.88122421010E+02  0.00000000000E+00 0. -1.
          1    1    6    6  503    0  0.20086792511E+02 -0.23292093299E+02 -0.15359556667E+02  0.34379017214E+02  0.00000000000E+00 0. -1.
         -1    1    6    6    0  503 -0.77961968689E+01 -0.30666346325E+03 -0.45450289806E+03  0.54833944298E+03  0.00000000000E+00 0.  1.
<mgrwt>
<rscale>  0 0.12779696E+04</rscale>
<asrwt>0</asrwt>
<pdfrwt beam="1">  1        2 0.32206914E+00 0.12779696E+04</pdfrwt>
<pdfrwt beam="2">  1       -2 0.30005804E-01 0.12779696E+04</pdfrwt>
<totfact> 0.59717947E+01</totfact>
</mgrwt>
</event>
<event>
12    3  0.4769008E-008  0.1855285E+04  0.7818608E-02  0.8677440E-01
         -1   -1    0    0    0  501 -0.00000000000E+00  0.00000000000E+00  0.81607986065E+03  0.81607986065E+03  0.00000000000E+00 0.  1.
          1   -1    0    0  501    0  0.00000000000E+00 -0.00000000000E+00 -0.10544564840E+04  0.10544564840E+04  0.00000000000E+00 0. -1.
         23    2    1    2    0    0 -0.33351477124E+03  0.37871077010E+03  0.39998967028E+03  0.65455267835E+03  0.11744582746E+03 0.  0.
        254    2    1    2    0    0  0.33351477124E+03 -0.37871077010E+03 -0.63836629364E+03  0.12159836663E+04  0.90357667181E+03 0.  0.
         23    2    4    4    0    0  0.39823098274E+03 -0.27972134380E+03 -0.83402438027E+03  0.96985381522E+03  0.90486519608E+02 0.  0.
         23    2    4    4    0    0 -0.64716211505E+02 -0.98989426296E+02  0.19565808663E+03  0.24612985107E+03  0.91163162383E+02 0.  0.
          4    1    3    3  502    0 -0.96178671538E+02  0.19675014605E+03  0.16428770692E+03  0.27377254698E+03  0.00000000000E+00 0. -1.
         -4    1    3    3    0  502 -0.23733609970E+03  0.18196062404E+03  0.23570196336E+03  0.38078013138E+03  0.00000000000E+00 0.  1.
         13    1    5    5    0    0  0.39407243389E+03 -0.26425513866E+03 -0.77510728025E+03  0.90879874415E+03  0.00000000000E+00 0. -1.
        -13    1    5    5    0    0  0.41585488485E+01 -0.15466205137E+02 -0.58917100018E+02  0.61055071079E+02  0.00000000000E+00 0.  1.
          1    1    6    6  503    0 -0.80261976958E+02 -0.43241892852E+02  0.11224852583E+03  0.14460836004E+03  0.00000000000E+00 0. -1.
         -1    1    6    6    0  503  0.15545765453E+02 -0.55747533444E+02  0.83409560800E+02  0.10152149103E+03  0.00000000000E+00 0.  1.
<mgrwt>
<rscale>  0 0.18552851E+04</rscale>
<asrwt>0</asrwt>
<pdfrwt beam="1">  1        1 0.16222407E+00 0.18552851E+04</pdfrwt>
<pdfrwt beam="2">  1       -1 0.12555075E+00 0.18552851E+04</pdfrwt>
<totfact> 0.71390370E+00</totfact>
</mgrwt>
</event>
<event>
12    3  0.4769008E-008  0.1795045E+04  0.7818608E-02  0.8708939E-01
         -2   -1    0    0    0  501 -0.00000000000E+00  0.00000000000E+00  0.46088825880E+03  0.46088825880E+03  0.00000000000E+00 0. -1.
          2   -1    0    0  501    0  0.00000000000E+00 -0.00000000000E+00 -0.17478134042E+04  0.17478134042E+04  0.00000000000E+00 0.  1.
         23    2    1    2    0    0  0.63541476812E+02  0.30781796202E+03  0.23627610500E+03  0.40383906737E+03  0.92033567353E+02 0.  0.
        254    2    1    2    0    0 -0.63541476812E+02 -0.30781796202E+03 -0.15232012504E+04  0.18048625956E+04  0.91574970535E+03 0.  0.
         23    2    4    4    0    0  0.19079583170E+03  0.15110894130E+03 -0.10834843304E+04  0.11141833400E+04  0.90715264845E+02 0.  0.
         23    2    4    4    0    0 -0.25433730852E+03 -0.45892690332E+03 -0.43971691996E+03  0.69067925563E+03  0.91572350471E+02 0.  0.
          3    1    3    3  502    0  0.67562751923E+02  0.24363855073E+03  0.22520467494E+03  0.33858767619E+03  0.00000000000E+00 0. -1.
         -3    1    3    3    0  502 -0.40212751107E+01  0.64179411296E+02  0.11071430054E+02  0.65251391183E+02  0.00000000000E+00 0.  1.
         13    1    5    5    0    0  0.14081686129E+03  0.15519616715E+03 -0.86674274334E+03  0.89171644700E+03  0.00000000000E+00 0.  1.
        -13    1    5    5    0    0  0.49978970410E+02 -0.40872258551E+01 -0.21674158708E+03  0.22246689297E+03  0.00000000000E+00 0. -1.
          3    1    6    6  503    0 -0.11210480170E+03 -0.11605610431E+03 -0.12836979492E+03  0.20619241053E+03  0.00000000000E+00 0. -1.
         -3    1    6    6    0  503 -0.14223250681E+03 -0.34287079901E+03 -0.31134712504E+03  0.48448684511E+03  0.00000000000E+00 0.  1.
<mgrwt>
<rscale>  0 0.17950450E+04</rscale>
<asrwt>0</asrwt>
<pdfrwt beam="1">  1        2 0.26889437E+00 0.17950450E+04</pdfrwt>
<pdfrwt beam="2">  1       -2 0.70905886E-01 0.17950450E+04</pdfrwt>
<totfact> 0.15743451E+01</totfact>
</mgrwt>
</event>
<event>
12    3  0.4769008E-008  0.1810795E+04  0.7818608E-02  0.8700580E-01
          2   -1    0    0  501    0  0.00000000000E+00  0.00000000000E+00  0.20407941535E+04  0.20407941535E+04  0.00000000000E+00 0.  1.
         -2   -1    0    0    0  501 -0.00000000000E+00 -0.00000000000E+00 -0.40167922044E+03  0.40167922044E+03  0.00000000000E+00 0. -1.
         23    2    1    2    0    0 -0.23897446040E+03 -0.10573396061E+03  0.14629782399E+04  0.14888715328E+04  0.90247701125E+02 0.  0.
        254    2    1    2    0    0  0.23897446040E+03  0.10573396061E+03  0.17613669316E+03  0.95360184116E+03  0.90002437391E+03 0.  0.
         23    2    4    4    0    0  0.52708926887E+03  0.25555141584E+03  0.16607519525E+03  0.61544365910E+03  0.89779193348E+02 0.  0.
         23    2    4    4    0    0 -0.28811480847E+03 -0.14981745522E+03  0.10061497915E+02  0.33815818206E+03  0.93777980371E+02 0.  0.
          1    1    3    3  502    0 -0.71312853019E+02 -0.62570795952E+02  0.70610243609E+03  0.71244738596E+03  0.00000000000E+00 0. -1.
         -1    1    3    3    0  502 -0.16766160738E+03 -0.43163164662E+02  0.75687580382E+03  0.77642414683E+03  0.00000000000E+00 0.  1.
         13    1    5    5    0    0  0.11484648591E+03  0.95198049701E+02  0.58388346155E+02  0.16019233115E+03  0.00000000000E+00 0. -1.
        -13    1    5    5    0    0  0.41224278296E+03  0.16035336613E+03  0.10768684909E+03  0.45525132795E+03  0.00000000000E+00 0.  1.
          2    1    6    6  503    0 -0.28250418921E+03 -0.15355542406E+03 -0.50838931104E+01  0.32158005403E+03  0.00000000000E+00 0.  1.
         -2    1    6    6    0  503 -0.56106192572E+01  0.37379688404E+01  0.15145391025E+02  0.16578128025E+02  0.00000000000E+00 0. -1.
<mgrwt>
<rscale>  0 0.18107950E+04</rscale>
<asrwt>0</asrwt>
<pdfrwt beam="1">  1        2 0.31396833E+00 0.18107950E+04</pdfrwt>
<pdfrwt beam="2">  1       -2 0.61796804E-01 0.18107950E+04</pdfrwt>
<totfact> 0.14549546E+01</totfact>
</mgrwt>
</event>
<event>
12    3  0.4769008E-008  0.2302037E+04  0.7818608E-02  0.8477118E-01
         -1   -1    0    0    0  501 -0.00000000000E+00  0.00000000000E+00  0.15325640310E+04  0.15325640310E+04  0.00000000000E+00 0.  1.
          1   -1    0    0  501    0  0.00000000000E+00 -0.00000000000E+00 -0.86446244098E+03  0.86446244098E+03  0.00000000000E+00 0. -1.
         23    2    1    2    0    0 -0.92438403306E+02 -0.80036892335E+03  0.85279024683E+03  0.11767761920E+04  0.91737282399E+02 0.  0.
        254    2    1    2    0    0  0.92438403306E+02  0.80036892335E+03 -0.18468865680E+03  0.12202502800E+04  0.89764445863E+03 0.  0.
         23    2    4    4    0    0 -0.10242065897E+03  0.90566952018E+03 -0.29232867801E+03  0.96134793752E+03  0.89479214411E+02 0.  0.
         23    2    4    4    0    0  0.19485906228E+03 -0.10530059683E+03  0.10764002121E+03  0.25890234252E+03  0.79911069024E+02 0.  0.
          4    1    3    3  502    0 -0.23208854723E+02 -0.40378312026E+03  0.48473353564E+03  0.63130504490E+03  0.00000000000E+00 0. -1.
         -4    1    3    3    0  502 -0.69229548583E+02 -0.39658580309E+03  0.36805671118E+03  0.54547114705E+03  0.00000000000E+00 0.  1.
         13    1    5    5    0    0 -0.74635192051E+02  0.35297893316E+03 -0.87264897223E+02  0.37118688209E+03  0.00000000000E+00 0.  1.
        -13    1    5    5    0    0 -0.27785466921E+02  0.55269058703E+03 -0.20506378079E+03  0.59016105543E+03  0.00000000000E+00 0. -1.
          3    1    6    6  503    0  0.33186458909E+02 -0.18696258475E+02  0.57134960912E+02  0.68668004881E+02  0.00000000000E+00 0. -1.
         -3    1    6    6    0  503  0.16167260337E+03 -0.86604338353E+02  0.50505060298E+02  0.19023433764E+03  0.00000000000E+00 0.  1.
<mgrwt>
<rscale>  0 0.23020374E+04</rscale>
<asrwt>0</asrwt>
<pdfrwt beam="1">  1        1 0.13299422E+00 0.23020374E+04</pdfrwt>
<pdfrwt beam="2">  1       -1 0.23577908E+00 0.23020374E+04</pdfrwt>
<totfact> 0.15211016E+00</totfact>
</mgrwt>
</event>
<event>
12    3  0.4769008E-008  0.1175103E+04  0.7818608E-02  0.9134932E-01
          2   -1    0    0  501    0  0.00000000000E+00  0.00000000000E+00  0.37458881634E+03  0.37458881634E+03  0.00000000000E+00 0. -1.
         -2   -1    0    0    0  501 -0.00000000000E+00 -0.00000000000E+00 -0.92158892526E+03  0.92158892526E+03  0.00000000000E+00 0.  1.
         23    2    1    2    0    0 -0.92308928326E+02 -0.26731573999E+02  0.11777276849E+03  0.17712989967E+03  0.90934377784E+02 0.  0.
        254    2    1    2    0    0  0.92308928326E+02  0.26731573999E+02 -0.66477287742E+03  0.11190478419E+04  0.89504724941E+03 0.  0.
         23    2    4    4    0    0  0.28493576038E+03 -0.35294353530E+03 -0.37803228369E+03  0.59728015299E+03  0.89875730837E+02 0.  0.
         23    2    4    4    0    0 -0.19262683206E+03  0.37967510930E+03 -0.28674059373E+03  0.52176768894E+03  0.93611260429E+02 0.  0.
          3    1    3    3  502    0 -0.67765077306E+01  0.18369132208E+02  0.63059204019E+02  0.66028851926E+02  0.00000000000E+00 0. -1.
         -3    1    3    3    0  502 -0.85532420595E+02 -0.45100706207E+02  0.54713564469E+02  0.11110104774E+03  0.00000000000E+00 0.  1.
         13    1    5    5    0    0  0.24157734903E+03 -0.23701134205E+03 -0.26856453095E+03  0.43204270519E+03  0.00000000000E+00 0.  1.
        -13    1    5    5    0    0  0.43358411357E+02 -0.11593219325E+03 -0.10946775274E+03  0.16523744780E+03  0.00000000000E+00 0. -1.
          3    1    6    6  503    0 -0.43138638367E+02  0.93420541995E+02 -0.12081921455E+03  0.15869978699E+03  0.00000000000E+00 0. -1.
         -3    1    6    6    0  503 -0.14948819369E+03  0.28625456730E+03 -0.16592137918E+03  0.36306790194E+03  0.00000000000E+00 0.  1.
<mgrwt>
<rscale>  0 0.11751032E+04</rscale>
<asrwt>0</asrwt>
<pdfrwt beam="1">  1        2 0.57629049E-01 0.11751032E+04</pdfrwt>
<pdfrwt beam="2">  1       -2 0.14178291E+00 0.11751032E+04</pdfrwt>
<totfact> 0.29380106E+01</totfact>
</mgrwt>
</event>
<event>
12    3  0.4769008E-008  0.2635473E+04  0.7818608E-02  0.8356251E-01
         -2   -1    0    0    0  501 -0.00000000000E+00  0.00000000000E+00  0.68978383279E+03  0.68978383279E+03  0.00000000000E+00 0.  1.
          2   -1    0    0  501    0  0.00000000000E+00 -0.00000000000E+00 -0.25173528473E+04  0.25173528473E+04  0.00000000000E+00 0. -1.
         23    2    1    2    0    0  0.11493665811E+03 -0.11038094135E+04 -0.40199525343E+03  0.11838478350E+04  0.91048645805E+02 0.  0.
        254    2    1    2    0    0 -0.11493665811E+03  0.11038094135E+04 -0.14255737610E+04  0.20232888451E+04  0.91095090189E+03 0.  0.
         23    2    4    4    0    0  0.36009537074E+03  0.33103058285E+03 -0.69625208779E+03  0.85577298929E+03  0.91271663883E+02 0.  0.
         23    2    4    4    0    0 -0.47503202885E+03  0.77277883065E+03 -0.72932167325E+03  0.11675158558E+04  0.91326999719E+02 0.  0.
          2    1    3    3  502    0  0.34274673058E+02 -0.54904991842E+03 -0.24101814933E+03  0.60059996207E+03  0.00000000000E+00 0. -1.
         -2    1    3    3    0  502  0.80661985053E+02 -0.55475949509E+03 -0.16097710410E+03  0.58324787292E+03  0.00000000000E+00 0.  1.
         13    1    5    5    0    0  0.13208443253E+03  0.83909490565E+02 -0.27915924589E+03  0.32002653716E+03  0.00000000000E+00 0.  1.
        -13    1    5    5    0    0  0.22801093821E+03  0.24712109229E+03 -0.41709284190E+03  0.53574645212E+03  0.00000000000E+00 0. -1.
          1    1    6    6  503    0 -0.41255060710E+03  0.60408365970E+03 -0.59680055239E+03  0.94407943027E+03  0.00000000000E+00 0. -1.
         -1    1    6    6    0  503 -0.62481421750E+02  0.16869517095E+03 -0.13252112086E+03  0.22343642550E+03  0.00000000000E+00 0.  1.
<mgrwt>
<rscale>  0 0.26354729E+04</rscale>
<asrwt>0</asrwt>
<pdfrwt beam="1">  1        2 0.38728505E+00 0.26354729E+04</pdfrwt>
<pdfrwt beam="2">  1       -2 0.10612059E+00 0.26354729E+04</pdfrwt>
<totfact> 0.21490299E+00</totfact>
</mgrwt>
</event>
<event>
12    3  0.4769008E-008  0.2248927E+04  0.7818608E-02  0.8498335E-01
         -1   -1    0    0    0  501 -0.00000000000E+00  0.00000000000E+00  0.52933497408E+03  0.52933497408E+03  0.00000000000E+00 0.  1.
          1   -1    0    0  501    0  0.00000000000E+00 -0.00000000000E+00 -0.23886909371E+04  0.23886909371E+04  0.00000000000E+00 0. -1.
         23    2    1    2    0    0 -0.70425160497E+03  0.57635312776E+03 -0.10935684474E+04  0.14256777927E+04  0.92260330292E+02 0.  0.
        254    2    1    2    0    0  0.70425160497E+03 -0.57635312776E+03 -0.76578751564E+03  0.14923481185E+04  0.90139843389E+03 0.  0.
         23    2    4    4    0    0  0.75915275414E+02 -0.17368685209E+03  0.18484667572E+03  0.28051365177E+03  0.92678819987E+02 0.  0.
         23    2    4    4    0    0  0.62833632955E+03 -0.40266627567E+03 -0.95063419136E+03  0.12118344667E+04  0.88829816483E+02 0.  0.
          3    1    3    3  502    0 -0.70096493468E+03  0.56499595861E+03 -0.10637777962E+04  0.13936267336E+04  0.00000000000E+00 0. -1.
         -3    1    3    3    0  502 -0.32866702868E+01  0.11357169158E+02 -0.29790651197E+02  0.32051059134E+02  0.00000000000E+00 0.  1.
         13    1    5    5    0    0 -0.16842904321E+01 -0.35011408404E+02  0.87245680713E+02  0.94023637218E+02  0.00000000000E+00 0.  1.
        -13    1    5    5    0    0  0.77599565846E+02 -0.13867544369E+03  0.97600995011E+02  0.18649001456E+03  0.00000000000E+00 0. -1.
          2    1    6    6  503    0  0.42831720286E+03 -0.26479512964E+03 -0.70490685744E+03  0.86629427137E+03  0.00000000000E+00 0. -1.
         -2    1    6    6    0  503  0.20001912669E+03 -0.13787114603E+03 -0.24572733392E+03  0.34554019533E+03  0.00000000000E+00 0.  1.
<mgrwt>
<rscale>  0 0.22489265E+04</rscale>
<asrwt>0</asrwt>
<pdfrwt beam="1">  1        1 0.36749090E+00 0.22489265E+04</pdfrwt>
<pdfrwt beam="2">  1       -1 0.81436153E-01 0.22489265E+04</pdfrwt>
<totfact> 0.22048409E+00</totfact>
</mgrwt>
</event>
<event>
12    3  0.4769008E-008  0.2638193E+04  0.7818608E-02  0.8355342E-01
          2   -1    0    0  501    0  0.00000000000E+00  0.00000000000E+00  0.10400320264E+04  0.10400320264E+04  0.00000000000E+00 0. -1.
         -2   -1    0    0    0  501 -0.00000000000E+00 -0.00000000000E+00 -0.16730402204E+04  0.16730402204E+04  0.00000000000E+00 0.  1.
         23    2    1    2    0    0 -0.32060005575E+03  0.31966595234E+03 -0.13813996150E+04  0.14562589712E+04  0.86339897708E+02 0.  0.
        254    2    1    2    0    0  0.32060005575E+03 -0.31966595234E+03  0.74839142104E+03  0.12568132757E+04  0.90250716006E+03 0.  0.
         23    2    4    4    0    0  0.60001581786E+03 -0.28739191617E+03  0.67670839869E+03  0.95337204299E+03  0.91492624504E+02 0.  0.
         23    2    4    4    0    0 -0.27941576211E+03 -0.32274036177E+02  0.71683022354E+02  0.30344123268E+03  0.88449671966E+02 0.  0.
          4    1    3    3  502    0 -0.73766118633E+02  0.66740568839E+02 -0.42956003779E+03  0.44092807787E+03  0.00000000000E+00 0. -1.
         -4    1    3    3    0  502 -0.24683393712E+03  0.25292538350E+03 -0.95183957720E+03  0.10153308933E+04  0.00000000000E+00 0.  1.
         13    1    5    5    0    0  0.24049042264E+01 -0.13261448226E+02  0.19831331044E+02  0.23977724337E+02  0.00000000000E+00 0. -1.
        -13    1    5    5    0    0  0.59761091363E+03 -0.27413046794E+03  0.65687706764E+03  0.92939431865E+03  0.00000000000E+00 0.  1.
          1    1    6    6  503    0 -0.12176469138E+03  0.29867458881E+02  0.32324037169E+02  0.12947412308E+03  0.00000000000E+00 0. -1.
         -1    1    6    6    0  503 -0.15765107072E+03 -0.62141495058E+02  0.39358985185E+02  0.17396710960E+03  0.00000000000E+00 0.  1.
<mgrwt>
<rscale>  0 0.26381929E+04</rscale>
<asrwt>0</asrwt>
<pdfrwt beam="1">  1        2 0.16000493E+00 0.26381929E+04</pdfrwt>
<pdfrwt beam="2">  1       -2 0.25739080E+00 0.26381929E+04</pdfrwt>
<totfact> 0.12121376E+00</totfact>
</mgrwt>
</event>
<event>
12    3  0.8335992E-008  0.1576236E+04  0.7818608E-02  0.8835281E-01
          1   -1    0    0  501    0  0.00000000000E+00  0.00000000000E+00  0.50214933490E+03  0.50214933490E+03  0.00000000000E+00 0. -1.
         -1   -1    0    0    0  501 -0.00000000000E+00 -0.00000000000E+00 -0.12369434967E+04  0.12369434967E+04  0.00000000000E+00 0.  1.
         23    2    1    2    0    0  0.33535076080E+02 -0.20436431352E+03  0.28414287184E+03  0.36336490996E+03  0.91692487165E+02 0.  0.
        254    2    1    2    0    0 -0.33535076080E+02  0.20436431352E+03 -0.10189370337E+04  0.13757279216E+04  0.90083586844E+03 0.  0.
         23    2    4    4    0    0 -0.43020721027E+03 -0.49307077025E+02 -0.45621771010E+03  0.63634918911E+03  0.96417113886E+02 0.  0.
         23    2    4    4    0    0  0.39667213419E+03  0.25367139055E+03 -0.56271932355E+03  0.73937873254E+03  0.91268376784E+02 0.  0.
          1    1    3    3  502    0  0.28374568377E+02 -0.18113070038E+03  0.28575183412E+03  0.33951076192E+03  0.00000000000E+00 0. -1.
         -1    1    3    3    0  502  0.51605077023E+01 -0.23233613140E+02 -0.16089622819E+01  0.23854148044E+02  0.00000000000E+00 0.  1.
         13    1    5    5    0    0 -0.25282566530E+03 -0.69131075366E+02 -0.23432171222E+03  0.35157728515E+03  0.00000000000E+00 0. -1.
        -13    1    5    5    0    0 -0.17738154498E+03  0.19823998341E+02 -0.22189599788E+03  0.28477190396E+03  0.00000000000E+00 0.  1.
          1    1    6    6  503    0  0.26902134669E+03  0.21595028621E+03 -0.43172983133E+03  0.55262795654E+03  0.00000000000E+00 0. -1.
         -1    1    6    6    0  503  0.12765078751E+03  0.37721104339E+02 -0.13098949223E+03  0.18675077600E+03  0.00000000000E+00 0.  1.
<mgrwt>
<rscale>  0 0.15762365E+04</rscale>
<asrwt>0</asrwt>
<pdfrwt beam="1">  1        1 0.77253745E-01 0.15762365E+04</pdfrwt>
<pdfrwt beam="2">  1       -1 0.19029900E+00 0.15762365E+04</pdfrwt>
<totfact> 0.74473574E+00</totfact>
</mgrwt>
</event>
<event>
12    3  0.4769008E-008  0.2008206E+04  0.7818608E-02  0.8602794E-01
         -2   -1    0    0    0  501 -0.00000000000E+00  0.00000000000E+00  0.26902172503E+03  0.26902172503E+03  0.00000000000E+00 0.  1.
          2   -1    0    0  501    0  0.00000000000E+00 -0.00000000000E+00 -0.37477376073E+04  0.37477376073E+04  0.00000000000E+00 0. -1.
         23    2    1    2    0    0  0.69725205939E+03  0.21906711075E+03 -0.69970694451E+03  0.10157191501E+04  0.89133328647E+02 0.  0.
        254    2    1    2    0    0 -0.69725205939E+03 -0.21906711075E+03 -0.27790089377E+04  0.30010401822E+04  0.86556378507E+03 0.  0.
         23    2    4    4    0    0 -0.36461636408E+03  0.25872290229E+03 -0.66543395441E+03  0.80679707700E+03  0.90755400095E+02 0.  0.
         23    2    4    4    0    0 -0.33263569532E+03 -0.47779001305E+03 -0.21135749833E+04  0.21942431052E+04  0.92594775100E+02 0.  0.
          4    1    3    3  502    0  0.53952246379E+01 -0.18083237756E+01  0.18165326017E+01  0.59731293694E+01  0.00000000000E+00 0. -1.
         -4    1    3    3    0  502  0.69185683476E+03  0.22087543453E+03 -0.70152347712E+03  0.10097460207E+04  0.00000000000E+00 0.  1.
         13    1    5    5    0    0 -0.19346932918E+02  0.23941004925E+01 -0.67720100771E+02  0.70470189293E+02  0.00000000000E+00 0. -1.
        -13    1    5    5    0    0 -0.34526943116E+03  0.25632880180E+03 -0.59771385364E+03  0.73632688771E+03  0.00000000000E+00 0.  1.
          1    1    6    6  503    0 -0.17256336179E+02 -0.75925835798E+02 -0.24307478951E+03  0.25524080195E+03  0.00000000000E+00 0. -1.
         -1    1    6    6    0  503 -0.31537935914E+03 -0.40186417725E+03 -0.18705001938E+04  0.19390023033E+04  0.00000000000E+00 0.  1.
<mgrwt>
<rscale>  0 0.20082060E+04</rscale>
<asrwt>0</asrwt>
<pdfrwt beam="1">  1        2 0.57657497E+00 0.20082060E+04</pdfrwt>
<pdfrwt beam="2">  1       -2 0.41387961E-01 0.20082060E+04</pdfrwt>
<totfact> 0.27831945E+00</totfact>
</mgrwt>
</event>
<event>
12    3  0.4769008E-008  0.1605115E+04  0.7818608E-02  0.8817412E-01
         -2   -1    0    0    0  501 -0.00000000000E+00  0.00000000000E+00  0.45362701211E+03  0.45362701211E+03  0.00000000000E+00 0.  1.
          2   -1    0    0  501    0  0.00000000000E+00 -0.00000000000E+00 -0.14198864812E+04  0.14198864812E+04  0.00000000000E+00 0. -1.
         23    2    1    2    0    0  0.16636915401E+02  0.13529637490E+03 -0.94811214145E+03  0.96222336086E+03  0.91516487110E+02 0.  0.
        254    2    1    2    0    0 -0.16636915401E+02 -0.13529637490E+03 -0.18147327627E+02  0.91129013244E+03  0.90085430785E+03 0.  0.
         23    2    4    4    0    0 -0.44307963618E+03 -0.99940608309E+02 -0.71171501697E+02  0.46999191641E+03  0.97567052086E+02 0.  0.
         23    2    4    4    0    0  0.42644272078E+03 -0.35355766590E+02  0.53024174070E+02  0.44129821602E+03  0.93963440193E+02 0.  0.
          2    1    3    3  502    0  0.16614251813E+02  0.14921287565E+03 -0.87792121499E+03  0.89066614135E+03  0.00000000000E+00 0. -1.
         -2    1    3    3    0  502  0.22663588037E-01 -0.13916500752E+02 -0.70190926457E+02  0.71557219508E+02  0.00000000000E+00 0.  1.
         13    1    5    5    0    0 -0.21641664896E+02  0.13277858742E+02 -0.16306127035E+02  0.30175370273E+02  0.00000000000E+00 0.  1.
        -13    1    5    5    0    0 -0.42143797129E+03 -0.11321846705E+03 -0.54865374662E+02  0.43981654614E+03  0.00000000000E+00 0. -1.
          4    1    6    6  503    0  0.15414679275E+03 -0.39676114740E+02 -0.17093148312E+02  0.16008623775E+03  0.00000000000E+00 0. -1.
         -4    1    6    6    0  503  0.27229592803E+03  0.43203481503E+01  0.70117322382E+02  0.28121197828E+03  0.00000000000E+00 0.  1.
<mgrwt>
<rscale>  0 0.16051154E+04</rscale>
<asrwt>0</asrwt>
<pdfrwt beam="1">  1        2 0.21844408E+00 0.16051154E+04</pdfrwt>
<pdfrwt beam="2">  1       -2 0.69788771E-01 0.16051154E+04</pdfrwt>
<totfact> 0.25283671E+01</totfact>
</mgrwt>
</event>
<event>
12    3  0.4769008E-008  0.3760178E+04  0.7818608E-02  0.8054755E-01
          1   -1    0    0  501    0  0.00000000000E+00  0.00000000000E+00  0.21144215861E+04  0.21144215861E+04  0.00000000000E+00 0. -1.
         -1   -1    0    0    0  501 -0.00000000000E+00 -0.00000000000E+00 -0.16717269455E+04  0.16717269455E+04  0.00000000000E+00 0.  1.
         23    2    1    2    0    0 -0.96252109796E+01 -0.69281862353E+03  0.18504124139E+04  0.19779869214E+04  0.91191392235E+02 0.  0.
        254    2    1    2    0    0  0.96252109796E+01  0.69281862353E+03 -0.14077177733E+04  0.18081616102E+04  0.89871507690E+03 0.  0.
         23    2    4    4    0    0  0.43010716367E+03  0.49023935043E+03 -0.84449720346E+03  0.10712192658E+04  0.94912568891E+02 0.  0.
         23    2    4    4    0    0 -0.42048195269E+03  0.20257927310E+03 -0.56322056987E+03  0.73694234444E+03  0.89572173547E+02 0.  0.
          4    1    3    3  502    0 -0.22644916422E+02 -0.21987506863E+03  0.48692564493E+03  0.53474706333E+03  0.00000000000E+00 0. -1.
         -4    1    3    3    0  502  0.13019705443E+02 -0.47294355490E+03  0.13634867690E+04  0.14432398581E+04  0.00000000000E+00 0.  1.
         13    1    5    5    0    0  0.41056632661E+03  0.47145643137E+03 -0.83365888610E+03  0.10420283171E+04  0.00000000000E+00 0.  1.
        -13    1    5    5    0    0  0.19540837057E+02  0.18782919063E+02 -0.10838317354E+02  0.29190948674E+02  0.00000000000E+00 0. -1.
          4    1    6    6  503    0 -0.11215076170E+03  0.97723263633E+02 -0.15678542642E+03  0.21612334335E+03  0.00000000000E+00 0. -1.
         -4    1    6    6    0  503 -0.30833119099E+03  0.10485600946E+03 -0.40643514346E+03  0.52081900109E+03  0.00000000000E+00 0.  1.
<mgrwt>
<rscale>  0 0.37601785E+04</rscale>
<asrwt>0</asrwt>
<pdfrwt beam="1">  1        1 0.32529563E+00 0.37601785E+04</pdfrwt>
<pdfrwt beam="2">  1       -1 0.25718876E+00 0.37601785E+04</pdfrwt>
<totfact> 0.12448778E-01</totfact>
</mgrwt>
</event>
<event>
12    3  0.4769008E-008  0.1252602E+04  0.7818608E-02  0.9068021E-01
          1   -1    0    0  501    0  0.00000000000E+00  0.00000000000E+00  0.24290022507E+03  0.24290022507E+03  0.00000000000E+00 0. -1.
         -1   -1    0    0    0  501 -0.00000000000E+00 -0.00000000000E+00 -0.16148721285E+04  0.16148721285E+04  0.00000000000E+00 0.  1.
         23    2    1    2    0    0  0.35121472772E+02  0.27742227211E+03 -0.42069300719E+03  0.51327919811E+03  0.90974139178E+02 0.  0.
        254    2    1    2    0    0 -0.35121472772E+02 -0.27742227211E+03 -0.95127889623E+03  0.13444931554E+04  0.90803836467E+03 0.  0.
         23    2    4    4    0    0  0.16432674938E+03  0.24235079713E+03 -0.61527444730E+03  0.68767853516E+03  0.92746605293E+02 0.  0.
         23    2    4    4    0    0 -0.19944822215E+03 -0.51977306923E+03 -0.33600444893E+03  0.65681462029E+03  0.92535500735E+02 0.  0.
          3    1    3    3  502    0  0.27595410382E+02  0.95615486396E+02 -0.82606730809E+02  0.12933560951E+03  0.00000000000E+00 0. -1.
         -3    1    3    3    0  502  0.75260623900E+01  0.18180678571E+03 -0.33808627638E+03  0.38394358859E+03  0.00000000000E+00 0.  1.
         13    1    5    5    0    0  0.13770379764E+03  0.20042093319E+03 -0.41185989843E+03  0.47828805366E+03  0.00000000000E+00 0. -1.
        -13    1    5    5    0    0  0.26622951740E+02  0.41929863934E+02 -0.20341454887E+03  0.20939048149E+03  0.00000000000E+00 0.  1.
          4    1    6    6  503    0 -0.14308524494E+03 -0.46200351505E+03 -0.28819760367E+03  0.56300843155E+03  0.00000000000E+00 0. -1.
         -4    1    6    6    0  503 -0.56362977207E+02 -0.57769554185E+02 -0.47806845265E+02  0.93806188732E+02  0.00000000000E+00 0.  1.
<mgrwt>
<rscale>  0 0.12526018E+04</rscale>
<asrwt>0</asrwt>
<pdfrwt beam="1">  1        1 0.37369267E-01 0.12526018E+04</pdfrwt>
<pdfrwt beam="2">  1       -1 0.24844186E+00 0.12526018E+04</pdfrwt>
<totfact> 0.81407182E+00</totfact>
</mgrwt>
</event>
<event>
12    3  0.4769008E-008  0.1845239E+04  0.7818608E-02  0.8682605E-01
          2   -1    0    0  501    0  0.00000000000E+00  0.00000000000E+00  0.56373186145E+03  0.56373186145E+03  0.00000000000E+00 0. -1.
         -2   -1    0    0    0  501 -0.00000000000E+00 -0.00000000000E+00 -0.15099856340E+04  0.15099856340E+04  0.00000000000E+00 0.  1.
         23    2    1    2    0    0 -0.31262135807E+03 -0.28855343038E+03 -0.97879180094E+03  0.10712063201E+04  0.91947784054E+02 0.  0.
        254    2    1    2    0    0  0.31262135807E+03  0.28855343038E+03  0.32538028343E+02  0.10025111754E+04  0.90717955099E+03 0.  0.
         23    2    4    4    0    0  0.11552196955E+03  0.59412444549E+03 -0.64030921859E+02  0.61531926180E+03  0.90491175327E+02 0.  0.
         23    2    4    4    0    0  0.19709938852E+03 -0.30557101511E+03  0.96568950202E+02  0.38719191356E+03  0.91488805614E+02 0.  0.
          4    1    3    3  502    0 -0.27864385830E+03 -0.23852389480E+03 -0.90006234591E+03  0.97193017994E+03  0.00000000000E+00 0.  1.
         -4    1    3    3    0  502 -0.33977499769E+02 -0.50029535584E+02 -0.78729455035E+02  0.99276140192E+02  0.00000000000E+00 0. -1.
         13    1    5    5    0    0  0.34809554494E+02  0.28230538498E+03 -0.70914806112E+02  0.29315003871E+03  0.00000000000E+00 0. -1.
        -13    1    5    5    0    0  0.80712415055E+02  0.31181906052E+03  0.68838842529E+01  0.32216922309E+03  0.00000000000E+00 0.  1.
          4    1    6    6  503    0  0.18507952263E+03 -0.29233043087E+03  0.11189826100E+03  0.36363818738E+03  0.00000000000E+00 0. -1.
         -4    1    6    6    0  503  0.12019865891E+02 -0.13240584245E+02 -0.15329310803E+02  0.23553726178E+02  0.00000000000E+00 0.  1.
<mgrwt>
<rscale>  0 0.18452393E+04</rscale>
<asrwt>0</asrwt>
<pdfrwt beam="1">  1        2 0.86727979E-01 0.18452393E+04</pdfrwt>
<pdfrwt beam="2">  1       -2 0.23230548E+00 0.18452393E+04</pdfrwt>
<totfact> 0.41570079E+00</totfact>
</mgrwt>
</event>
<event>
12    3  0.4769008E-008  0.3298232E+04  0.7818608E-02  0.8163345E-01
          1   -1    0    0  501    0  0.00000000000E+00  0.00000000000E+00  0.22236682509E+04  0.22236682509E+04  0.00000000000E+00 0. -1.
         -1   -1    0    0    0  501 -0.00000000000E+00 -0.00000000000E+00 -0.12230169218E+04  0.12230169218E+04  0.00000000000E+00 0.  1.
         23    2    1    2    0    0  0.73201808061E+03  0.10108811226E+04  0.13782189700E+04  0.18615625078E+04  0.90533567059E+02 0.  0.
        254    2    1    2    0    0 -0.73201808061E+03 -0.10108811226E+04 -0.37756764093E+03  0.15851226649E+04  0.90129097676E+03 0.  0.
         23    2    4    4    0    0 -0.33304368891E+03 -0.97679193496E+02  0.21825826913E+03  0.42022357684E+03  0.92151282827E+02 0.  0.
         23    2    4    4    0    0 -0.39897439170E+03 -0.91320192910E+03 -0.59582591007E+03  0.11648990880E+04  0.94143728360E+02 0.  0.
          2    1    3    3  502    0  0.61661168439E+03  0.85745022368E+03  0.11153235672E+04  0.15360265346E+04  0.00000000000E+00 0. -1.
         -2    1    3    3    0  502  0.11540639622E+03  0.15343089891E+03  0.26289540280E+03  0.32553597320E+03  0.00000000000E+00 0.  1.
         13    1    5    5    0    0 -0.28750339600E+03 -0.87004964285E+02  0.22168152018E+03  0.37332393831E+03  0.00000000000E+00 0. -1.
        -13    1    5    5    0    0 -0.45540292905E+02 -0.10674229211E+02 -0.34232510470E+01  0.46899638537E+02  0.00000000000E+00 0.  1.
          1    1    6    6  503    0 -0.20065873975E+03 -0.53104123059E+03 -0.38135235718E+03  0.68388474084E+03  0.00000000000E+00 0. -1.
         -1    1    6    6    0  503 -0.19831565196E+03 -0.38216069851E+03 -0.21447355289E+03  0.48101434717E+03  0.00000000000E+00 0.  1.
<mgrwt>
<rscale>  0 0.32982322E+04</rscale>
<asrwt>0</asrwt>
<pdfrwt beam="1">  1        1 0.34210281E+00 0.32982322E+04</pdfrwt>
<pdfrwt beam="2">  1       -1 0.18815645E+00 0.32982322E+04</pdfrwt>
<totfact> 0.31706322E-01</totfact>
</mgrwt>
</event>
<event>
12    3  0.4769008E-008  0.1402390E+04  0.7818608E-02  0.8952090E-01
         -3   -1    0    0    0  501 -0.00000000000E+00  0.00000000000E+00  0.86817770805E+03  0.86817770805E+03  0.00000000000E+00 0.  1.
          3   -1    0    0  501    0  0.00000000000E+00 -0.00000000000E+00 -0.56632957542E+03  0.56632957542E+03  0.00000000000E+00 0. -1.
         23    2    1    2    0    0  0.18450726601E+03 -0.27501063131E+03  0.22751938541E+03  0.41193830410E+03  0.90853272390E+02 0.  0.
        254    2    1    2    0    0 -0.18450726601E+03  0.27501063131E+03  0.74328747224E+02  0.10225689794E+04  0.96459772774E+03 0.  0.
         23    2    4    4    0    0 -0.32080380313E+03  0.57536748025E+03  0.12483285770E+03  0.67667374350E+03  0.91330692280E+02 0.  0.
         23    2    4    4    0    0  0.13629653712E+03 -0.30035684894E+03 -0.50504110479E+02  0.34589523587E+03  0.91114577776E+02 0.  0.
          1    1    3    3  502    0 -0.67122938167E+01 -0.51553745181E+01  0.19408864776E+02  0.21173965301E+02  0.00000000000E+00 0. -1.
         -1    1    3    3    0  502  0.19121955983E+03 -0.26985525679E+03  0.20811052064E+03  0.39076433880E+03  0.00000000000E+00 0.  1.
         13    1    5    5    0    0 -0.50684724965E+01  0.60693140594E+02  0.17846803026E+02  0.63465385107E+02  0.00000000000E+00 0. -1.
        -13    1    5    5    0    0 -0.31573533064E+03  0.51467433965E+03  0.10698605468E+03  0.61320835840E+03  0.00000000000E+00 0.  1.
          3    1    6    6  503    0  0.22920424233E+02 -0.15938973946E+02 -0.26957814219E+02  0.38808768145E+02  0.00000000000E+00 0. -1.
         -3    1    6    6    0  503  0.11337611289E+03 -0.28441787500E+03 -0.23546296259E+02  0.30708646772E+03  0.00000000000E+00 0.  1.
<mgrwt>
<rscale>  0 0.14023904E+04</rscale>
<asrwt>0</asrwt>
<pdfrwt beam="1">  1        3 0.87127627E-01 0.14023904E+04</pdfrwt>
<pdfrwt beam="2">  1       -3 0.13356580E+00 0.14023904E+04</pdfrwt>
<totfact> 0.13282734E+00</totfact>
</mgrwt>
</event>
<event>
12    3  0.4769008E-008  0.1592926E+04  0.7818608E-02  0.8824906E-01
         -3   -1    0    0    0  501 -0.00000000000E+00  0.00000000000E+00  0.59675133448E+03  0.59675133448E+03  0.00000000000E+00 0.  1.
          3   -1    0    0  501    0  0.00000000000E+00 -0.00000000000E+00 -0.10630106021E+04  0.10630106021E+04  0.00000000000E+00 0. -1.
         23    2    1    2    0    0  0.81592975834E+02  0.33705082711E+03  0.26599378878E+03  0.44730614163E+03  0.95233475786E+02 0.  0.
        254    2    1    2    0    0 -0.81592975834E+02 -0.33705082711E+03 -0.73225305644E+03  0.12124557950E+04  0.90199436938E+03 0.  0.
         23    2    4    4    0    0  0.32910119876E+03 -0.36695293279E+02 -0.57846811214E+03  0.67233626167E+03  0.88071268979E+02 0.  0.
         23    2    4    4    0    0 -0.41069417459E+03 -0.30035553383E+03 -0.15378494430E+03  0.54011953333E+03  0.95896555934E+02 0.  0.
          4    1    3    3  502    0 -0.19320151366E+02  0.43122446935E+02  0.21622161977E+02  0.51964714635E+02  0.00000000000E+00 0. -1.
         -4    1    3    3    0  502  0.10091312720E+03  0.29392838017E+03  0.24437162680E+03  0.39534142699E+03  0.00000000000E+00 0.  1.
         13    1    5    5    0    0  0.23741723707E+03  0.58737180244E+01 -0.35556768837E+03  0.42758604518E+03  0.00000000000E+00 0. -1.
        -13    1    5    5    0    0  0.91683961693E+02 -0.42569011304E+02 -0.22290042377E+03  0.24475021649E+03  0.00000000000E+00 0.  1.
          2    1    6    6  503    0 -0.30527677147E+03 -0.27128386238E+03 -0.12287971226E+03  0.42648360446E+03  0.00000000000E+00 0. -1.
         -2    1    6    6    0  503 -0.10541740312E+03 -0.29071671450E+02 -0.30905232035E+02  0.11363592886E+03  0.00000000000E+00 0.  1.
<mgrwt>
<rscale>  0 0.15929256E+04</rscale>
<asrwt>0</asrwt>
<pdfrwt beam="1">  1        3 0.16354009E+00 0.15929256E+04</pdfrwt>
<pdfrwt beam="2">  1       -3 0.91807899E-01 0.15929256E+04</pdfrwt>
<totfact> 0.68967065E-01</totfact>
</mgrwt>
</event>
<event>
12    3  0.4769008E-008  0.1449304E+04  0.7818608E-02  0.8918883E-01
         -1   -1    0    0    0  501 -0.00000000000E+00  0.00000000000E+00  0.20308340482E+03  0.20308340482E+03  0.00000000000E+00 0.  1.
          1   -1    0    0  501    0  0.00000000000E+00 -0.00000000000E+00 -0.25857394216E+04  0.25857394216E+04  0.00000000000E+00 0. -1.
         23    2    1    2    0    0  0.41286544697E+03  0.13820326970E+03 -0.87294991963E+03  0.98053223434E+03  0.99216325927E+02 0.  0.
        254    2    1    2    0    0 -0.41286544697E+03 -0.13820326970E+03 -0.15097060972E+04  0.18082905921E+04  0.89506667046E+03 0.  0.
         23    2    4    4    0    0 -0.39237779350E+03 -0.10716776935E+03 -0.14784855791E+03  0.44276774628E+03  0.93481642330E+02 0.  0.
         23    2    4    4    0    0 -0.20487653470E+02 -0.31035500347E+02 -0.13618575392E+04  0.13655228458E+04  0.92810230966E+02 0.  0.
          3    1    3    3  502    0  0.12959558178E+03  0.47278539859E+02 -0.18297818327E+03  0.22915342175E+03  0.00000000000E+00 0. -1.
         -3    1    3    3    0  502  0.28326986519E+03  0.90924729839E+02 -0.68997173636E+03  0.75137881258E+03  0.00000000000E+00 0.  1.
         13    1    5    5    0    0 -0.33006435491E+03 -0.88903870742E+02 -0.15880397665E+03  0.37691521542E+03  0.00000000000E+00 0. -1.
        -13    1    5    5    0    0 -0.62313438588E+02 -0.18263898609E+02  0.10955418741E+02  0.65852530862E+02  0.00000000000E+00 0.  1.
          3    1    6    6  503    0  0.36988183335E+02 -0.14596968843E+02 -0.48260966197E+03  0.48424506506E+03  0.00000000000E+00 0. -1.
         -3    1    6    6    0  503 -0.57475836806E+02 -0.16438531505E+02 -0.87924787728E+03  0.88127778074E+03  0.00000000000E+00 0.  1.
<mgrwt>
<rscale>  0 0.14493043E+04</rscale>
<asrwt>0</asrwt>
<pdfrwt beam="1">  1        1 0.39780605E+00 0.14493043E+04</pdfrwt>
<pdfrwt beam="2">  1       -1 0.31243602E-01 0.14493043E+04</pdfrwt>
<totfact> 0.10932368E+01</totfact>
</mgrwt>
</event>
<event>
12    3  0.4769008E-008  0.1785074E+04  0.7818608E-02  0.8714278E-01
          1   -1    0    0  501    0  0.00000000000E+00  0.00000000000E+00  0.21982798432E+04  0.21982798432E+04  0.00000000000E+00 0. -1.
         -1   -1    0    0    0  501 -0.00000000000E+00 -0.00000000000E+00 -0.36238419874E+03  0.36238419874E+03  0.00000000000E+00 0.  1.
         23    2    1    2    0    0  0.17254308577E+03 -0.62458415524E+03  0.49981734740E+03  0.82295357047E+03  0.86940870475E+02 0.  0.
        254    2    1    2    0    0 -0.17254308577E+03  0.62458415524E+03  0.13360782970E+04  0.17377104715E+04  0.90258295097E+03 0.  0.
         23    2    4    4    0    0  0.14904590028E+03  0.42251239589E+03  0.13544244918E+03  0.47534419166E+03  0.82921881533E+02 0.  0.
         23    2    4    4    0    0 -0.32158898606E+03  0.20207175934E+03  0.12006358479E+04  0.12623662798E+04  0.88259352509E+02 0.  0.
          3    1    3    3  502    0  0.57299365090E+02 -0.24537565341E+03  0.24701841786E+03  0.35286049267E+03  0.00000000000E+00 0. -1.
         -3    1    3    3    0  502  0.11524372068E+03 -0.37920850182E+03  0.25279892955E+03  0.47009307780E+03  0.00000000000E+00 0.  1.
         13    1    5    5    0    0  0.11385963197E+03  0.24029878577E+03  0.48044733024E+02  0.27021439378E+03  0.00000000000E+00 0. -1.
        -13    1    5    5    0    0  0.35186268315E+02  0.18221361012E+03  0.87397716154E+02  0.20512979788E+03  0.00000000000E+00 0.  1.
          2    1    6    6  503    0 -0.22657804772E+03  0.14399564182E+03  0.70524540725E+03  0.75461476332E+03  0.00000000000E+00 0. -1.
         -2    1    6    6    0  503 -0.95010938340E+02  0.58076117524E+02  0.49539044062E+03  0.50775151648E+03  0.00000000000E+00 0.  1.
<mgrwt>
<rscale>  0 0.17850735E+04</rscale>
<asrwt>0</asrwt>
<pdfrwt beam="1">  1        1 0.33819689E+00 0.17850735E+04</pdfrwt>
<pdfrwt beam="2">  1       -1 0.55751416E-01 0.17850735E+04</pdfrwt>
<totfact> 0.67187028E+00</totfact>
</mgrwt>
</event>
<event>
12    3  0.4769008E-008  0.2366892E+04  0.7818608E-02  0.8452004E-01
         -2   -1    0    0    0  501 -0.00000000000E+00  0.00000000000E+00  0.66602034837E+03  0.66602034837E+03  0.00000000000E+00 0. -1.
          2   -1    0    0  501    0  0.00000000000E+00 -0.00000000000E+00 -0.21028554332E+04  0.21028554332E+04  0.00000000000E+00 0.  1.
         23    2    1    2    0    0 -0.17557810127E+03  0.87668049776E+03 -0.11442745211E+04  0.14549271802E+04  0.89736031450E+02 0.  0.
        254    2    1    2    0    0  0.17557810127E+03 -0.87668049776E+03 -0.29256056376E+03  0.13139486014E+04  0.91731830832E+03 0.  0.
         23    2    4    4    0    0  0.15799666891E+03 -0.10564522962E+02 -0.39680106633E+03  0.43657020340E+03  0.89821488086E+02 0.  0.
         23    2    4    4    0    0  0.17581432360E+02 -0.86611597480E+03  0.10424050257E+03  0.87737839797E+03  0.91982510771E+02 0.  0.
          3    1    3    3  502    0  0.75740103578E+01  0.39847623049E+02 -0.70192952401E+02  0.81069410151E+02  0.00000000000E+00 0. -1.
         -3    1    3    3    0  502 -0.18315211163E+03  0.83683287471E+03 -0.10740815687E+04  0.13738577701E+04  0.00000000000E+00 0.  1.
         13    1    5    5    0    0  0.76927269950E+02  0.19030984098E+02 -0.10066529639E+03  0.12811512446E+03  0.00000000000E+00 0. -1.
        -13    1    5    5    0    0  0.81069398962E+02 -0.29595507059E+02 -0.29613576994E+03  0.30845507894E+03  0.00000000000E+00 0.  1.
          2    1    6    6  503    0 -0.47646708047E+01 -0.96964363729E+02 -0.16541651589E+02  0.98480536953E+02  0.00000000000E+00 0. -1.
         -2    1    6    6    0  503  0.22346103165E+02 -0.76915161107E+03  0.12078215416E+03  0.77889786102E+03  0.00000000000E+00 0.  1.
<mgrwt>
<rscale>  0 0.23668921E+04</rscale>
<asrwt>0</asrwt>
<pdfrwt beam="1">  1        2 0.32351621E+00 0.23668921E+04</pdfrwt>
<pdfrwt beam="2">  1       -2 0.10246467E+00 0.23668921E+04</pdfrwt>
<totfact> 0.41139682E+00</totfact>
</mgrwt>
</event>
<event>
12    3  0.4769008E-008  0.2041968E+04  0.7818608E-02  0.8587247E-01
         -2   -1    0    0    0  501 -0.00000000000E+00  0.00000000000E+00  0.75580034571E+03  0.75580034571E+03  0.00000000000E+00 0. -1.
          2   -1    0    0  501    0  0.00000000000E+00 -0.00000000000E+00 -0.13792114176E+04  0.13792114176E+04  0.00000000000E+00 0.  1.
         23    2    1    2    0    0 -0.88546992030E+02  0.81842315170E+03 -0.32843493970E+03  0.89093413743E+03  0.90758484907E+02 0.  0.
        254    2    1    2    0    0  0.88546992030E+02 -0.81842315170E+03 -0.29497613224E+03  0.12440776259E+04  0.88490745036E+03 0.  0.
         23    2    4    4    0    0  0.74319071366E+02 -0.88584676626E+03  0.35360631705E+02  0.89442812563E+03  0.92214315516E+02 0.  0.
         23    2    4    4    0    0  0.14227920664E+02  0.67423614557E+02 -0.33033676394E+03  0.34964950030E+03  0.91564282982E+02 0.  0.
          1    1    3    3  502    0 -0.46234485673E+02  0.37424600784E+03 -0.10234010242E+03  0.39073161968E+03  0.00000000000E+00 0. -1.
         -1    1    3    3    0  502 -0.42312506358E+02  0.44417714385E+03 -0.22609483728E+03  0.50020251775E+03  0.00000000000E+00 0.  1.
         13    1    5    5    0    0  0.66109460341E+02 -0.66008225582E+03 -0.12491259449E+02  0.66350213018E+03  0.00000000000E+00 0. -1.
        -13    1    5    5    0    0  0.82096110249E+01 -0.22576451044E+03  0.47851891153E+02  0.23092599545E+03  0.00000000000E+00 0.  1.
          4    1    6    6  503    0 -0.31927275037E+02  0.18741591248E+02 -0.19632239504E+03  0.19978258414E+03  0.00000000000E+00 0. -1.
         -4    1    6    6    0  503  0.46155195701E+02  0.48682023310E+02 -0.13401436890E+03  0.14986691615E+03  0.00000000000E+00 0.  1.
<mgrwt>
<rscale>  0 0.20419681E+04</rscale>
<asrwt>0</asrwt>
<pdfrwt beam="1">  1        2 0.21218637E+00 0.20419681E+04</pdfrwt>
<pdfrwt beam="2">  1       -2 0.11627698E+00 0.20419681E+04</pdfrwt>
<totfact> 0.79054430E+00</totfact>
</mgrwt>
</event>
<event>
12    3  0.4769008E-008  0.1590347E+04  0.7818608E-02  0.8826500E-01
          2   -1    0    0  501    0  0.00000000000E+00  0.00000000000E+00  0.67565111333E+03  0.67565111333E+03  0.00000000000E+00 0. -1.
         -2   -1    0    0    0  501 -0.00000000000E+00 -0.00000000000E+00 -0.93583975655E+03  0.93583975655E+03  0.00000000000E+00 0.  1.
         23    2    1    2    0    0 -0.32036049523E+03 -0.31149815513E+03  0.20052237089E+03  0.49873916908E+03  0.94178500678E+02 0.  0.
        254    2    1    2    0    0  0.32036049523E+03  0.31149815513E+03 -0.46071101411E+03  0.11127517008E+04  0.90901031983E+03 0.  0.
         23    2    4    4    0    0 -0.67519502483E+02  0.28835371762E+03  0.18028012475E+03  0.35795231554E+03  0.89006669104E+02 0.  0.
         23    2    4    4    0    0  0.38787999772E+03  0.23144437516E+02 -0.64099113886E+03  0.75479938526E+03  0.88689989699E+02 0.  0.
          1    1    3    3  502    0 -0.18927963870E+03 -0.23119143606E+03  0.16357590455E+03  0.34063666609E+03  0.00000000000E+00 0. -1.
         -1    1    3    3    0  502 -0.13108085653E+03 -0.80306719079E+02  0.36946466337E+02  0.15810250299E+03  0.00000000000E+00 0.  1.
         13    1    5    5    0    0 -0.63210192150E-01  0.14631098871E+02 -0.10098770496E+02  0.17778026191E+02  0.00000000000E+00 0.  1.
        -13    1    5    5    0    0 -0.67456292291E+02  0.27372261875E+03  0.19037889524E+03  0.34017428935E+03  0.00000000000E+00 0. -1.
          2    1    6    6  503    0  0.20772405258E+03  0.48761895316E+02 -0.29778441038E+03  0.36633667510E+03  0.00000000000E+00 0. -1.
         -2    1    6    6    0  503  0.18015594513E+03 -0.25617457800E+02 -0.34320672848E+03  0.38846271016E+03  0.00000000000E+00 0.  1.
<mgrwt>
<rscale>  0 0.15903474E+04</rscale>
<asrwt>0</asrwt>
<pdfrwt beam="1">  1        2 0.10394633E+00 0.15903474E+04</pdfrwt>
<pdfrwt beam="2">  1       -2 0.14397535E+00 0.15903474E+04</pdfrwt>
<totfact> 0.13718307E+01</totfact>
</mgrwt>
</event>
<event>
12    3  0.4769008E-008  0.1885072E+04  0.7818608E-02  0.8662323E-01
          1   -1    0    0  501    0  0.00000000000E+00  0.00000000000E+00  0.21480905175E+04  0.21480905175E+04  0.00000000000E+00 0. -1.
         -1   -1    0    0    0  501 -0.00000000000E+00 -0.00000000000E+00 -0.41356457448E+03  0.41356457448E+03  0.00000000000E+00 0.  1.
         23    2    1    2    0    0 -0.13111536603E+03 -0.47612585766E+03  0.13831769889E+04  0.14715208048E+04  0.91147271134E+02 0.  0.
        254    2    1    2    0    0  0.13111536603E+03  0.47612585766E+03  0.35134895417E+03  0.10901342872E+04  0.90612339385E+03 0.  0.
         23    2    4    4    0    0  0.24768702451E+03  0.60354995117E+03 -0.30707294783E+02  0.66125930679E+03  0.10343851892E+03 0.  0.
         23    2    4    4    0    0 -0.11657165848E+03 -0.12742409351E+03  0.38205624895E+03  0.42887498036E+03  0.90227048330E+02 0.  0.
          3    1    3    3  502    0 -0.90733966809E+02 -0.43402756952E+03  0.12413084135E+04  0.13181271415E+04  0.00000000000E+00 0. -1.
         -3    1    3    3    0  502 -0.40381399225E+02 -0.42098288138E+02  0.14186857539E+03  0.15339366334E+03  0.00000000000E+00 0.  1.
         13    1    5    5    0    0  0.14074370196E+03  0.35599176936E+03  0.32817530359E+02  0.38420817247E+03  0.00000000000E+00 0.  1.
        -13    1    5    5    0    0  0.10694332255E+03  0.24755818181E+03 -0.63524825142E+02  0.27705113432E+03  0.00000000000E+00 0. -1.
          2    1    6    6  503    0 -0.31097873542E+02 -0.40960563392E+02  0.22199531939E+03  0.22787445517E+03  0.00000000000E+00 0. -1.
         -2    1    6    6    0  503 -0.85473784934E+02 -0.86463530121E+02  0.16006092957E+03  0.20100052519E+03  0.00000000000E+00 0.  1.
<mgrwt>
<rscale>  0 0.18850720E+04</rscale>
<asrwt>0</asrwt>
<pdfrwt beam="1">  1        1 0.33047546E+00 0.18850720E+04</pdfrwt>
<pdfrwt beam="2">  1       -1 0.63625320E-01 0.18850720E+04</pdfrwt>
<totfact> 0.55478894E+00</totfact>
</mgrwt>
</event>
<event>
12    3  0.4769008E-008  0.2292029E+04  0.7818608E-02  0.8481070E-01
         -2   -1    0    0    0  501 -0.00000000000E+00  0.00000000000E+00  0.83964008038E+03  0.83964008038E+03  0.00000000000E+00 0.  1.
          2   -1    0    0  501    0  0.00000000000E+00 -0.00000000000E+00 -0.15641815758E+04  0.15641815758E+04  0.00000000000E+00 0. -1.
         23    2    1    2    0    0  0.54802774436E+02 -0.32520238741E+03  0.64720402426E+03  0.73219522617E+03  0.92069882928E+02 0.  0.
        254    2    1    2    0    0 -0.54802774436E+02  0.32520238741E+03 -0.13717455197E+04  0.16716264301E+04  0.89659869168E+03 0.  0.
         23    2    4    4    0    0 -0.42805764816E+03  0.11894060960E+03 -0.39201521191E+03  0.59929504672E+03  0.89991154562E+02 0.  0.
         23    2    4    4    0    0  0.37325487373E+03  0.20626177781E+03 -0.97973030781E+03  0.10723313833E+04  0.90332706584E+02 0.  0.
          2    1    3    3  502    0  0.23689823532E+02 -0.62040246412E+02  0.66976804034E+02  0.94319097708E+02  0.00000000000E+00 0. -1.
         -2    1    3    3    0  502  0.31112950905E+02 -0.26316214100E+03  0.58022722023E+03  0.63787612846E+03  0.00000000000E+00 0.  1.
         13    1    5    5    0    0 -0.37157425258E+03  0.12455391021E+03 -0.36823667754E+03  0.53775398875E+03  0.00000000000E+00 0. -1.
        -13    1    5    5    0    0 -0.56483395583E+02 -0.56133006079E+01 -0.23778534367E+02  0.61541057977E+02  0.00000000000E+00 0.  1.
          2    1    6    6  503    0 -0.49312442984E+01  0.59984508867E+01 -0.22400212929E+02  0.23707975929E+02  0.00000000000E+00 0.  1.
         -2    1    6    6    0  503  0.37818611803E+03  0.20026332692E+03 -0.95733009488E+03  0.10486234074E+04  0.00000000000E+00 0. -1.
<mgrwt>
<rscale>  0 0.22920293E+04</rscale>
<asrwt>0</asrwt>
<pdfrwt beam="1">  1        2 0.24064332E+00 0.22920293E+04</pdfrwt>
<pdfrwt beam="2">  1       -2 0.12917540E+00 0.22920293E+04</pdfrwt>
<totfact> 0.46773752E+00</totfact>
</mgrwt>
</event>
<event>
12    3  0.4769008E-008  0.1435877E+04  0.7818608E-02  0.8928251E-01
          2   -1    0    0  501    0  0.00000000000E+00  0.00000000000E+00  0.19516808865E+03  0.19516808865E+03  0.00000000000E+00 0. -1.
         -2   -1    0    0    0  501 -0.00000000000E+00 -0.00000000000E+00 -0.26409822322E+04  0.26409822322E+04  0.00000000000E+00 0.  1.
         23    2    1    2    0    0 -0.21604313829E+02  0.57504876586E+01  0.98277308173E+02  0.13846172393E+03  0.94938955169E+02 0.  0.
        254    2    1    2    0    0  0.21604313829E+02 -0.57504876586E+01 -0.25440914518E+04  0.26976885970E+04  0.89700760129E+03 0.  0.
         23    2    4    4    0    0 -0.19238191109E+03 -0.58641563537E+02 -0.24151762759E+04  0.24252502081E+04  0.91172886357E+02 0.  0.
         23    2    4    4    0    0  0.21398622491E+03  0.52891075879E+02 -0.12891517584E+03  0.27243838890E+03  0.94952529336E+02 0.  0.
          1    1    3    3  502    0 -0.40738960600E+02 -0.23376374773E+02  0.91653848182E+02  0.10298808521E+03  0.00000000000E+00 0. -1.
         -1    1    3    3    0  502  0.19134646771E+02  0.29126862432E+02  0.66234599908E+01  0.35473638725E+02  0.00000000000E+00 0.  1.
         13    1    5    5    0    0 -0.18305706066E+03 -0.60752849486E+02 -0.23966857727E+04  0.24044341308E+04  0.00000000000E+00 0. -1.
        -13    1    5    5    0    0 -0.93248504296E+01  0.21112859489E+01 -0.18490503223E+02  0.20816077281E+02  0.00000000000E+00 0.  1.
          3    1    6    6  503    0  0.12523537071E+03  0.78116156634E+02 -0.74775804941E+02  0.16546133387E+03  0.00000000000E+00 0. -1.
         -3    1    6    6    0  503  0.88750854208E+02 -0.25225080755E+02 -0.54139370895E+02  0.10697705503E+03  0.00000000000E+00 0.  1.
<mgrwt>
<rscale>  0 0.14358767E+04</rscale>
<asrwt>0</asrwt>
<pdfrwt beam="1">  1        2 0.30025863E-01 0.14358767E+04</pdfrwt>
<pdfrwt beam="2">  1       -2 0.40630491E+00 0.14358767E+04</pdfrwt>
<totfact> 0.11786950E+00</totfact>
</mgrwt>
</event>
<event>
12    3  0.4769008E-008  0.1251844E+04  0.7818608E-02  0.9068650E-01
          2   -1    0    0  501    0  0.00000000000E+00  0.00000000000E+00  0.24204142015E+04  0.24204142015E+04  0.00000000000E+00 0. -1.
         -2   -1    0    0    0  501 -0.00000000000E+00 -0.00000000000E+00 -0.16186427039E+03  0.16186427039E+03  0.00000000000E+00 0.  1.
         23    2    1    2    0    0 -0.14282210911E+03 -0.22944768927E+03  0.60096128894E+03  0.66505842786E+03  0.90021356882E+02 0.  0.
        254    2    1    2    0    0  0.14282210911E+03  0.22944768927E+03  0.16575886422E+04  0.19172200440E+04  0.92470978889E+03 0.  0.
         23    2    4    4    0    0  0.23301557185E+03 -0.27894864617E+03  0.37129906491E+03  0.52813184786E+03  0.94613155504E+02 0.  0.
         23    2    4    4    0    0 -0.90193462739E+02  0.50839633545E+03  0.12862895772E+04  0.13890881962E+04  0.91779330967E+02 0.  0.
          2    1    3    3  502    0 -0.51349779843E+02 -0.96856445277E+02  0.35072043750E+03  0.36745448175E+03  0.00000000000E+00 0. -1.
         -2    1    3    3    0  502 -0.91472329265E+02 -0.13259124400E+03  0.25024085145E+03  0.29760394611E+03  0.00000000000E+00 0.  1.
         13    1    5    5    0    0  0.11232580074E+02  0.71989036821E+01  0.16627050819E+02  0.21317924108E+02  0.00000000000E+00 0. -1.
        -13    1    5    5    0    0  0.22178299177E+03 -0.28614754986E+03  0.35467201410E+03  0.50681392375E+03  0.00000000000E+00 0.  1.
          2    1    6    6  503    0 -0.41958057598E+02  0.95164529071E+02  0.33573157465E+03  0.35147184298E+03  0.00000000000E+00 0. -1.
         -2    1    6    6    0  503 -0.48235405141E+02  0.41323180638E+03  0.95055800259E+03  0.10376163532E+04  0.00000000000E+00 0.  1.
<mgrwt>
<rscale>  0 0.12518444E+04</rscale>
<asrwt>0</asrwt>
<pdfrwt beam="1">  1        2 0.37237139E+00 0.12518444E+04</pdfrwt>
<pdfrwt beam="2">  1       -2 0.24902197E-01 0.12518444E+04</pdfrwt>
<totfact> 0.55233214E+01</totfact>
</mgrwt>
</event>
<event>
12    3  0.4769008E-008  0.1618253E+04  0.7818608E-02  0.8809413E-01
         -1   -1    0    0    0  501 -0.00000000000E+00  0.00000000000E+00  0.67383403637E+03  0.67383403637E+03  0.00000000000E+00 0.  1.
          1   -1    0    0  501    0  0.00000000000E+00 -0.00000000000E+00 -0.97158259172E+03  0.97158259172E+03  0.00000000000E+00 0. -1.
         23    2    1    2    0    0  0.44562611075E+03 -0.13363138004E+03 -0.39806390118E+03  0.61950431855E+03  0.94290800055E+02 0.  0.
        254    2    1    2    0    0 -0.44562611075E+03  0.13363138004E+03  0.10031534583E+03  0.10259123095E+04  0.90884152740E+03 0.  0.
         23    2    4    4    0    0 -0.32715467039E+03  0.30887528678E+03  0.42625903288E+03  0.62711373475E+03  0.95607280363E+02 0.  0.
         23    2    4    4    0    0 -0.11847144035E+03 -0.17524390673E+03 -0.32594368706E+03  0.39879857478E+03  0.89750248388E+02 0.  0.
          2    1    3    3  502    0  0.29648741121E+03 -0.96971853545E+02 -0.20703380105E+03  0.37439460488E+03  0.00000000000E+00 0. -1.
         -2    1    3    3    0  502  0.14913869954E+03 -0.36659526500E+02 -0.19103010013E+03  0.24510971368E+03  0.00000000000E+00 0.  1.
         13    1    5    5    0    0 -0.19464102455E+03  0.20694473075E+03  0.32496073646E+03  0.43163726700E+03  0.00000000000E+00 0.  1.
        -13    1    5    5    0    0 -0.13251364584E+03  0.10193055602E+03  0.10129829642E+03  0.19547646775E+03  0.00000000000E+00 0. -1.
          2    1    6    6  503    0  0.75033655586E+01 -0.51756234908E+02 -0.91630656737E+02  0.10550443403E+03  0.00000000000E+00 0. -1.
         -2    1    6    6    0  503 -0.12597480591E+03 -0.12348767182E+03 -0.23431303032E+03  0.29329414074E+03  0.00000000000E+00 0.  1.
<mgrwt>
<rscale>  0 0.16182527E+04</rscale>
<asrwt>0</asrwt>
<pdfrwt beam="1">  1        1 0.14947424E+00 0.16182527E+04</pdfrwt>
<pdfrwt beam="2">  1       -1 0.10366677E+00 0.16182527E+04</pdfrwt>
<totfact> 0.13390620E+01</totfact>
</mgrwt>
</event>
<event>
12    3  0.4769008E-008  0.1773573E+04  0.7818608E-02  0.8720480E-01
          2   -1    0    0  501    0  0.00000000000E+00  0.00000000000E+00  0.20398870198E+04  0.20398870198E+04  0.00000000000E+00 0. -1.
         -2   -1    0    0    0  501 -0.00000000000E+00 -0.00000000000E+00 -0.38550698670E+03  0.38550698670E+03  0.00000000000E+00 0.  1.
         23    2    1    2    0    0  0.47926140100E+03  0.38626723269E+03  0.11550904661E+04  0.13117144500E+04  0.86411503883E+02 0.  0.
        254    2    1    2    0    0 -0.47926140100E+03 -0.38626723269E+03  0.49928956700E+03  0.11136795565E+04  0.78236706045E+03 0.  0.
         23    2    4    4    0    0 -0.46485693390E+03 -0.58748880225E+03  0.47344363451E+03  0.89081890828E+03  0.90412336131E+02 0.  0.
         23    2    4    4    0    0 -0.14404467100E+02  0.20122156956E+03  0.25845932489E+02  0.22286064820E+03  0.91111182425E+02 0.  0.
          1    1    3    3  502    0  0.33355893432E+03  0.24938982954E+03  0.69784557016E+03  0.81267785102E+03  0.00000000000E+00 0. -1.
         -1    1    3    3    0  502  0.14570246667E+03  0.13687740315E+03  0.45724489595E+03  0.49903659901E+03  0.00000000000E+00 0.  1.
         13    1    5    5    0    0 -0.38900316501E+03 -0.53242763440E+03  0.39546734466E+03  0.76889340546E+03  0.00000000000E+00 0. -1.
        -13    1    5    5    0    0 -0.75853768885E+02 -0.55061167846E+02  0.77976289850E+02  0.12192550282E+03  0.00000000000E+00 0.  1.
          1    1    6    6  503    0 -0.19585133837E+02  0.15897677501E+03  0.57105098409E+02  0.17005347607E+03  0.00000000000E+00 0. -1.
         -1    1    6    6    0  503  0.51806667370E+01  0.42244794548E+02 -0.31259165921E+02  0.52807172129E+02  0.00000000000E+00 0.  1.
<mgrwt>
<rscale>  0 0.17735735E+04</rscale>
<asrwt>0</asrwt>
<pdfrwt beam="1">  1        2 0.31382877E+00 0.17735735E+04</pdfrwt>
<pdfrwt beam="2">  1       -2 0.59308768E-01 0.17735735E+04</pdfrwt>
<totfact> 0.15940969E+01</totfact>
</mgrwt>
</event>
<event>
12    3  0.4769008E-008  0.9693679E+03  0.7818608E-02  0.9342795E-01
         -3   -1    0    0    0  501 -0.00000000000E+00  0.00000000000E+00  0.42119574913E+03  0.42119574913E+03  0.00000000000E+00 0.  1.
          3   -1    0    0  501    0  0.00000000000E+00 -0.00000000000E+00 -0.55774197748E+03  0.55774197748E+03  0.00000000000E+00 0. -1.
         23    2    1    2    0    0  0.14727041966E+02 -0.39065217994E+02 -0.14862637037E+03  0.17910268792E+03  0.90801970404E+02 0.  0.
        254    2    1    2    0    0 -0.14727041966E+02  0.39065217994E+02  0.12080142015E+02  0.79983503870E+03  0.79865335551E+03 0.  0.
         23    2    4    4    0    0 -0.21623656087E+03 -0.98387816164E+02  0.31213066531E+03  0.40272743497E+03  0.91243750601E+02 0.  0.
         23    2    4    4    0    0  0.20150951891E+03  0.13745303416E+03 -0.30005052330E+03  0.39710760373E+03  0.90358782627E+02 0.  0.
          1    1    3    3  502    0  0.39903062345E+02 -0.97696384441E+01 -0.12977242324E+03  0.13611973426E+03  0.00000000000E+00 0. -1.
         -1    1    3    3    0  502 -0.25176020379E+02 -0.29295579550E+02 -0.18853947123E+02  0.42982953661E+02  0.00000000000E+00 0.  1.
         13    1    5    5    0    0 -0.11561375226E+03 -0.99418728660E+02  0.16720670578E+03  0.22629340640E+03  0.00000000000E+00 0.  1.
        -13    1    5    5    0    0 -0.10062280861E+03  0.10309124962E+01  0.14492395953E+03  0.17643402857E+03  0.00000000000E+00 0. -1.
          1    1    6    6  503    0  0.99227808837E+02  0.11070710475E+03 -0.21514076286E+03  0.26151055224E+03  0.00000000000E+00 0.  1.
         -1    1    6    6    0  503  0.10228171007E+03  0.26745929412E+02 -0.84909760433E+02  0.13559705149E+03  0.00000000000E+00 0. -1.
<mgrwt>
<rscale>  0 0.96936794E+03</rscale>
<asrwt>0</asrwt>
<pdfrwt beam="1">  1        3 0.85806458E-01 0.96936794E+03</pdfrwt>
<pdfrwt beam="2">  1       -3 0.64799346E-01 0.96936794E+03</pdfrwt>
<totfact> 0.75105074E+00</totfact>
</mgrwt>
</event>
<event>
12    3  0.4769008E-008  0.1617865E+04  0.7818608E-02  0.8809647E-01
          2   -1    0    0  501    0  0.00000000000E+00  0.00000000000E+00  0.87633167469E+03  0.87633167469E+03  0.00000000000E+00 0.  1.
         -2   -1    0    0    0  501 -0.00000000000E+00 -0.00000000000E+00 -0.74671742149E+03  0.74671742149E+03  0.00000000000E+00 0. -1.
         23    2    1    2    0    0  0.27494884898E+03 -0.11129610640E+02  0.51862632796E+03  0.59428433224E+03  0.92086164570E+02 0.  0.
        254    2    1    2    0    0 -0.27494884898E+03  0.11129610640E+02 -0.38901207476E+03  0.10287647639E+04  0.91175973120E+03 0.  0.
         23    2    4    4    0    0 -0.39847995759E+03  0.37494789876E+03 -0.19033491216E+03  0.58680080275E+03  0.93464431389E+02 0.  0.
         23    2    4    4    0    0  0.12353110861E+03 -0.36381828812E+03 -0.19867716259E+03  0.44196396119E+03  0.90751564635E+02 0.  0.
          1    1    3    3  502    0  0.60325290467E+02  0.23213218930E+02  0.67110134691E+02  0.93175986076E+02  0.00000000000E+00 0. -1.
         -1    1    3    3    0  502  0.21462355851E+03 -0.34342829570E+02  0.45151619326E+03  0.50110834616E+03  0.00000000000E+00 0.  1.
         13    1    5    5    0    0 -0.20251525465E+03  0.14365078612E+03 -0.11917493698E+03  0.27540995320E+03  0.00000000000E+00 0.  1.
        -13    1    5    5    0    0 -0.19596470294E+03  0.23129711264E+03 -0.71159975180E+02  0.31139084955E+03  0.00000000000E+00 0. -1.
          1    1    6    6  503    0  0.13228876797E+03 -0.34515812550E+03 -0.17054253613E+03  0.40708623946E+03  0.00000000000E+00 0. -1.
         -1    1    6    6    0  503 -0.87576593576E+01 -0.18660162625E+02 -0.28134626462E+02  0.34877721725E+02  0.00000000000E+00 0.  1.
<mgrwt>
<rscale>  0 0.16178654E+04</rscale>
<asrwt>0</asrwt>
<pdfrwt beam="1">  1        2 0.13482026E+00 0.16178654E+04</pdfrwt>
<pdfrwt beam="2">  1       -2 0.11487960E+00 0.16178654E+04</pdfrwt>
<totfact> 0.17229018E+01</totfact>
</mgrwt>
</event>
<event>
12    3  0.4769008E-008  0.1165932E+04  0.7818608E-02  0.9143210E-01
          2   -1    0    0  501    0  0.00000000000E+00  0.00000000000E+00  0.45081685516E+03  0.45081685516E+03  0.00000000000E+00 0. -1.
         -2   -1    0    0    0  501 -0.00000000000E+00 -0.00000000000E+00 -0.75385266951E+03  0.75385266951E+03  0.00000000000E+00 0.  1.
         23    2    1    2    0    0  0.94042365466E+01  0.11133253842E+03 -0.25637506979E+03  0.29445459364E+03  0.92151817806E+02 0.  0.
        254    2    1    2    0    0 -0.94042365466E+01 -0.11133253842E+03 -0.46660744551E+02  0.91021493103E+03  0.90212561310E+03 0.  0.
         23    2    4    4    0    0  0.25271718141E+03  0.50315267064E+02 -0.36717678540E+03  0.45651861991E+03  0.84810722812E+02 0.  0.
         23    2    4    4    0    0 -0.26212141796E+03 -0.16164780549E+03  0.32051604085E+03  0.45369631113E+03  0.90951412948E+02 0.  0.
          2    1    3    3  502    0  0.30629467735E+02  0.35554174643E+02 -0.32319362725E+02  0.56980740915E+02  0.00000000000E+00 0. -1.
         -2    1    3    3    0  502 -0.21225231188E+02  0.75778363780E+02 -0.22405570707E+03  0.23747385272E+03  0.00000000000E+00 0.  1.
         13    1    5    5    0    0  0.15029234661E+03  0.56842089139E+02 -0.16810139344E+03  0.23254438506E+03  0.00000000000E+00 0.  1.
        -13    1    5    5    0    0  0.10242483481E+03 -0.65268220751E+01 -0.19907539196E+03  0.22397423485E+03  0.00000000000E+00 0. -1.
          2    1    6    6  503    0 -0.18462644094E+03 -0.61913551309E+02  0.18966736802E+03  0.27183436321E+03  0.00000000000E+00 0. -1.
         -2    1    6    6    0  503 -0.77494977022E+02 -0.99734254177E+02  0.13084867283E+03  0.18186194792E+03  0.00000000000E+00 0.  1.
<mgrwt>
<rscale>  0 0.11659322E+04</rscale>
<asrwt>0</asrwt>
<pdfrwt beam="1">  1        2 0.69356440E-01 0.11659322E+04</pdfrwt>
<pdfrwt beam="2">  1       -2 0.11597733E+00 0.11659322E+04</pdfrwt>
<totfact> 0.39630878E+01</totfact>
</mgrwt>
</event>
<event>
12    3  0.4769008E-008  0.1122355E+04  0.7818608E-02  0.9183673E-01
         -2   -1    0    0    0  501 -0.00000000000E+00  0.00000000000E+00  0.18050131917E+04  0.18050131917E+04  0.00000000000E+00 0.  1.
          2   -1    0    0  501    0  0.00000000000E+00 -0.00000000000E+00 -0.17446963296E+03  0.17446963296E+03  0.00000000000E+00 0. -1.
         23    2    1    2    0    0 -0.13982231166E+01 -0.82170019639E+02  0.69415281897E+01  0.12319255139E+03  0.91511489705E+02 0.  0.
        254    2    1    2    0    0  0.13982231166E+01  0.82170019639E+02  0.16236020305E+04  0.18562902733E+04  0.89608936934E+03 0.  0.
         23    2    4    4    0    0 -0.35768191539E+02 -0.38861826086E+03  0.92087344422E+03  0.10042677382E+04  0.90786967310E+02 0.  0.
         23    2    4    4    0    0  0.37166414656E+02  0.47078828050E+03  0.70272858632E+03  0.85202253510E+03  0.95351910578E+02 0.  0.
          1    1    3    3  502    0 -0.55832646055E+01 -0.75460781273E+02 -0.32946246359E+02  0.82528525391E+02  0.00000000000E+00 0. -1.
         -1    1    3    3    0  502  0.41850414889E+01 -0.67092383655E+01  0.39887774548E+02  0.40664025995E+02  0.00000000000E+00 0.  1.
         13    1    5    5    0    0 -0.47531803328E+02 -0.34916315414E+03  0.87108606928E+03  0.93966223752E+03  0.00000000000E+00 0.  1.
        -13    1    5    5    0    0  0.11763611789E+02 -0.39455106719E+02  0.49787374945E+02  0.64605500636E+02  0.00000000000E+00 0. -1.
          3    1    6    6  503    0  0.21595497658E+02  0.23605765168E+03  0.43680057976E+03  0.49697517736E+03  0.00000000000E+00 0. -1.
         -3    1    6    6    0  503  0.15570916998E+02  0.23473062882E+03  0.26592800656E+03  0.35504735774E+03  0.00000000000E+00 0.  1.
<mgrwt>
<rscale>  0 0.11223546E+04</rscale>
<asrwt>0</asrwt>
<pdfrwt beam="1">  1        2 0.26841483E-01 0.11223546E+04</pdfrwt>
<pdfrwt beam="2">  1       -2 0.27769432E+00 0.11223546E+04</pdfrwt>
<totfact> 0.87846930E+00</totfact>
</mgrwt>
</event>
<event>
12    3  0.4769008E-008  0.1596756E+04  0.7818608E-02  0.8822543E-01
         -2   -1    0    0    0  501 -0.00000000000E+00  0.00000000000E+00  0.42144951375E+03  0.42144951375E+03  0.00000000000E+00 0.  1.
          2   -1    0    0  501    0  0.00000000000E+00 -0.00000000000E+00 -0.15124171614E+04  0.15124171614E+04  0.00000000000E+00 0. -1.
         23    2    1    2    0    0 -0.37379286308E+03  0.15611343740E+03 -0.79821219807E+03  0.89958738626E+03  0.89566972428E+02 0.  0.
        254    2    1    2    0    0  0.37379286308E+03 -0.15611343740E+03 -0.29275544954E+03  0.10342792888E+04  0.90550283504E+03 0.  0.
         23    2    4    4    0    0 -0.25874023710E+03 -0.21709585146E+03 -0.82919618173E+02  0.35959564400E+03  0.91412499656E+02 0.  0.
         23    2    4    4    0    0  0.63253310018E+03  0.60982414058E+02 -0.20983583137E+03  0.67468364484E+03  0.85731947611E+02 0.  0.
          3    1    3    3  502    0 -0.22335583969E+03  0.98307119523E+02 -0.57158774445E+03  0.62150194729E+03  0.00000000000E+00 0. -1.
         -3    1    3    3    0  502 -0.15043702340E+03  0.57806317875E+02 -0.22662445361E+03  0.27808543897E+03  0.00000000000E+00 0.  1.
         13    1    5    5    0    0 -0.25857132758E+03 -0.22115844877E+03 -0.89532478491E+02  0.35183270970E+03  0.00000000000E+00 0.  1.
        -13    1    5    5    0    0 -0.16890952039E+00  0.40625973171E+01  0.66128603184E+01  0.77629343021E+01  0.00000000000E+00 0. -1.
          2    1    6    6  503    0  0.80190561778E+02 -0.17493935635E+02 -0.13065487168E+02  0.83109993005E+02  0.00000000000E+00 0. -1.
         -2    1    6    6    0  503  0.55234253841E+03  0.78476349694E+02 -0.19677034420E+03  0.59157365184E+03  0.00000000000E+00 0.  1.
<mgrwt>
<rscale>  0 0.15967561E+04</rscale>
<asrwt>0</asrwt>
<pdfrwt beam="1">  1        2 0.23267956E+00 0.15967561E+04</pdfrwt>
<pdfrwt beam="2">  1       -2 0.64838387E-01 0.15967561E+04</pdfrwt>
<totfact> 0.26293008E+01</totfact>
</mgrwt>
</event>
<event>
12    3  0.4769008E-008  0.3038739E+04  0.7818608E-02  0.8232754E-01
         -1   -1    0    0    0  501 -0.00000000000E+00  0.00000000000E+00  0.15902901374E+04  0.15902901374E+04  0.00000000000E+00 0.  1.
          1   -1    0    0  501    0  0.00000000000E+00 -0.00000000000E+00 -0.14516120008E+04  0.14516120008E+04  0.00000000000E+00 0. -1.
         23    2    1    2    0    0 -0.12295687867E+03  0.51858089991E+02 -0.13141892819E+04  0.13241309535E+04  0.91769591330E+02 0.  0.
        254    2    1    2    0    0  0.12295687867E+03 -0.51858089991E+02  0.14528674185E+04  0.17177711847E+04  0.90670086131E+03 0.  0.
         23    2    4    4    0    0  0.48255830841E+03  0.10279466260E+03  0.94245963663E+03  0.10685220984E+04  0.10039942490E+03 0.  0.
         23    2    4    4    0    0 -0.35960142974E+03 -0.15465275259E+03  0.51040778184E+03  0.64924908628E+03  0.88190759802E+02 0.  0.
          1    1    3    3  502    0 -0.99314937898E+02  0.27059010057E+02 -0.12117384594E+04  0.12161026852E+04  0.00000000000E+00 0. -1.
         -1    1    3    3    0  502 -0.23641940769E+02  0.24799079933E+02 -0.10245082250E+03  0.10802826834E+03  0.00000000000E+00 0.  1.
         13    1    5    5    0    0  0.25149819126E+02 -0.16941626419E+02  0.47841869407E+02  0.56642533278E+02  0.00000000000E+00 0. -1.
        -13    1    5    5    0    0  0.45740848928E+03  0.11973628902E+03  0.89461776722E+03  0.10118795652E+04  0.00000000000E+00 0.  1.
          1    1    6    6  503    0 -0.27215063397E+02 -0.42487725112E+02  0.63925606845E+02  0.81439239138E+02  0.00000000000E+00 0. -1.
         -1    1    6    6    0  503 -0.33238636634E+03 -0.11216502748E+03  0.44648217500E+03  0.56780984714E+03  0.00000000000E+00 0.  1.
<mgrwt>
<rscale>  0 0.30387394E+04</rscale>
<asrwt>0</asrwt>
<pdfrwt beam="1">  1        1 0.22332492E+00 0.30387394E+04</pdfrwt>
<pdfrwt beam="2">  1       -1 0.24466002E+00 0.30387394E+04</pdfrwt>
<totfact> 0.45309178E-01</totfact>
</mgrwt>
</event>
<event>
12    3  0.4769008E-008  0.4387722E+04  0.7818608E-02  0.7930594E-01
          2   -1    0    0  501    0  0.00000000000E+00  0.00000000000E+00  0.23468524096E+04  0.23468524096E+04  0.00000000000E+00 0. -1.
         -2   -1    0    0    0  501 -0.00000000000E+00 -0.00000000000E+00 -0.20508433338E+04  0.20508433338E+04  0.00000000000E+00 0.  1.
         23    2    1    2    0    0  0.12917158956E+04  0.27423100991E+03  0.17783530477E+04  0.22168204594E+04  0.89558836516E+02 0.  0.
        254    2    1    2    0    0 -0.12917158956E+04 -0.27423100991E+03 -0.14823439719E+04  0.21808752840E+04  0.90285145606E+03 0.  0.
         23    2    4    4    0    0 -0.74636749130E+03 -0.87439167388E+02 -0.14000097185E+04  0.15918574249E+04  0.96295426072E+02 0.  0.
         23    2    4    4    0    0 -0.54534840431E+03 -0.18679184253E+03 -0.82334253308E+02  0.58901785911E+03  0.88696305278E+02 0.  0.
          2    1    3    3  502    0  0.10201497511E+04  0.25044956024E+03  0.13871537207E+04  0.17400074545E+04  0.00000000000E+00 0. -1.
         -2    1    3    3    0  502  0.27156614456E+03  0.23781449675E+02  0.39119932701E+03  0.47681300493E+03  0.00000000000E+00 0.  1.
         13    1    5    5    0    0 -0.38295420081E+03 -0.12004145446E+02 -0.78538696365E+03  0.87385965813E+03  0.00000000000E+00 0.  1.
        -13    1    5    5    0    0 -0.36341329049E+03 -0.75435021942E+02 -0.61462275489E+03  0.71799776676E+03  0.00000000000E+00 0. -1.
          1    1    6    6  503    0 -0.27778569697E+03 -0.56819206942E+02 -0.14423061464E+02  0.28390375204E+03  0.00000000000E+00 0. -1.
         -1    1    6    6    0  503 -0.26756270734E+03 -0.12997263558E+03 -0.67911191844E+02  0.30511410707E+03  0.00000000000E+00 0.  1.
<mgrwt>
<rscale>  0 0.43877222E+04</rscale>
<asrwt>0</asrwt>
<pdfrwt beam="1">  1        2 0.36105422E+00 0.43877222E+04</pdfrwt>
<pdfrwt beam="2">  1       -2 0.31551436E+00 0.43877222E+04</pdfrwt>
<totfact> 0.83197355E-02</totfact>
</mgrwt>
</event>
<event>
12    3  0.4769008E-008  0.1352770E+04  0.7818608E-02  0.8988734E-01
         -1   -1    0    0    0  501 -0.00000000000E+00  0.00000000000E+00  0.10182683435E+04  0.10182683435E+04  0.00000000000E+00 0.  1.
          1   -1    0    0  501    0  0.00000000000E+00 -0.00000000000E+00 -0.44928864687E+03  0.44928864687E+03  0.00000000000E+00 0. -1.
         23    2    1    2    0    0 -0.10235970504E+02  0.65338362973E+02  0.55182834688E+03  0.56300270809E+03  0.89909110387E+02 0.  0.
        254    2    1    2    0    0  0.10235970504E+02 -0.65338362973E+02  0.17151349730E+02  0.90455428225E+03  0.90197028996E+03 0.  0.
         23    2    4    4    0    0 -0.28888330897E+03 -0.16337773605E+03  0.31201551845E+03  0.46440003647E+03  0.90376209687E+02 0.  0.
         23    2    4    4    0    0  0.29911927948E+03  0.98039373080E+02 -0.29486416872E+03  0.44015424579E+03  0.87788496172E+02 0.  0.
          2    1    3    3  502    0  0.36479123595E+02  0.23483020257E+02  0.14446106294E+03  0.15083493430E+03  0.00000000000E+00 0. -1.
         -2    1    3    3    0  502 -0.46715094099E+02  0.41855342716E+02  0.40736728394E+03  0.41216777379E+03  0.00000000000E+00 0.  1.
         13    1    5    5    0    0 -0.23703363043E+03 -0.92467887727E+02  0.21106575519E+03  0.33058131410E+03  0.00000000000E+00 0. -1.
        -13    1    5    5    0    0 -0.51849678537E+02 -0.70909848326E+02  0.10094976326E+03  0.13381872237E+03  0.00000000000E+00 0.  1.
          1    1    6    6  503    0  0.30517484949E+03  0.95265824500E+02 -0.28523730914E+03  0.42844788318E+03  0.00000000000E+00 0. -1.
         -1    1    6    6    0  503 -0.60555700166E+01  0.27735485802E+01 -0.96268595831E+01  0.11706362603E+02  0.00000000000E+00 0.  1.
<mgrwt>
<rscale>  0 0.13527696E+04</rscale>
<asrwt>0</asrwt>
<pdfrwt beam="1">  1        1 0.69121330E-01 0.13527696E+04</pdfrwt>
<pdfrwt beam="2">  1       -1 0.15665667E+00 0.13527696E+04</pdfrwt>
<totfact> 0.15562732E+01</totfact>
</mgrwt>
</event>
<event>
12    3  0.4769008E-008  0.3503009E+04  0.7818608E-02  0.8113077E-01
          1   -1    0    0  501    0  0.00000000000E+00  0.00000000000E+00  0.30693671710E+04  0.30693671710E+04  0.00000000000E+00 0. -1.
         -1   -1    0    0    0  501 -0.00000000000E+00 -0.00000000000E+00 -0.99947912420E+03  0.99947912420E+03  0.00000000000E+00 0.  1.
         23    2    1    2    0    0 -0.13973923774E+03 -0.13623424824E+04  0.20011804183E+04  0.24267779911E+04  0.94996092670E+02 0.  0.
        254    2    1    2    0    0  0.13973923774E+03  0.13623424824E+04  0.68707628560E+02  0.16420683041E+04  0.90341766821E+03 0.  0.
         23    2    4    4    0    0  0.49247574304E+03  0.93624731608E+03 -0.72268279194E+02  0.10637034603E+04  0.84563306626E+02 0.  0.
         23    2    4    4    0    0 -0.35273650530E+03  0.42609516635E+03  0.14097590775E+03  0.57836484388E+03  0.93013725399E+02 0.  0.
          2    1    3    3  502    0 -0.12962364683E+03 -0.11287061605E+04  0.17152827050E+04  0.20574194139E+04  0.00000000000E+00 0. -1.
         -2    1    3    3    0  502 -0.10115590911E+02 -0.23363632195E+03  0.28589771322E+03  0.36935857718E+03  0.00000000000E+00 0.  1.
         13    1    5    5    0    0  0.29233041877E+03  0.58334939354E+03 -0.53596392315E+01  0.65251997243E+03  0.00000000000E+00 0.  1.
        -13    1    5    5    0    0  0.20014532428E+03  0.35289792253E+03 -0.66908639963E+02  0.41118348783E+03  0.00000000000E+00 0. -1.
          4    1    6    6  503    0 -0.20072310401E+03  0.27379913898E+03  0.12790659764E+03  0.36278896167E+03  0.00000000000E+00 0. -1.
         -4    1    6    6    0  503 -0.15201340130E+03  0.15229602737E+03  0.13069310117E+02  0.21557588222E+03  0.00000000000E+00 0.  1.
<mgrwt>
<rscale>  0 0.35030092E+04</rscale>
<asrwt>0</asrwt>
<pdfrwt beam="1">  1        1 0.47221033E+00 0.35030092E+04</pdfrwt>
<pdfrwt beam="2">  1       -1 0.15376602E+00 0.35030092E+04</pdfrwt>
<totfact> 0.14132155E-01</totfact>
</mgrwt>
</event>
<event>
12    3  0.4769008E-008  0.1765917E+04  0.7818608E-02  0.8724637E-01
          1   -1    0    0  501    0  0.00000000000E+00  0.00000000000E+00  0.80997408557E+03  0.80997408557E+03  0.00000000000E+00 0. -1.
         -1   -1    0    0    0  501 -0.00000000000E+00 -0.00000000000E+00 -0.96251931100E+03  0.96251931100E+03  0.00000000000E+00 0.  1.
         23    2    1    2    0    0 -0.62469219494E+03 -0.18150582740E+03 -0.70420475427E+02  0.66067234195E+03  0.91346572275E+02 0.  0.
        254    2    1    2    0    0  0.62469219494E+03  0.18150582740E+03 -0.82124750007E+02  0.11118210546E+04  0.89789580638E+03 0.  0.
         23    2    4    4    0    0  0.76243479465E+03  0.37477667200E+03 -0.63023319809E+02  0.85674584737E+03  0.90978778669E+02 0.  0.
         23    2    4    4    0    0 -0.13774259971E+03 -0.19327084460E+03 -0.19101430198E+02  0.25507520725E+03  0.91497833671E+02 0.  0.
          4    1    3    3  502    0 -0.82995383728E+02 -0.21100498978E+02  0.21506565861E+02  0.88294944093E+02  0.00000000000E+00 0. -1.
         -4    1    3    3    0  502 -0.54169681121E+03 -0.16040532842E+03 -0.91927041289E+02  0.57237739786E+03  0.00000000000E+00 0.  1.
         13    1    5    5    0    0  0.35716044376E+02  0.28557555103E+02 -0.21942877941E+02  0.50721392643E+02  0.00000000000E+00 0. -1.
        -13    1    5    5    0    0  0.72671875027E+03  0.34621911690E+03 -0.41080441868E+02  0.80602445472E+03  0.00000000000E+00 0.  1.
          1    1    6    6  503    0  0.10647411682E+02  0.19531374868E-01 -0.15851652631E+01  0.10764780811E+02  0.00000000000E+00 0. -1.
         -1    1    6    6    0  503 -0.14839001139E+03 -0.19329037598E+03 -0.17516264934E+02  0.24431042644E+03  0.00000000000E+00 0.  1.
<mgrwt>
<rscale>  0 0.17659170E+04</rscale>
<asrwt>0</asrwt>
<pdfrwt beam="1">  1        1 0.12461140E+00 0.17659170E+04</pdfrwt>
<pdfrwt beam="2">  1       -1 0.14807989E+00 0.17659170E+04</pdfrwt>
<totfact> 0.74088531E+00</totfact>
</mgrwt>
</event>
<event>
12    3  0.4769008E-008  0.1460642E+04  0.7818608E-02  0.8911056E-01
          2   -1    0    0  501    0  0.00000000000E+00  0.00000000000E+00  0.36689060872E+04  0.36689060872E+04  0.00000000000E+00 0. -1.
         -2   -1    0    0    0  501 -0.00000000000E+00 -0.00000000000E+00 -0.14537538403E+03  0.14537538403E+03  0.00000000000E+00 0.  1.
         23    2    1    2    0    0  0.24152380681E+03  0.28843543074E+03  0.17577453109E+04  0.17998669864E+04  0.91235102783E+02 0.  0.
        254    2    1    2    0    0 -0.24152380681E+03 -0.28843543074E+03  0.17657853923E+04  0.20144144848E+04  0.89349813541E+03 0.  0.
         23    2    4    4    0    0 -0.49214338960E+03  0.68414122531E+02  0.73981054354E+03  0.89585909334E+03  0.91423556609E+02 0.  0.
         23    2    4    4    0    0  0.25061958278E+03 -0.35684955327E+03  0.10259748487E+04  0.11185553915E+04  0.91596913460E+02 0.  0.
          2    1    3    3  502    0  0.20717881306E+03  0.27507071184E+03  0.14714170351E+04  0.15111767098E+04  0.00000000000E+00 0. -1.
         -2    1    3    3    0  502  0.34344993752E+02  0.13364718901E+02  0.28632827576E+03  0.28869027660E+03  0.00000000000E+00 0.  1.
         13    1    5    5    0    0 -0.49219184867E+03  0.59922944365E+02  0.71903885896E+03  0.87341883186E+03  0.00000000000E+00 0. -1.
        -13    1    5    5    0    0  0.48459072669E-01  0.84911781658E+01  0.20771684578E+02  0.22440261476E+02  0.00000000000E+00 0.  1.
          3    1    6    6  503    0  0.78065613749E+02 -0.51662170825E+02  0.18215526204E+03  0.20480175643E+03  0.00000000000E+00 0.  1.
         -3    1    6    6    0  503  0.17255396903E+03 -0.30518738245E+03  0.84381958670E+03  0.91375363503E+03  0.00000000000E+00 0. -1.
<mgrwt>
<rscale>  0 0.14606418E+04</rscale>
<asrwt>0</asrwt>
<pdfrwt beam="1">  1        2 0.56444702E+00 0.14606418E+04</pdfrwt>
<pdfrwt beam="2">  1       -2 0.22365447E-01 0.14606418E+04</pdfrwt>
<totfact> 0.10647491E+01</totfact>
</mgrwt>
</event>
<event>
12    3  0.4769008E-008  0.1496378E+04  0.7818608E-02  0.8886865E-01
          2   -1    0    0  501    0  0.00000000000E+00  0.00000000000E+00  0.99776385131E+03  0.99776385131E+03  0.00000000000E+00 0. -1.
         -2   -1    0    0    0  501 -0.00000000000E+00 -0.00000000000E+00 -0.56104116915E+03  0.56104116915E+03  0.00000000000E+00 0.  1.
         23    2    1    2    0    0 -0.18635655606E+03  0.42274886792E+03  0.85723860437E+02  0.47834720207E+03  0.89566144107E+02 0.  0.
        254    2    1    2    0    0  0.18635655606E+03 -0.42274886792E+03  0.35099882173E+03  0.10804578184E+04  0.91145134437E+03 0.  0.
         23    2    4    4    0    0  0.34892334840E+03  0.13391913033E+03  0.30782827632E+03  0.49253320626E+03  0.90271119632E+02 0.  0.
         23    2    4    4    0    0 -0.16256679234E+03 -0.55666799824E+03  0.43170545409E+02  0.58792461213E+03  0.86512607828E+02 0.  0.
          1    1    3    3  502    0 -0.76807825851E+02  0.86983309527E+02  0.37121328947E+02  0.12183403183E+03  0.00000000000E+00 0. -1.
         -1    1    3    3    0  502 -0.10954873021E+03  0.33576555839E+03  0.48602531490E+02  0.35651317025E+03  0.00000000000E+00 0.  1.
         13    1    5    5    0    0  0.28675597279E+03  0.69734400603E+02  0.23831513097E+03  0.37932304993E+03  0.00000000000E+00 0. -1.
        -13    1    5    5    0    0  0.62167375613E+02  0.64184729724E+02  0.69513145350E+02  0.11321015633E+03  0.00000000000E+00 0.  1.
          4    1    6    6  503    0  0.42533950323E+01 -0.16802751061E+02  0.13720373793E+02  0.22105937427E+02  0.00000000000E+00 0.  1.
         -4    1    6    6    0  503 -0.16682018738E+03 -0.53986524718E+03  0.29450171617E+02  0.56581867470E+03  0.00000000000E+00 0. -1.
<mgrwt>
<rscale>  0 0.14963778E+04</rscale>
<asrwt>0</asrwt>
<pdfrwt beam="1">  1        2 0.15350213E+00 0.14963778E+04</pdfrwt>
<pdfrwt beam="2">  1       -2 0.86314026E-01 0.14963778E+04</pdfrwt>
<totfact> 0.28423059E+01</totfact>
</mgrwt>
</event>
<event>
12    3  0.4769008E-008  0.1360067E+04  0.7818608E-02  0.8983242E-01
          2   -1    0    0  501    0  0.00000000000E+00  0.00000000000E+00  0.97958796242E+03  0.97958796242E+03  0.00000000000E+00 0. -1.
         -2   -1    0    0    0  501 -0.00000000000E+00 -0.00000000000E+00 -0.47208177081E+03  0.47208177081E+03  0.00000000000E+00 0.  1.
         23    2    1    2    0    0  0.28934276106E+03 -0.13654449361E+03  0.35477037931E+03  0.48609131501E+03  0.89772559146E+02 0.  0.
        254    2    1    2    0    0 -0.28934276106E+03  0.13654449361E+03  0.15273581231E+03  0.96557841822E+03  0.89813686110E+03 0.  0.
         23    2    4    4    0    0 -0.12589378498E+03  0.48682203269E+03  0.22910929551E+03  0.56031807358E+03  0.92845773674E+02 0.  0.
         23    2    4    4    0    0 -0.16344897609E+03 -0.35027753908E+03 -0.76373483195E+02  0.40526034464E+03  0.94832040128E+02 0.  0.
          2    1    3    3  502    0  0.17577782671E+02  0.91274255276E+01  0.44271819579E+02  0.48500333497E+02  0.00000000000E+00 0.  1.
         -2    1    3    3    0  502  0.27176497839E+03 -0.14567191913E+03  0.31049855973E+03  0.43759098151E+03  0.00000000000E+00 0. -1.
         13    1    5    5    0    0 -0.13279269380E+03  0.48549160961E+03  0.22971188719E+03  0.55326625926E+03  0.00000000000E+00 0. -1.
        -13    1    5    5    0    0  0.68989088166E+01  0.13304230818E+01 -0.60259168527E+00  0.70518143180E+01  0.00000000000E+00 0.  1.
          3    1    6    6  503    0 -0.15417096773E+03 -0.24702637351E+03 -0.78454579883E+02  0.30157227592E+03  0.00000000000E+00 0. -1.
         -3    1    6    6    0  503 -0.92780083521E+01 -0.10325116557E+03  0.20810966876E+01  0.10368806872E+03  0.00000000000E+00 0.  1.
<mgrwt>
<rscale>  0 0.13600671E+04</rscale>
<asrwt>0</asrwt>
<pdfrwt beam="1">  1        2 0.15070584E+00 0.13600671E+04</pdfrwt>
<pdfrwt beam="2">  1       -2 0.72627965E-01 0.13600671E+04</pdfrwt>
<totfact> 0.43463743E+01</totfact>
</mgrwt>
</event>
<event>
12    3  0.4769008E-008  0.1137172E+04  0.7818608E-02  0.9169700E-01
          1   -1    0    0  501    0  0.00000000000E+00  0.00000000000E+00  0.11918613772E+04  0.11918613772E+04  0.00000000000E+00 0. -1.
         -1   -1    0    0    0  501 -0.00000000000E+00 -0.00000000000E+00 -0.27124822439E+03  0.27124822439E+03  0.00000000000E+00 0.  1.
         23    2    1    2    0    0 -0.34825012282E+01  0.97032652822E+02  0.40955360528E+03  0.42577301726E+03  0.64195351097E+02 0.  0.
        254    2    1    2    0    0  0.34825012282E+01 -0.97032652822E+02  0.51105954752E+03  0.10373365843E+04  0.89747304390E+03 0.  0.
         23    2    4    4    0    0  0.43275365145E+03 -0.86504071235E+02  0.16991839593E+03  0.48157768040E+03  0.91028148394E+02 0.  0.
         23    2    4    4    0    0 -0.42927115023E+03 -0.10528581588E+02  0.34114115159E+03  0.55575890391E+03  0.90033896514E+02 0.  0.
          2    1    3    3  502    0  0.23847355905E+02  0.51891387102E+02  0.14178452798E+03  0.15285373666E+03  0.00000000000E+00 0. -1.
         -2    1    3    3    0  502 -0.27329857133E+02  0.45141265720E+02  0.26776907731E+03  0.27291928060E+03  0.00000000000E+00 0.  1.
         13    1    5    5    0    0  0.20058404956E+03  0.32425840235E+01  0.59288482791E+02  0.20918795252E+03  0.00000000000E+00 0.  1.
        -13    1    5    5    0    0  0.23216960189E+03 -0.89746655258E+02  0.11062991313E+03  0.27238972788E+03  0.00000000000E+00 0. -1.
          1    1    6    6  503    0 -0.29511018196E+03  0.86784872969E+01  0.18242291957E+03  0.34704964662E+03  0.00000000000E+00 0. -1.
         -1    1    6    6    0  503 -0.13416096827E+03 -0.19207068885E+02  0.15871823202E+03  0.20870925729E+03  0.00000000000E+00 0.  1.
<mgrwt>
<rscale>  0 0.11371724E+04</rscale>
<asrwt>0</asrwt>
<pdfrwt beam="1">  1        1 0.18336329E+00 0.11371724E+04</pdfrwt>
<pdfrwt beam="2">  1       -1 0.41730497E-01 0.11371724E+04</pdfrwt>
<totfact> 0.60639564E+01</totfact>
</mgrwt>
</event>
<event>
12    3  0.4769008E-008  0.1543953E+04  0.7818608E-02  0.8855740E-01
         -1   -1    0    0    0  501 -0.00000000000E+00  0.00000000000E+00  0.59390740720E+03  0.59390740720E+03  0.00000000000E+00 0.  1.
          1   -1    0    0  501    0  0.00000000000E+00 -0.00000000000E+00 -0.10034353302E+04  0.10034353302E+04  0.00000000000E+00 0. -1.
         23    2    1    2    0    0 -0.19829867694E+02 -0.25481931964E+03  0.30694987654E+03  0.41021902429E+03  0.93462890339E+02 0.  0.
        254    2    1    2    0    0  0.19829867694E+02  0.25481931964E+03 -0.71647779952E+03  0.11871237131E+04  0.91137048650E+03 0.  0.
         23    2    4    4    0    0 -0.19609419247E+03  0.33965993312E+03 -0.82287265531E+03  0.91593617870E+03  0.89430834143E+02 0.  0.
         23    2    4    4    0    0  0.21592406016E+03 -0.84840613485E+02  0.10639485580E+03  0.27118753439E+03  0.91660700497E+02 0.  0.
          3    1    3    3  502    0 -0.12867319661E+02  0.26116210642E+01  0.69801262960E+01  0.14869789606E+02  0.00000000000E+00 0. -1.
         -3    1    3    3    0  502 -0.69625480330E+01 -0.25743094070E+03  0.29996975024E+03  0.39534923469E+03  0.00000000000E+00 0.  1.
         13    1    5    5    0    0 -0.20899381007E+02  0.40236265082E+02 -0.43459052546E+02  0.62804700481E+02  0.00000000000E+00 0. -1.
        -13    1    5    5    0    0 -0.17519481146E+03  0.29942366804E+03 -0.77941360277E+03  0.85313147822E+03  0.00000000000E+00 0.  1.
          2    1    6    6  503    0  0.74701152198E+02 -0.78054614635E+02  0.47722938676E+02  0.11811123520E+03  0.00000000000E+00 0. -1.
         -2    1    6    6    0  503  0.14122290796E+03 -0.67859988501E+01  0.58671917119E+02  0.15307629919E+03  0.00000000000E+00 0.  1.
<mgrwt>
<rscale>  0 0.15439529E+04</rscale>
<asrwt>0</asrwt>
<pdfrwt beam="1">  1        1 0.15437466E+00 0.15439529E+04</pdfrwt>
<pdfrwt beam="2">  1       -1 0.91370372E-01 0.15439529E+04</pdfrwt>
<totfact> 0.16936781E+01</totfact>
</mgrwt>
</event>
<event>
12    3  0.4769008E-008  0.1416607E+04  0.7818608E-02  0.8941884E-01
         -1   -1    0    0    0  501 -0.00000000000E+00  0.00000000000E+00  0.36152385024E+03  0.36152385024E+03  0.00000000000E+00 0.  1.
          1   -1    0    0  501    0  0.00000000000E+00 -0.00000000000E+00 -0.13877207324E+04  0.13877207324E+04  0.00000000000E+00 0. -1.
         23    2    1    2    0    0  0.23288648658E+03  0.82624558341E+02  0.10251610897E+03  0.28198366698E+03  0.89119597020E+02 0.  0.
        254    2    1    2    0    0 -0.23288648658E+03 -0.82624558341E+02 -0.11287129911E+04  0.14672609156E+04  0.90432220197E+03 0.  0.
         23    2    4    4    0    0 -0.37078665059E+03  0.98795427927E+01 -0.12039914008E+04  0.12631715164E+04  0.91796737642E+02 0.  0.
         23    2    4    4    0    0  0.13790016401E+03 -0.92504101134E+02  0.75278409728E+02  0.20408939919E+03  0.91717936797E+02 0.  0.
          4    1    3    3  502    0  0.10205823110E+03  0.37470324959E+01  0.75121688092E+02  0.12678008838E+03  0.00000000000E+00 0. -1.
         -4    1    3    3    0  502  0.13082825548E+03  0.78877525845E+02  0.27394420879E+02  0.15520357860E+03  0.00000000000E+00 0.  1.
         13    1    5    5    0    0 -0.34239307080E+03  0.22988051013E+02 -0.10107541555E+04  0.10674199869E+04  0.00000000000E+00 0. -1.
        -13    1    5    5    0    0 -0.28393579785E+02 -0.13108508220E+02 -0.19323724530E+03  0.19575152958E+03  0.00000000000E+00 0.  1.
          1    1    6    6  503    0  0.11747955591E+03 -0.89966985700E+02  0.94792544999E+02  0.17573027957E+03  0.00000000000E+00 0. -1.
         -1    1    6    6    0  503  0.20420608103E+02 -0.25371154341E+01 -0.19514135271E+02  0.28359119616E+02  0.00000000000E+00 0.  1.
<mgrwt>
<rscale>  0 0.14166074E+04</rscale>
<asrwt>0</asrwt>
<pdfrwt beam="1">  1        1 0.21349550E+00 0.14166074E+04</pdfrwt>
<pdfrwt beam="2">  1       -1 0.55619053E-01 0.14166074E+04</pdfrwt>
<totfact> 0.24947247E+01</totfact>
</mgrwt>
</event>
<event>
12    3  0.4769008E-008  0.2305559E+04  0.7818608E-02  0.8475733E-01
          1   -1    0    0  501    0  0.00000000000E+00  0.00000000000E+00  0.23107860915E+04  0.23107860915E+04  0.00000000000E+00 0. -1.
         -1   -1    0    0    0  501 -0.00000000000E+00 -0.00000000000E+00 -0.57508571673E+03  0.57508571673E+03  0.00000000000E+00 0.  1.
         23    2    1    2    0    0  0.35391632062E+03 -0.50219197205E+03  0.16842401970E+04  0.17951647090E+04  0.92183253542E+02 0.  0.
        254    2    1    2    0    0 -0.35391632062E+03  0.50219197205E+03  0.51460177699E+02  0.10907070992E+04  0.89974456797E+03 0.  0.
         23    2    4    4    0    0 -0.58819852697E+02 -0.25236640031E+03  0.34040006524E+02  0.27519593292E+03  0.86171366342E+02 0.  0.
         23    2    4    4    0    0 -0.29509646792E+03  0.75455837235E+03  0.17420171175E+02  0.81551116629E+03  0.91185181436E+02 0.  0.
          3    1    3    3  502    0  0.24926101936E+03 -0.34354165950E+03  0.10342051791E+04  0.11179142544E+04  0.00000000000E+00 0. -1.
         -3    1    3    3    0  502  0.10465530126E+03 -0.15865031255E+03  0.65003501791E+03  0.67725045460E+03  0.00000000000E+00 0.  1.
         13    1    5    5    0    0 -0.55074626619E+02 -0.15281595438E+03 -0.16886492099E+02  0.16331284097E+03  0.00000000000E+00 0. -1.
        -13    1    5    5    0    0 -0.37452260780E+01 -0.99550445930E+02  0.50926498623E+02  0.11188309195E+03  0.00000000000E+00 0.  1.
          4    1    6    6  503    0 -0.12936720353E+03  0.32188062064E+03  0.52492819284E+02  0.35085396303E+03  0.00000000000E+00 0. -1.
         -4    1    6    6    0  503 -0.16572926440E+03  0.43267775171E+03 -0.35072648109E+02  0.46465720327E+03  0.00000000000E+00 0.  1.
<mgrwt>
<rscale>  0 0.23055586E+04</rscale>
<asrwt>0</asrwt>
<pdfrwt beam="1">  1        1 0.35550555E+00 0.23055586E+04</pdfrwt>
<pdfrwt beam="2">  1       -1 0.88474727E-01 0.23055586E+04</pdfrwt>
<totfact> 0.20730860E+00</totfact>
</mgrwt>
</event>
<event>
12    3  0.4769008E-008  0.1304657E+04  0.7818608E-02  0.9025880E-01
          3   -1    0    0  501    0  0.00000000000E+00  0.00000000000E+00  0.14092073608E+04  0.14092073608E+04  0.00000000000E+00 0. -1.
         -3   -1    0    0    0  501 -0.00000000000E+00 -0.00000000000E+00 -0.30196570872E+03  0.30196570872E+03  0.00000000000E+00 0.  1.
         23    2    1    2    0    0  0.22464567882E+03 -0.38820782365E+02  0.29859725746E+03  0.38590325207E+03  0.88251139624E+02 0.  0.
        254    2    1    2    0    0 -0.22464567882E+03  0.38820782365E+02  0.80864439459E+03  0.13252698174E+04  0.10249202886E+04 0.  0.
         23    2    4    4    0    0  0.40243729336E+03  0.32507574010E+02  0.27825049979E+03  0.49900928000E+03  0.92598074688E+02 0.  0.
         23    2    4    4    0    0 -0.62708297217E+03  0.63132083548E+01  0.53039389479E+03  0.82626053742E+03  0.90088187260E+02 0.  0.
          4    1    3    3  502    0  0.18968114009E+03 -0.27328064552E+02  0.18450818452E+03  0.26602448792E+03  0.00000000000E+00 0. -1.
         -4    1    3    3    0  502  0.34964538724E+02 -0.11492717813E+02  0.11408907294E+03  0.11987876415E+03  0.00000000000E+00 0.  1.
         13    1    5    5    0    0  0.77481958299E+02 -0.26524375723E+02  0.76010644305E+02  0.11173457127E+03  0.00000000000E+00 0. -1.
        -13    1    5    5    0    0  0.32495533506E+03  0.59031949733E+02  0.20223985549E+03  0.38727470873E+03  0.00000000000E+00 0.  1.
          3    1    6    6  503    0 -0.30572023293E+03 -0.29158991983E+02  0.21744240704E+03  0.37629284875E+03  0.00000000000E+00 0. -1.
         -3    1    6    6    0  503 -0.32136273924E+03  0.35472200338E+02  0.31295148775E+03  0.44996768868E+03  0.00000000000E+00 0.  1.
<mgrwt>
<rscale>  0 0.13046567E+04</rscale>
<asrwt>0</asrwt>
<pdfrwt beam="1">  1        3 0.21680113E+00 0.13046567E+04</pdfrwt>
<pdfrwt beam="2">  1       -3 0.46456264E-01 0.13046567E+04</pdfrwt>
<totfact> 0.13746703E+00</totfact>
</mgrwt>
</event>
<event>
12    3  0.4769008E-008  0.3007824E+04  0.7818608E-02  0.8241500E-01
         -2   -1    0    0    0  501 -0.00000000000E+00  0.00000000000E+00  0.68619266657E+03  0.68619266657E+03  0.00000000000E+00 0. -1.
          2   -1    0    0  501    0  0.00000000000E+00 -0.00000000000E+00 -0.32960881531E+04  0.32960881531E+04  0.00000000000E+00 0.  1.
         23    2    1    2    0    0  0.49095354671E+03  0.61581561984E+03 -0.26353283298E+04  0.27520442678E+04  0.92347080974E+02 0.  0.
        254    2    1    2    0    0 -0.49095354671E+03 -0.61581561984E+03  0.25432843302E+02  0.12302365519E+04  0.94475969503E+03 0.  0.
         23    2    4    4    0    0  0.31631231721E+02  0.19773995950E+03 -0.11571736741E+03  0.24886872684E+03  0.91888561176E+02 0.  0.
         23    2    4    4    0    0 -0.52258477843E+03 -0.81355557933E+03  0.14115021072E+03  0.98136782502E+03  0.90509086204E+02 0.  0.
          2    1    3    3  502    0  0.12517289577E+03  0.13110717799E+03 -0.73674042330E+03  0.75871193301E+03  0.00000000000E+00 0. -1.
         -2    1    3    3    0  502  0.36578065094E+03  0.48470844185E+03 -0.18985879065E+04  0.19933323348E+04  0.00000000000E+00 0.  1.
         13    1    5    5    0    0  0.44808046886E+02  0.93735910574E+02 -0.97466157943E+02  0.14245642822E+03  0.00000000000E+00 0. -1.
        -13    1    5    5    0    0 -0.13176815165E+02  0.10400404892E+03 -0.18251209472E+02  0.10641229862E+03  0.00000000000E+00 0.  1.
          1    1    6    6  503    0 -0.49178076821E+03 -0.78829750562E+03  0.14834906585E+03  0.94088720190E+03  0.00000000000E+00 0. -1.
         -1    1    6    6    0  503 -0.30804010224E+02 -0.25258073709E+02 -0.71988551299E+01  0.40480623124E+02  0.00000000000E+00 0.  1.
<mgrwt>
<rscale>  0 0.30078241E+04</rscale>
<asrwt>0</asrwt>
<pdfrwt beam="1">  1        2 0.50709049E+00 0.30078241E+04</pdfrwt>
<pdfrwt beam="2">  1       -2 0.10556810E+00 0.30078241E+04</pdfrwt>
<totfact> 0.69503865E-01</totfact>
</mgrwt>
</event>
<event>
12    3  0.4769008E-008  0.2690622E+04  0.7818608E-02  0.8338054E-01
         -2   -1    0    0    0  501 -0.00000000000E+00  0.00000000000E+00  0.97787607253E+03  0.97787607253E+03  0.00000000000E+00 0.  1.
          2   -1    0    0  501    0  0.00000000000E+00 -0.00000000000E+00 -0.18508089166E+04  0.18508089166E+04  0.00000000000E+00 0. -1.
         23    2    1    2    0    0  0.78337611900E+03 -0.62582416064E+03 -0.10697946245E+04  0.14689583145E+04  0.89688167162E+02 0.  0.
        254    2    1    2    0    0 -0.78337611900E+03  0.62582416064E+03  0.19686178039E+03  0.13597266746E+04  0.89708864963E+03 0.  0.
         23    2    4    4    0    0 -0.37604031861E+03  0.68708921459E+02  0.46932164547E+03  0.61161851461E+03  0.87676470028E+02 0.  0.
         23    2    4    4    0    0 -0.40733580039E+03  0.55711523918E+03 -0.27245986508E+03  0.74810816003E+03  0.95559390026E+02 0.  0.
          3    1    3    3  502    0  0.60209362953E+03 -0.52668016322E+03 -0.85854575000E+03  0.11734604970E+04  0.00000000000E+00 0. -1.
         -3    1    3    3    0  502  0.18128248947E+03 -0.99143997412E+02 -0.21124887449E+03  0.29549781756E+03  0.00000000000E+00 0.  1.
         13    1    5    5    0    0 -0.77662824229E+01  0.17798493479E+02  0.14803964573E+02  0.24418412722E+02  0.00000000000E+00 0. -1.
        -13    1    5    5    0    0 -0.36827403619E+03  0.50910427980E+02  0.45451768090E+03  0.58720010189E+03  0.00000000000E+00 0.  1.
          1    1    6    6  503    0 -0.17735957578E+02  0.48097137220E+02  0.84571521477E+00  0.51270011061E+02  0.00000000000E+00 0. -1.
         -1    1    6    6    0  503 -0.38959984281E+03  0.50901810196E+03 -0.27330558029E+03  0.69683814897E+03  0.00000000000E+00 0.  1.
<mgrwt>
<rscale>  0 0.26906221E+04</rscale>
<asrwt>0</asrwt>
<pdfrwt beam="1">  1        2 0.28473983E+00 0.26906221E+04</pdfrwt>
<pdfrwt beam="2">  1       -2 0.15044247E+00 0.26906221E+04</pdfrwt>
<totfact> 0.21108215E+00</totfact>
</mgrwt>
</event>
<event>
12    3  0.4769008E-008  0.1960506E+04  0.7818608E-02  0.8625311E-01
         -2   -1    0    0    0  501 -0.00000000000E+00  0.00000000000E+00  0.66869923368E+03  0.66869923368E+03  0.00000000000E+00 0.  1.
          2   -1    0    0  501    0  0.00000000000E+00 -0.00000000000E+00 -0.14369627746E+04  0.14369627746E+04  0.00000000000E+00 0. -1.
         23    2    1    2    0    0  0.57119644009E+03 -0.51690660258E+03 -0.32047509786E+03  0.83933141632E+03  0.91187329781E+02 0.  0.
        254    2    1    2    0    0 -0.57119644009E+03  0.51690660258E+03 -0.44778844303E+03  0.12663305919E+04  0.89978934722E+03 0.  0.
         23    2    4    4    0    0 -0.27617343289E+03  0.42566188613E+03  0.19206001035E+03  0.54998679621E+03  0.90214311983E+02 0.  0.
         23    2    4    4    0    0 -0.29502300719E+03  0.91244716452E+02 -0.63984845338E+03  0.71634379572E+03  0.91532602471E+02 0.  0.
          1    1    3    3  502    0  0.14718624451E+03 -0.11697257260E+03 -0.11959507695E+03  0.22282135388E+03  0.00000000000E+00 0. -1.
         -1    1    3    3    0  502  0.42401019557E+03 -0.39993402999E+03 -0.20088002091E+03  0.61651006244E+03  0.00000000000E+00 0.  1.
         13    1    5    5    0    0 -0.16919173135E+03  0.33073146521E+03  0.12447202802E+03  0.39179386136E+03  0.00000000000E+00 0. -1.
        -13    1    5    5    0    0 -0.10698170154E+03  0.94930420919E+02  0.67587982334E+02  0.15819293485E+03  0.00000000000E+00 0.  1.
          3    1    6    6  503    0 -0.28322622540E+03  0.80877162095E+02 -0.53855549624E+03  0.61384055962E+03  0.00000000000E+00 0. -1.
         -3    1    6    6    0  503 -0.11796781790E+02  0.10367554357E+02 -0.10129295714E+03  0.10250323610E+03  0.00000000000E+00 0.  1.
<mgrwt>
<rscale>  0 0.19605060E+04</rscale>
<asrwt>0</asrwt>
<pdfrwt beam="1">  1        2 0.22107119E+00 0.19605060E+04</pdfrwt>
<pdfrwt beam="2">  1       -2 0.10287681E+00 0.19605060E+04</pdfrwt>
<totfact> 0.99188606E+00</totfact>
</mgrwt>
</event>
<event>
12    3  0.4769008E-008  0.1852837E+04  0.7818608E-02  0.8678695E-01
          1   -1    0    0  501    0  0.00000000000E+00  0.00000000000E+00  0.65535732232E+03  0.65535732232E+03  0.00000000000E+00 0. -1.
         -1   -1    0    0    0  501 -0.00000000000E+00 -0.00000000000E+00 -0.13095929071E+04  0.13095929071E+04  0.00000000000E+00 0.  1.
         23    2    1    2    0    0  0.10863469781E+03 -0.56458080316E+03 -0.70362958602E+03  0.91309132423E+03  0.89934371599E+02 0.  0.
        254    2    1    2    0    0 -0.10863469781E+03  0.56458080316E+03  0.49394001284E+02  0.10518589052E+04  0.87943982633E+03 0.  0.
         23    2    4    4    0    0 -0.34327282455E+02  0.15900064136E+03 -0.39592958903E+03  0.43782481692E+03  0.92036756623E+02 0.  0.
         23    2    4    4    0    0 -0.74307415359E+02  0.40558016179E+03  0.44532359031E+03  0.61403408824E+03  0.93316139047E+02 0.  0.
          3    1    3    3  502    0  0.27021363609E+02 -0.10681655938E+03 -0.19482471722E+03  0.22382270190E+03  0.00000000000E+00 0. -1.
         -3    1    3    3    0  502  0.81613334206E+02 -0.45776424378E+03 -0.50880486880E+03  0.68926862232E+03  0.00000000000E+00 0.  1.
         13    1    5    5    0    0  0.13542996134E+02  0.37677097972E+02 -0.32076585323E+02  0.51301888677E+02  0.00000000000E+00 0. -1.
        -13    1    5    5    0    0 -0.47870278590E+02  0.12132354339E+03 -0.36385300371E+03  0.38652292824E+03  0.00000000000E+00 0.  1.
          3    1    6    6  503    0 -0.61556380705E+02  0.16777058350E+03  0.14118252424E+03  0.22774692500E+03  0.00000000000E+00 0. -1.
         -3    1    6    6    0  503 -0.12751034655E+02  0.23780957829E+03  0.30414106607E+03  0.38628716324E+03  0.00000000000E+00 0.  1.
<mgrwt>
<rscale>  0 0.18528371E+04</rscale>
<asrwt>0</asrwt>
<pdfrwt beam="1">  1        1 0.10082421E+00 0.18528371E+04</pdfrwt>
<pdfrwt beam="2">  1       -1 0.20147583E+00 0.18528371E+04</pdfrwt>
<totfact> 0.41544534E+00</totfact>
</mgrwt>
</event>
<event>
12    3  0.4769008E-008  0.1249555E+04  0.7818608E-02  0.9070554E-01
         -2   -1    0    0    0  501 -0.00000000000E+00  0.00000000000E+00  0.43828719061E+03  0.43828719061E+03  0.00000000000E+00 0.  1.
          2   -1    0    0  501    0  0.00000000000E+00 -0.00000000000E+00 -0.89061839509E+03  0.89061839509E+03  0.00000000000E+00 0. -1.
         23    2    1    2    0    0 -0.22818148663E+03 -0.82684314787E+02  0.53613909247E+02  0.26625300665E+03  0.95460596753E+02 0.  0.
        254    2    1    2    0    0  0.22818148663E+03  0.82684314787E+02 -0.50594511373E+03  0.10626525791E+04  0.90241152414E+03 0.  0.
         23    2    4    4    0    0  0.17527966263E+03  0.69204951719E+02 -0.75949469728E+03  0.78781154597E+03  0.91118336734E+02 0.  0.
         23    2    4    4    0    0  0.52901823998E+02  0.13479363067E+02  0.25354958355E+03  0.27484103308E+03  0.90939023169E+02 0.  0.
          4    1    3    3  502    0 -0.10027711215E+03 -0.17848542810E+01 -0.12560424335E+02  0.10107645218E+03  0.00000000000E+00 0. -1.
         -4    1    3    3    0  502 -0.12790437448E+03 -0.80899460506E+02  0.66174333581E+02  0.16517655447E+03  0.00000000000E+00 0.  1.
         13    1    5    5    0    0  0.13044182433E+03  0.59248925459E+02 -0.68855049914E+03  0.70329744388E+03  0.00000000000E+00 0.  1.
        -13    1    5    5    0    0  0.44837838294E+02  0.99560262605E+01 -0.70944198144E+02  0.84514102090E+02  0.00000000000E+00 0. -1.
          4    1    6    6  503    0  0.17701889565E+02  0.42278648483E+02  0.19705138685E+03  0.20231186340E+03  0.00000000000E+00 0.  1.
         -4    1    6    6    0  503  0.35199934433E+02 -0.28799285416E+02  0.56498196703E+02  0.72529169686E+02  0.00000000000E+00 0. -1.
<mgrwt>
<rscale>  0 0.12495545E+04</rscale>
<asrwt>0</asrwt>
<pdfrwt beam="1">  1        2 0.13701821E+00 0.12495545E+04</pdfrwt>
<pdfrwt beam="2">  1       -2 0.67428800E-01 0.12495545E+04</pdfrwt>
<totfact> 0.59040467E+01</totfact>
</mgrwt>
</event>
<event>
12    3  0.4769008E-008  0.1387812E+04  0.7818608E-02  0.8962688E-01
          2   -1    0    0  501    0  0.00000000000E+00  0.00000000000E+00  0.12479014092E+04  0.12479014092E+04  0.00000000000E+00 0. -1.
         -2   -1    0    0    0  501 -0.00000000000E+00 -0.00000000000E+00 -0.38585228797E+03  0.38585228797E+03  0.00000000000E+00 0.  1.
         23    2    1    2    0    0 -0.80290696729E+02 -0.11193072597E+03  0.68194960023E+03  0.70289280662E+03  0.10013968722E+03 0.  0.
        254    2    1    2    0    0  0.80290696729E+02  0.11193072597E+03  0.18009952103E+03  0.93086089057E+03  0.90282394558E+03 0.  0.
         23    2    4    4    0    0 -0.18994782227E+03 -0.28698201253E+03 -0.98112859159E+02  0.36714763288E+03  0.82051206562E+02 0.  0.
         23    2    4    4    0    0  0.27023851900E+03  0.39891273850E+03  0.27821238019E+03  0.56371325768E+03  0.90610586068E+02 0.  0.
          3    1    3    3  502    0 -0.27090551121E+02 -0.46530881832E+02  0.49370408493E+03  0.49663139691E+03  0.00000000000E+00 0. -1.
         -3    1    3    3    0  502 -0.53200145608E+02 -0.65399844139E+02  0.18824551530E+03  0.20626140971E+03  0.00000000000E+00 0.  1.
         13    1    5    5    0    0 -0.72984557583E+02 -0.14191759736E+03 -0.83814188419E+02  0.18025584114E+03  0.00000000000E+00 0. -1.
        -13    1    5    5    0    0 -0.11696326468E+03 -0.14506441518E+03 -0.14298670740E+02  0.18689179174E+03  0.00000000000E+00 0.  1.
          3    1    6    6  503    0  0.11279232525E+03  0.19900546968E+03  0.17952309148E+03  0.29078140583E+03  0.00000000000E+00 0. -1.
         -3    1    6    6    0  503  0.15744619374E+03  0.19990726882E+03  0.98689288707E+02  0.27293185186E+03  0.00000000000E+00 0.  1.
<mgrwt>
<rscale>  0 0.13878121E+04</rscale>
<asrwt>0</asrwt>
<pdfrwt beam="1">  1        2 0.19198483E+00 0.13878121E+04</pdfrwt>
<pdfrwt beam="2">  1       -2 0.59361891E-01 0.13878121E+04</pdfrwt>
<totfact> 0.45775206E+01</totfact>
</mgrwt>
</event>
<event>
12    3  0.4769008E-008  0.2636970E+04  0.7818608E-02  0.8355751E-01
         -2   -1    0    0    0  501 -0.00000000000E+00  0.00000000000E+00  0.17846565544E+04  0.17846565544E+04  0.00000000000E+00 0. -1.
          2   -1    0    0  501    0  0.00000000000E+00 -0.00000000000E+00 -0.97408249402E+03  0.97408249402E+03  0.00000000000E+00 0.  1.
         23    2    1    2    0    0  0.25737252725E+03 -0.40434081312E+03  0.14678859707E+04  0.15468368565E+04  0.91010585015E+02 0.  0.
        254    2    1    2    0    0 -0.25737252725E+03  0.40434081312E+03 -0.65731191035E+03  0.12119021919E+04  0.89828495724E+03 0.  0.
         23    2    4    4    0    0  0.14845208011E+03  0.39025941673E+03  0.67791875318E+01  0.42828232497E+03  0.95075549242E+02 0.  0.
         23    2    4    4    0    0 -0.40582460736E+03  0.14081396398E+02 -0.66409109788E+03  0.78361986697E+03  0.90284062674E+02 0.  0.
          1    1    3    3  502    0  0.23947697769E+03 -0.38818787239E+03  0.14370394879E+04  0.15076874798E+04  0.00000000000E+00 0. -1.
         -1    1    3    3    0  502  0.17895549558E+02 -0.16152940737E+02  0.30846482847E+02  0.39149376655E+02  0.00000000000E+00 0.  1.
         13    1    5    5    0    0  0.16133470554E+03  0.33989800323E+03  0.55665228819E+01  0.37628516578E+03  0.00000000000E+00 0. -1.
        -13    1    5    5    0    0 -0.12882625436E+02  0.50361413499E+02  0.12126646499E+01  0.51997159185E+02  0.00000000000E+00 0.  1.
          2    1    6    6  503    0 -0.24706953609E+03  0.36130983426E+02 -0.46718965600E+03  0.52973104336E+03  0.00000000000E+00 0. -1.
         -2    1    6    6    0  503 -0.15875507127E+03 -0.22049587028E+02 -0.19690144187E+03  0.25388882361E+03  0.00000000000E+00 0.  1.
<mgrwt>
<rscale>  0 0.26369700E+04</rscale>
<asrwt>0</asrwt>
<pdfrwt beam="1">  1        2 0.14985885E+00 0.26369700E+04</pdfrwt>
<pdfrwt beam="2">  1       -2 0.27456255E+00 0.26369700E+04</pdfrwt>
<totfact> 0.10494453E+00</totfact>
</mgrwt>
</event>
<event>
12    3  0.4769008E-008  0.1546004E+04  0.7818608E-02  0.8854424E-01
          2   -1    0    0  501    0  0.00000000000E+00  0.00000000000E+00  0.97113688075E+03  0.97113688075E+03  0.00000000000E+00 0.  1.
         -2   -1    0    0    0  501 -0.00000000000E+00 -0.00000000000E+00 -0.61529126749E+03  0.61529126749E+03  0.00000000000E+00 0. -1.
         23    2    1    2    0    0 -0.45913851405E+03 -0.16137349265E+03  0.10033480790E+03  0.50515404039E+03  0.90906279399E+02 0.  0.
        254    2    1    2    0    0  0.45913851405E+03  0.16137349265E+03  0.25551080537E+03  0.10812741079E+04  0.93113819889E+03 0.  0.
         23    2    4    4    0    0  0.50338917511E+03 -0.59686538515E+02  0.51286565334E+03  0.72702568388E+03  0.92585215586E+02 0.  0.
         23    2    4    4    0    0 -0.44250661063E+02  0.22106003117E+03 -0.25735484797E+03  0.35424842397E+03  0.91841002426E+02 0.  0.
          1    1    3    3  502    0 -0.22495929987E+03 -0.79925360184E+02  0.95612463755E+02  0.25717016355E+03  0.00000000000E+00 0. -1.
         -1    1    3    3    0  502 -0.23417921418E+03 -0.81448132470E+02  0.47223441473E+01  0.24798387684E+03  0.00000000000E+00 0.  1.
         13    1    5    5    0    0 -0.33855449171E-01 -0.85608961352E+01  0.41934861428E+01  0.95328597419E+01  0.00000000000E+00 0. -1.
        -13    1    5    5    0    0  0.50342303056E+03 -0.51125642379E+02  0.50867216720E+03  0.71749282414E+03  0.00000000000E+00 0.  1.
          2    1    6    6  503    0  0.25450339905E+02  0.87801883938E+02 -0.77846401411E+02  0.12007061604E+03  0.00000000000E+00 0. -1.
         -2    1    6    6    0  503 -0.69701000968E+02  0.13325814723E+03 -0.17950844656E+03  0.23417780793E+03  0.00000000000E+00 0.  1.
<mgrwt>
<rscale>  0 0.15460039E+04</rscale>
<asrwt>0</asrwt>
<pdfrwt beam="1">  1        2 0.14940567E+00 0.15460039E+04</pdfrwt>
<pdfrwt beam="2">  1       -2 0.94660195E-01 0.15460039E+04</pdfrwt>
<totfact> 0.23802711E+01</totfact>
</mgrwt>
</event>
<event>
12    3  0.6804186E-008  0.1805238E+04  0.7818608E-02  0.8703519E-01
         -2   -1    0    0    0  501 -0.00000000000E+00  0.00000000000E+00  0.66503474282E+03  0.66503474282E+03  0.00000000000E+00 0.  1.
          2   -1    0    0  501    0  0.00000000000E+00 -0.00000000000E+00 -0.12250809483E+04  0.12250809483E+04  0.00000000000E+00 0. -1.
         23    2    1    2    0    0  0.30850955183E+03 -0.26950408546E+03 -0.77431528994E+03  0.88082275847E+03  0.92054157771E+02 0.  0.
        254    2    1    2    0    0 -0.30850955183E+03  0.26950408546E+03  0.21426908450E+03  0.10092929326E+04  0.89719027390E+03 0.  0.
         23    2    4    4    0    0 -0.46657540698E+03  0.48908841695E+03  0.24119738865E+03  0.72289810590E+03  0.86633718778E+02 0.  0.
         23    2    4    4    0    0  0.15806585515E+03 -0.21958433150E+03 -0.26928304144E+02  0.28639482670E+03  0.89970939709E+02 0.  0.
          1    1    3    3  502    0  0.29907504263E+03 -0.26588297696E+03 -0.70401990792E+03  0.80980471059E+03  0.00000000000E+00 0. -1.
         -1    1    3    3    0  502  0.94345092000E+01 -0.36211084980E+01 -0.70295382025E+02  0.71018047880E+02  0.00000000000E+00 0.  1.
         13    1    5    5    0    0 -0.40141640436E+03  0.45816735618E+03  0.22111128931E+03  0.64802982819E+03  0.00000000000E+00 0. -1.
        -13    1    5    5    0    0 -0.65159002615E+02  0.30921060776E+02  0.20086099334E+02  0.74868277713E+02  0.00000000000E+00 0.  1.
          2    1    6    6  503    0  0.14219571298E+03 -0.22520755041E+03 -0.17079851742E+02  0.26688908349E+03  0.00000000000E+00 0. -1.
         -2    1    6    6    0  503  0.15870142169E+02  0.56232189108E+01 -0.98484524018E+01  0.19505743208E+02  0.00000000000E+00 0.  1.
<mgrwt>
<rscale>  0 0.18052384E+04</rscale>
<asrwt>0</asrwt>
<pdfrwt beam="1">  1        2 0.18847399E+00 0.18052384E+04</pdfrwt>
<pdfrwt beam="2">  1       -2 0.10231304E+00 0.18052384E+04</pdfrwt>
<totfact> 0.13509883E+01</totfact>
</mgrwt>
</event>
<event>
12    3  0.4769008E-008  0.1593541E+04  0.7818608E-02  0.8824526E-01
          1   -1    0    0  501    0  0.00000000000E+00  0.00000000000E+00  0.19029717700E+04  0.19029717700E+04  0.00000000000E+00 0. -1.
         -1   -1    0    0    0  501 -0.00000000000E+00 -0.00000000000E+00 -0.33360616625E+03  0.33360616625E+03  0.00000000000E+00 0.  1.
         23    2    1    2    0    0 -0.26515926963E+03 -0.45227812933E+03  0.50847948056E+03  0.73609931316E+03  0.91792549522E+02 0.  0.
        254    2    1    2    0    0  0.26515926963E+03  0.45227812933E+03  0.10608861232E+04  0.15004786231E+04  0.92254636060E+03 0.  0.
         23    2    4    4    0    0 -0.16826542997E+03  0.43172951411E+03  0.16298972102E+03  0.49964861261E+03  0.91539383038E+02 0.  0.
         23    2    4    4    0    0  0.43342469959E+03  0.20548615224E+02  0.89789640222E+03  0.10008300105E+04  0.84637728286E+02 0.  0.
          1    1    3    3  502    0 -0.44156748234E+01 -0.91182329579E+01  0.37412844200E+02  0.38760305308E+02  0.00000000000E+00 0. -1.
         -1    1    3    3    0  502 -0.26074359480E+03 -0.44315989637E+03  0.47106663636E+03  0.69733900785E+03  0.00000000000E+00 0.  1.
         13    1    5    5    0    0 -0.11726414932E+03  0.37915473131E+03  0.11955376317E+03  0.41449040191E+03  0.00000000000E+00 0. -1.
        -13    1    5    5    0    0 -0.51001280648E+02  0.52574782799E+02  0.43435957851E+02  0.85158210694E+02  0.00000000000E+00 0.  1.
          2    1    6    6  503    0  0.98765083451E+01  0.15593218554E+02  0.34462271588E+02  0.39094015462E+02  0.00000000000E+00 0.  1.
         -2    1    6    6    0  503  0.42354819125E+03  0.49553966704E+01  0.86343413063E+03  0.96173599506E+03  0.00000000000E+00 0. -1.
<mgrwt>
<rscale>  0 0.15935409E+04</rscale>
<asrwt>0</asrwt>
<pdfrwt beam="1">  1        1 0.29276488E+00 0.15935409E+04</pdfrwt>
<pdfrwt beam="2">  1       -1 0.51324027E-01 0.15935409E+04</pdfrwt>
<totfact> 0.12715745E+01</totfact>
</mgrwt>
</event>
<event>
12    3  0.4769008E-008  0.1897818E+04  0.7818608E-02  0.8655943E-01
          2   -1    0    0  501    0  0.00000000000E+00  0.00000000000E+00  0.12415377419E+04  0.12415377419E+04  0.00000000000E+00 0. -1.
         -2   -1    0    0    0  501 -0.00000000000E+00 -0.00000000000E+00 -0.72525211679E+03  0.72525211679E+03  0.00000000000E+00 0.  1.
         23    2    1    2    0    0 -0.62221621057E+03 -0.23681872185E+02 -0.19725008964E+03  0.65957861320E+03  0.91774208537E+02 0.  0.
        254    2    1    2    0    0  0.62221621057E+03  0.23681872185E+02  0.71353571473E+03  0.13072112455E+04  0.90108500172E+03 0.  0.
         23    2    4    4    0    0  0.66049251657E+03 -0.24662441040E+03  0.23814068931E+03  0.75075341028E+03  0.99225656405E+02 0.  0.
         23    2    4    4    0    0 -0.38276305999E+02  0.27030628258E+03  0.47539502542E+03  0.55645783519E+03  0.95469000984E+02 0.  0.
          2    1    3    3  502    0 -0.18358792639E+03  0.89919611454E+01 -0.99472880481E+02  0.20899817232E+03  0.00000000000E+00 0. -1.
         -2    1    3    3    0  502 -0.43862828418E+03 -0.32673833331E+02 -0.97777209156E+02  0.45058044088E+03  0.00000000000E+00 0.  1.
         13    1    5    5    0    0  0.33553996745E+00  0.31097775678E+01 -0.35250841561E+01  0.47126979426E+01  0.00000000000E+00 0.  1.
        -13    1    5    5    0    0  0.66015697661E+03 -0.24973418797E+03  0.24166577347E+03  0.74604071234E+03  0.00000000000E+00 0. -1.
          3    1    6    6  503    0 -0.28988446226E+02  0.25061087956E+03  0.36353032406E+03  0.44249343440E+03  0.00000000000E+00 0. -1.
         -3    1    6    6    0  503 -0.92878597730E+01  0.19695403019E+02  0.11186470136E+03  0.11396440080E+03  0.00000000000E+00 0.  1.
<mgrwt>
<rscale>  0 0.18978176E+04</rscale>
<asrwt>0</asrwt>
<pdfrwt beam="1">  1        2 0.19100581E+00 0.18978176E+04</pdfrwt>
<pdfrwt beam="2">  1       -2 0.11157725E+00 0.18978176E+04</pdfrwt>
<totfact> 0.10639893E+01</totfact>
</mgrwt>
</event>
<event>
12    3  0.4769008E-008  0.2465390E+04  0.7818608E-02  0.8415420E-01
         -2   -1    0    0    0  501 -0.00000000000E+00  0.00000000000E+00  0.12592932783E+04  0.12592932783E+04  0.00000000000E+00 0. -1.
          2   -1    0    0  501    0  0.00000000000E+00 -0.00000000000E+00 -0.12066588168E+04  0.12066588168E+04  0.00000000000E+00 0.  1.
         23    2    1    2    0    0  0.44927565660E+03  0.72898303678E+03  0.65825725428E+03  0.10839923066E+04  0.92042514071E+02 0.  0.
        254    2    1    2    0    0 -0.44927565660E+03 -0.72898303678E+03 -0.60562279275E+03  0.13819597885E+04  0.89987166113E+03 0.  0.
         23    2    4    4    0    0  0.83567332156E+02 -0.65625251170E+03 -0.48013913670E+03  0.82236701772E+03  0.90017015812E+02 0.  0.
         23    2    4    4    0    0 -0.53284298875E+03 -0.72730525082E+02 -0.12548365605E+03  0.55959277081E+03  0.90479507445E+02 0.  0.
          1    1    3    3  502    0  0.36144446757E+03  0.61630040000E+03  0.58512440994E+03  0.92349275107E+03  0.00000000000E+00 0. -1.
         -1    1    3    3    0  502  0.87831189029E+02  0.11268263678E+03  0.73132844339E+02  0.16049955551E+03  0.00000000000E+00 0.  1.
         13    1    5    5    0    0  0.18415170466E+02 -0.30355353186E+02 -0.10082314536E+02  0.36908251607E+02  0.00000000000E+00 0.  1.
        -13    1    5    5    0    0  0.65152161690E+02 -0.62589715851E+03 -0.47005682216E+03  0.78545876612E+03  0.00000000000E+00 0. -1.
          1    1    6    6  503    0 -0.42705206191E+03 -0.82594797338E+02 -0.72862982941E+02  0.44102650534E+03  0.00000000000E+00 0. -1.
         -1    1    6    6    0  503 -0.10579092684E+03  0.98642722562E+01 -0.52620673112E+02  0.11856626547E+03  0.00000000000E+00 0.  1.
<mgrwt>
<rscale>  0 0.24653903E+04</rscale>
<asrwt>0</asrwt>
<pdfrwt beam="1">  1        2 0.18563982E+00 0.24653903E+04</pdfrwt>
<pdfrwt beam="2">  1       -2 0.19373743E+00 0.24653903E+04</pdfrwt>
<totfact> 0.24562236E+00</totfact>
</mgrwt>
</event>
<event>
12    3  0.4769008E-008  0.2322778E+04  0.7818608E-02  0.8468994E-01
         -1   -1    0    0    0  501 -0.00000000000E+00  0.00000000000E+00  0.85397742158E+03  0.85397742158E+03  0.00000000000E+00 0.  1.
          1   -1    0    0  501    0  0.00000000000E+00 -0.00000000000E+00 -0.15794610684E+04  0.15794610684E+04  0.00000000000E+00 0. -1.
         23    2    1    2    0    0 -0.37118465202E+03  0.46375768982E+03  0.51306949399E+03  0.79014021969E+03  0.90730481920E+02 0.  0.
        254    2    1    2    0    0  0.37118465202E+03 -0.46375768982E+03 -0.12385531408E+04  0.16432982703E+04  0.90197898080E+03 0.  0.
         23    2    4    4    0    0 -0.12056347052E+03 -0.49295183682E+03 -0.90521984970E+03  0.10416966337E+04  0.90398210767E+02 0.  0.
         23    2    4    4    0    0  0.49174812254E+03  0.29194147000E+02 -0.33333329115E+03  0.60160163664E+03  0.90249276873E+02 0.  0.
          4    1    3    3  502    0 -0.60887009535E+02  0.46755383474E+02  0.10082498031E+03  0.12672399327E+03  0.00000000000E+00 0. -1.
         -4    1    3    3    0  502 -0.31029764249E+03  0.41700230635E+03  0.41224451368E+03  0.66341622643E+03  0.00000000000E+00 0.  1.
         13    1    5    5    0    0 -0.28683979675E+02 -0.28147592838E+02 -0.94324462956E+02  0.10252883489E+03  0.00000000000E+00 0.  1.
        -13    1    5    5    0    0 -0.91879490844E+02 -0.46480424398E+03 -0.81089538674E+03  0.93916779880E+03  0.00000000000E+00 0. -1.
          3    1    6    6  503    0  0.42144890131E+03  0.51166259108E+02 -0.26092035928E+03  0.49831375295E+03  0.00000000000E+00 0. -1.
         -3    1    6    6    0  503  0.70299221226E+02 -0.21972112108E+02 -0.72412931864E+02  0.10328788369E+03  0.00000000000E+00 0.  1.
<mgrwt>
<rscale>  0 0.23227777E+04</rscale>
<asrwt>0</asrwt>
<pdfrwt beam="1">  1        1 0.24299401E+00 0.23227777E+04</pdfrwt>
<pdfrwt beam="2">  1       -1 0.13138114E+00 0.23227777E+04</pdfrwt>
<totfact> 0.25675969E+00</totfact>
</mgrwt>
</event>
<event>
12    3  0.4769008E-008  0.2582958E+04  0.7818608E-02  0.8374013E-01
          1   -1    0    0  501    0  0.00000000000E+00  0.00000000000E+00  0.22407807036E+04  0.22407807036E+04  0.00000000000E+00 0. -1.
         -1   -1    0    0    0  501 -0.00000000000E+00 -0.00000000000E+00 -0.74434655736E+03  0.74434655736E+03  0.00000000000E+00 0.  1.
         23    2    1    2    0    0 -0.25720924901E+03  0.31215344304E+03  0.18824142710E+04  0.19274965462E+04  0.90349755168E+02 0.  0.
        254    2    1    2    0    0  0.25720924901E+03 -0.31215344304E+03 -0.38598012482E+03  0.10576307147E+04  0.89777820318E+03 0.  0.
         23    2    4    4    0    0  0.51041650638E+03 -0.33187471746E+03 -0.47033361283E+03  0.77455296622E+03  0.89737127467E+02 0.  0.
         23    2    4    4    0    0 -0.25320725737E+03  0.19721274422E+02  0.84353488008E+02  0.28307774846E+03  0.92274898443E+02 0.  0.
          1    1    3    3  502    0 -0.18637218618E+03  0.24836065937E+03  0.15866724267E+04  0.16167705460E+04  0.00000000000E+00 0. -1.
         -1    1    3    3    0  502 -0.70837062822E+02  0.63792783672E+02  0.29574184435E+03  0.31072600023E+03  0.00000000000E+00 0.  1.
         13    1    5    5    0    0  0.11176805400E+03 -0.89184449067E+02 -0.67879923360E+02  0.15828344148E+03  0.00000000000E+00 0.  1.
        -13    1    5    5    0    0  0.39864845238E+03 -0.24269026839E+03 -0.40245368947E+03  0.61626952474E+03  0.00000000000E+00 0. -1.
          1    1    6    6  503    0 -0.25965831028E+03  0.20427664067E+02  0.73844219538E+02  0.27072623869E+03  0.00000000000E+00 0. -1.
         -1    1    6    6    0  503  0.64510529026E+01 -0.70638964589E+00  0.10509268470E+02  0.12351509772E+02  0.00000000000E+00 0.  1.
<mgrwt>
<rscale>  0 0.25829575E+04</rscale>
<asrwt>0</asrwt>
<pdfrwt beam="1">  1        1 0.34473549E+00 0.25829575E+04</pdfrwt>
<pdfrwt beam="2">  1       -1 0.11451486E+00 0.25829575E+04</pdfrwt>
<totfact> 0.12492987E+00</totfact>
</mgrwt>
</event>
<event>
12    3  0.4769008E-008  0.1801087E+04  0.7818608E-02  0.8705722E-01
         -1   -1    0    0    0  501 -0.00000000000E+00  0.00000000000E+00  0.58671578339E+03  0.58671578339E+03  0.00000000000E+00 0.  1.
          1   -1    0    0  501    0  0.00000000000E+00 -0.00000000000E+00 -0.13822341933E+04  0.13822341933E+04  0.00000000000E+00 0. -1.
         23    2    1    2    0    0  0.46062670823E+03  0.59568287601E+02  0.23081663090E+03  0.52760500991E+03  0.96774914935E+02 0.  0.
        254    2    1    2    0    0 -0.46062670823E+03 -0.59568287601E+02 -0.10263350408E+04  0.14413449668E+04  0.89910308199E+03 0.  0.
         23    2    4    4    0    0 -0.48462161108E+03 -0.30493329904E+03 -0.26719886187E+03  0.63836941957E+03  0.90982752600E+02 0.  0.
         23    2    4    4    0    0  0.23994902844E+02  0.24536501144E+03 -0.75913617897E+03  0.80297554723E+03  0.87762446599E+02 0.  0.
          1    1    3    3  502    0  0.36377334391E+03  0.58678486983E+02  0.13804312154E+03  0.39348457909E+03  0.00000000000E+00 0. -1.
         -1    1    3    3    0  502  0.96853364319E+02  0.88980061800E+00  0.92773509365E+02  0.13412043083E+03  0.00000000000E+00 0.  1.
         13    1    5    5    0    0 -0.16465520379E+02 -0.15639371718E+02  0.66611775981E+01  0.23665895210E+02  0.00000000000E+00 0.  1.
        -13    1    5    5    0    0 -0.46815609070E+03 -0.28929392732E+03 -0.27386003946E+03  0.61470352436E+03  0.00000000000E+00 0. -1.
          3    1    6    6  503    0  0.31968371649E+02  0.15819230621E+03 -0.36264084926E+03  0.39693219582E+03  0.00000000000E+00 0. -1.
         -3    1    6    6    0  503 -0.79734688049E+01  0.87172705229E+02 -0.39649532971E+03  0.40604335141E+03  0.00000000000E+00 0.  1.
<mgrwt>
<rscale>  0 0.18010870E+04</rscale>
<asrwt>0</asrwt>
<pdfrwt beam="1">  1        1 0.21265141E+00 0.18010870E+04</pdfrwt>
<pdfrwt beam="2">  1       -1 0.90263968E-01 0.18010870E+04</pdfrwt>
<totfact> 0.89540966E+00</totfact>
</mgrwt>
</event>
<event>
12    3  0.4769008E-008  0.2787493E+04  0.7818608E-02  0.8307162E-01
         -4   -1    0    0    0  501 -0.00000000000E+00  0.00000000000E+00  0.26228434168E+04  0.26228434168E+04  0.00000000000E+00 0. -1.
          4   -1    0    0  501    0  0.00000000000E+00 -0.00000000000E+00 -0.74061954549E+03  0.74061954549E+03  0.00000000000E+00 0.  1.
         23    2    1    2    0    0 -0.57070613484E+03  0.56320277483E+03  0.20063907698E+04  0.21625975085E+04  0.91220636472E+02 0.  0.
        254    2    1    2    0    0  0.57070613484E+03 -0.56320277483E+03 -0.12416689852E+03  0.12008654538E+04  0.88530083109E+03 0.  0.
         23    2    4    4    0    0  0.41839545333E+03 -0.20392370531E+03  0.34331195926E+03  0.58434886856E+03  0.83431803695E+02 0.  0.
         23    2    4    4    0    0  0.15231068151E+03 -0.35927906952E+03 -0.46747885778E+03  0.61651658524E+03  0.96313155421E+02 0.  0.
          1    1    3    3  502    0 -0.52072182632E+03  0.52184318217E+03  0.18997338708E+04  0.20377586479E+04  0.00000000000E+00 0. -1.
         -1    1    3    3    0  502 -0.49984308521E+02  0.41359592667E+02  0.10665689902E+03  0.12483886058E+03  0.00000000000E+00 0.  1.
         13    1    5    5    0    0  0.34053340696E+03 -0.12791009126E+03  0.27270881629E+03  0.45463621852E+03  0.00000000000E+00 0. -1.
        -13    1    5    5    0    0  0.77862046366E+02 -0.76013614053E+02  0.70603142967E+02  0.12971265005E+03  0.00000000000E+00 0.  1.
          3    1    6    6  503    0  0.15489312388E+03 -0.35647656742E+03 -0.43311315591E+03  0.58194022783E+03  0.00000000000E+00 0. -1.
         -3    1    6    6    0  503 -0.25824423668E+01 -0.28025020985E+01 -0.34365701875E+02  0.34576357413E+02  0.00000000000E+00 0.  1.
<mgrwt>
<rscale>  0 0.27874929E+04</rscale>
<asrwt>0</asrwt>
<pdfrwt beam="1">  1        4 0.11394147E+00 0.27874929E+04</pdfrwt>
<pdfrwt beam="2">  1       -4 0.40351437E+00 0.27874929E+04</pdfrwt>
<totfact> 0.67143248E-03</totfact>
</mgrwt>
</event>
<event>
12    3  0.4769008E-008  0.1253002E+04  0.7818608E-02  0.9067688E-01
          2   -1    0    0  501    0  0.00000000000E+00  0.00000000000E+00  0.20074392879E+04  0.20074392879E+04  0.00000000000E+00 0. -1.
         -2   -1    0    0    0  501 -0.00000000000E+00 -0.00000000000E+00 -0.19552452103E+03  0.19552452103E+03  0.00000000000E+00 0.  1.
         23    2    1    2    0    0 -0.24379453605E+02 -0.10914750816E+03  0.93841798524E+03  0.94941003418E+03  0.90794062021E+02 0.  0.
        254    2    1    2    0    0  0.24379453605E+02  0.10914750816E+03  0.87349678167E+03  0.12535537748E+04  0.89212829928E+03 0.  0.
         23    2    4    4    0    0  0.40572597831E+03  0.35255103569E+02  0.18144249295E+03  0.45468731938E+03  0.89233896869E+02 0.  0.
         23    2    4    4    0    0 -0.38134652470E+03  0.73892404594E+02  0.69205428872E+03  0.79886645540E+03  0.91450618784E+02 0.  0.
          2    1    3    3  502    0 -0.74664211769E+01 -0.23434820624E+02  0.41454228280E+02  0.48201569530E+02  0.00000000000E+00 0.  1.
         -2    1    3    3    0  502 -0.16913032428E+02 -0.85712687539E+02  0.89696375696E+03  0.90120846465E+03  0.00000000000E+00 0. -1.
         13    1    5    5    0    0  0.17540819533E+03  0.51787661674E+02  0.52807462791E+02  0.19036445314E+03  0.00000000000E+00 0.  1.
        -13    1    5    5    0    0  0.23031778298E+03 -0.16532558105E+02  0.12863503016E+03  0.26432286624E+03  0.00000000000E+00 0. -1.
          2    1    6    6  503    0 -0.39187125299E+02  0.32558664450E+01  0.14109425865E+03  0.14647123021E+03  0.00000000000E+00 0. -1.
         -2    1    6    6    0  503 -0.34215939940E+03  0.70636538149E+02  0.55096003007E+03  0.65239522519E+03  0.00000000000E+00 0.  1.
<mgrwt>
<rscale>  0 0.12530022E+04</rscale>
<asrwt>0</asrwt>
<pdfrwt beam="1">  1        2 0.30883680E+00 0.12530022E+04</pdfrwt>
<pdfrwt beam="2">  1       -2 0.30080697E-01 0.12530022E+04</pdfrwt>
<totfact> 0.66468895E+01</totfact>
</mgrwt>
</event>
<event>
12    3  0.4769008E-008  0.2348455E+04  0.7818608E-02  0.8459057E-01
         -1   -1    0    0    0  501 -0.00000000000E+00  0.00000000000E+00  0.44888608663E+03  0.44888608663E+03  0.00000000000E+00 0.  1.
          1   -1    0    0  501    0  0.00000000000E+00 -0.00000000000E+00 -0.30716268795E+04  0.30716268795E+04  0.00000000000E+00 0. -1.
         23    2    1    2    0    0 -0.78682745029E+03 -0.33452482833E+02 -0.18725703259E+04  0.20334726886E+04  0.90967273190E+02 0.  0.
        254    2    1    2    0    0  0.78682745029E+03  0.33452482833E+02 -0.75017046696E+03  0.14870402775E+04  0.10140594422E+04 0.  0.
         23    2    4    4    0    0  0.31010486488E+03  0.96268845451E+01  0.22791369112E+03  0.39505412154E+03  0.88687114152E+02 0.  0.
         23    2    4    4    0    0  0.47672258540E+03  0.23825598288E+02 -0.97808415808E+03  0.10919861560E+04  0.89179941448E+02 0.  0.
          4    1    3    3  502    0 -0.43301647565E+01  0.27628392665E+01 -0.20100956222E+01  0.55158038436E+01  0.00000000000E+00 0.  1.
         -4    1    3    3    0  502 -0.78249728553E+03 -0.36215322100E+02 -0.18705602303E+04  0.20279568848E+04  0.00000000000E+00 0. -1.
         13    1    5    5    0    0  0.14185470737E+03 -0.37881112305E+02  0.11978430498E+03  0.18948882920E+03  0.00000000000E+00 0.  1.
        -13    1    5    5    0    0  0.16825015752E+03  0.47507996850E+02  0.10812938614E+03  0.20556529235E+03  0.00000000000E+00 0. -1.
          3    1    6    6  503    0  0.11258354699E+03 -0.31451720485E+02 -0.25430886071E+03  0.27988794617E+03  0.00000000000E+00 0. -1.
         -3    1    6    6    0  503  0.36413903841E+03  0.55277318773E+02 -0.72377529737E+03  0.81209820979E+03  0.00000000000E+00 0.  1.
<mgrwt>
<rscale>  0 0.23484553E+04</rscale>
<asrwt>0</asrwt>
<pdfrwt beam="1">  1        1 0.47255798E+00 0.23484553E+04</pdfrwt>
<pdfrwt beam="2">  1       -1 0.69059399E-01 0.23484553E+04</pdfrwt>
<totfact> 0.10118341E+00</totfact>
</mgrwt>
</event>
<event>
12    3  0.4769008E-008  0.1364942E+04  0.7818608E-02  0.8979594E-01
          2   -1    0    0  501    0  0.00000000000E+00  0.00000000000E+00  0.46220977515E+03  0.46220977515E+03  0.00000000000E+00 0. -1.
         -2   -1    0    0    0  501 -0.00000000000E+00 -0.00000000000E+00 -0.10076952524E+04  0.10076952524E+04  0.00000000000E+00 0.  1.
         23    2    1    2    0    0  0.31614350311E+03 -0.39780752610E+00  0.78420570653E+02  0.33822973276E+03  0.91119116616E+02 0.  0.
        254    2    1    2    0    0 -0.31614350311E+03  0.39780752610E+00 -0.62390604794E+03  0.11316752948E+04  0.88965349628E+03 0.  0.
         23    2    4    4    0    0 -0.24267025150E+03 -0.42800822718E+03 -0.30474574642E+03  0.58475991719E+03  0.83631915494E+02 0.  0.
         23    2    4    4    0    0 -0.73473251608E+02  0.42840603471E+03 -0.31916030152E+03  0.54691537763E+03  0.91230931970E+02 0.  0.
          1    1    3    3  502    0  0.31207431940E+03 -0.15120716826E+02  0.80926000313E+02  0.32275073111E+03  0.00000000000E+00 0. -1.
         -1    1    3    3    0  502  0.40691837099E+01  0.14722909300E+02 -0.25054296592E+01  0.15479001650E+02  0.00000000000E+00 0.  1.
         13    1    5    5    0    0 -0.13667024484E+03 -0.17202182157E+03 -0.10706887141E+03  0.24440541350E+03  0.00000000000E+00 0.  1.
        -13    1    5    5    0    0 -0.10600000666E+03 -0.25598640561E+03 -0.19767687501E+03  0.34035450369E+03  0.00000000000E+00 0. -1.
          4    1    6    6  503    0 -0.53461836491E+02  0.28969515327E+03 -0.16143213550E+03  0.33591931198E+03  0.00000000000E+00 0. -1.
         -4    1    6    6    0  503 -0.20011415117E+02  0.13871088144E+03 -0.15772816602E+03  0.21099606565E+03  0.00000000000E+00 0.  1.
<mgrwt>
<rscale>  0 0.13649419E+04</rscale>
<asrwt>0</asrwt>
<pdfrwt beam="1">  1        2 0.71109196E-01 0.13649419E+04</pdfrwt>
<pdfrwt beam="2">  1       -2 0.15503004E+00 0.13649419E+04</pdfrwt>
<totfact> 0.18038000E+01</totfact>
</mgrwt>
</event>
<event>
12    3  0.4769008E-008  0.1753935E+04  0.7818608E-02  0.8731187E-01
         -2   -1    0    0    0  501 -0.00000000000E+00  0.00000000000E+00  0.36090247250E+03  0.36090247250E+03  0.00000000000E+00 0.  1.
          2   -1    0    0  501    0  0.00000000000E+00 -0.00000000000E+00 -0.21309701217E+04  0.21309701217E+04  0.00000000000E+00 0. -1.
         23    2    1    2    0    0  0.17279665209E+03  0.40759391616E+03  0.66420137907E+01  0.45289232240E+03  0.95267286466E+02 0.  0.
        254    2    1    2    0    0 -0.17279665209E+03 -0.40759391616E+03 -0.17767096630E+04  0.20389802718E+04  0.89707961675E+03 0.  0.
         23    2    4    4    0    0 -0.11001571698E+03  0.27305343815E+03 -0.64521923823E+03  0.71407949863E+03  0.83306823955E+02 0.  0.
         23    2    4    4    0    0 -0.62780935105E+02 -0.68064735431E+03 -0.11314904247E+04  0.13249007732E+04  0.88708571675E+02 0.  0.
          1    1    3    3  502    0  0.52117372830E+02  0.24362599715E+03  0.87367824165E+01  0.24929135245E+03  0.00000000000E+00 0. -1.
         -1    1    3    3    0  502  0.12067927926E+03  0.16396791901E+03 -0.20947686258E+01  0.20360096995E+03  0.00000000000E+00 0.  1.
         13    1    5    5    0    0 -0.29146605183E+01  0.98045347285E+02 -0.16653366483E+03  0.19327402022E+03  0.00000000000E+00 0. -1.
        -13    1    5    5    0    0 -0.10710105646E+03  0.17500809086E+03 -0.47868557340E+03  0.52080547841E+03  0.00000000000E+00 0.  1.
          2    1    6    6  503    0 -0.23552801358E+02 -0.15024587860E+03 -0.32511615521E+03  0.35892767080E+03  0.00000000000E+00 0. -1.
         -2    1    6    6    0  503 -0.39228133747E+02 -0.53040147571E+03 -0.80637426953E+03  0.96597310236E+03  0.00000000000E+00 0.  1.
<mgrwt>
<rscale>  0 0.17539354E+04</rscale>
<asrwt>0</asrwt>
<pdfrwt beam="1">  1        2 0.32784155E+00 0.17539354E+04</pdfrwt>
<pdfrwt beam="2">  1       -2 0.55523458E-01 0.17539354E+04</pdfrwt>
<totfact> 0.16310994E+01</totfact>
</mgrwt>
</event>
<event>
12    3  0.4769008E-008  0.1933278E+04  0.7818608E-02  0.8638467E-01
         -2   -1    0    0    0  501 -0.00000000000E+00  0.00000000000E+00  0.10457526849E+04  0.10457526849E+04  0.00000000000E+00 0.  1.
          2   -1    0    0  501    0  0.00000000000E+00 -0.00000000000E+00 -0.89351005256E+03  0.89351005256E+03  0.00000000000E+00 0. -1.
         23    2    1    2    0    0 -0.28078060822E+03 -0.19691317517E+03  0.73316391151E+03  0.81447998432E+03  0.90751171986E+02 0.  0.
        254    2    1    2    0    0  0.28078060822E+03  0.19691317517E+03 -0.58092127922E+03  0.11247827531E+04  0.90003008865E+03 0.  0.
         23    2    4    4    0    0 -0.12025802666E+03  0.37405964286E+03 -0.54122018706E+03  0.67498136678E+03  0.91093058004E+02 0.  0.
         23    2    4    4    0    0  0.40103863487E+03 -0.17714646769E+03 -0.39701092152E+02  0.44980138631E+03  0.92370193943E+02 0.  0.
          1    1    3    3  502    0 -0.18446020614E+03 -0.15094271301E+03  0.58660268943E+03  0.63317610939E+03  0.00000000000E+00 0.  1.
         -1    1    3    3    0  502 -0.96320402073E+02 -0.45970462159E+02  0.14656122208E+03  0.18130387493E+03  0.00000000000E+00 0. -1.
         13    1    5    5    0    0 -0.91321527013E+02  0.31285018776E+03 -0.38307355594E+03  0.50295149919E+03  0.00000000000E+00 0. -1.
        -13    1    5    5    0    0 -0.28936499643E+02  0.61209455101E+02 -0.15814663113E+03  0.17202986759E+03  0.00000000000E+00 0.  1.
          3    1    6    6  503    0  0.32805921817E+03 -0.15360197124E+03  0.25531493690E+01  0.36224706315E+03  0.00000000000E+00 0. -1.
         -3    1    6    6    0  503  0.72979416708E+02 -0.23544496450E+02 -0.42254241521E+02  0.87554323152E+02  0.00000000000E+00 0.  1.
<mgrwt>
<rscale>  0 0.19332776E+04</rscale>
<asrwt>0</asrwt>
<pdfrwt beam="1">  1        2 0.13746309E+00 0.19332776E+04</pdfrwt>
<pdfrwt beam="2">  1       -2 0.16088503E+00 0.19332776E+04</pdfrwt>
<totfact> 0.68630707E+00</totfact>
</mgrwt>
</event>
<event>
12    3  0.4769008E-008  0.1575719E+04  0.7818608E-02  0.8835605E-01
         -2   -1    0    0    0  501 -0.00000000000E+00  0.00000000000E+00  0.16449118526E+04  0.16449118526E+04  0.00000000000E+00 0.  1.
          2   -1    0    0  501    0  0.00000000000E+00 -0.00000000000E+00 -0.37735919201E+03  0.37735919201E+03  0.00000000000E+00 0. -1.
         23    2    1    2    0    0 -0.37133348057E+03  0.24502679625E+03  0.66375027632E+02  0.45915135517E+03  0.92128377752E+02 0.  0.
        254    2    1    2    0    0  0.37133348057E+03 -0.24502679625E+03  0.12011776330E+04  0.15631196895E+04  0.89587319022E+03 0.  0.
         23    2    4    4    0    0  0.30314482643E+03  0.26847597314E+03  0.27502005506E+03  0.49797093881E+03  0.91448845073E+02 0.  0.
         23    2    4    4    0    0  0.68188654138E+02 -0.51350276939E+03  0.92615757791E+03  0.10651487507E+04  0.91865201063E+02 0.  0.
          4    1    3    3  502    0 -0.32518470820E+03  0.23476063033E+03  0.35397631653E+02  0.40262965654E+03  0.00000000000E+00 0. -1.
         -4    1    3    3    0  502 -0.46148772373E+02  0.10266165917E+02  0.30977395978E+02  0.56521698628E+02  0.00000000000E+00 0.  1.
         13    1    5    5    0    0  0.14244450339E+03  0.16643562578E+03  0.18793933834E+03  0.28863895955E+03  0.00000000000E+00 0. -1.
        -13    1    5    5    0    0  0.16070032304E+03  0.10204034736E+03  0.87080716717E+02  0.20933197925E+03  0.00000000000E+00 0.  1.
          4    1    6    6  503    0 -0.10514948115E+02 -0.60574188463E+01  0.28768658416E+02  0.31223263186E+02  0.00000000000E+00 0. -1.
         -4    1    6    6    0  503  0.78703602253E+02 -0.50744535054E+03  0.89738891950E+03  0.10339254875E+04  0.00000000000E+00 0.  1.
<mgrwt>
<rscale>  0 0.15757190E+04</rscale>
<asrwt>0</asrwt>
<pdfrwt beam="1">  1        2 0.58055261E-01 0.15757190E+04</pdfrwt>
<pdfrwt beam="2">  1       -2 0.25306336E+00 0.15757190E+04</pdfrwt>
<totfact> 0.50225023E+00</totfact>
</mgrwt>
</event>
<event>
12    3  0.4769008E-008  0.1622882E+04  0.7818608E-02  0.8806613E-01
         -1   -1    0    0    0  501 -0.00000000000E+00  0.00000000000E+00  0.10251787666E+04  0.10251787666E+04  0.00000000000E+00 0.  1.
          1   -1    0    0  501    0  0.00000000000E+00 -0.00000000000E+00 -0.64226526218E+03  0.64226526218E+03  0.00000000000E+00 0. -1.
         23    2    1    2    0    0 -0.25914629966E+03 -0.44943843040E+03  0.33718672987E+03  0.62558968544E+03  0.92281397852E+02 0.  0.
        254    2    1    2    0    0  0.25914629966E+03  0.44943843040E+03  0.45726774504E+02  0.10418543433E+04  0.90234019493E+03 0.  0.
         23    2    4    4    0    0  0.35417381188E+03  0.12193038697E+02  0.33870258753E+03  0.49952002666E+03  0.95984660313E+02 0.  0.
         23    2    4    4    0    0 -0.95027512225E+02  0.43724539170E+03 -0.29297581303E+03  0.54233431663E+03  0.89877268181E+02 0.  0.
          3    1    3    3  502    0 -0.96865385657E+01 -0.14057505341E+02  0.37303521989E+02  0.41024324962E+02  0.00000000000E+00 0. -1.
         -3    1    3    3    0  502 -0.24945976109E+03 -0.43538092505E+03  0.29988320788E+03  0.58456536048E+03  0.00000000000E+00 0.  1.
         13    1    5    5    0    0  0.85786948436E+01 -0.36086165177E+01 -0.60612245775E+01  0.11106509882E+02  0.00000000000E+00 0. -1.
        -13    1    5    5    0    0  0.34559511704E+03  0.15801655215E+02  0.34476381211E+03  0.48841351677E+03  0.00000000000E+00 0.  1.
          3    1    6    6  503    0  0.16014908882E+02  0.10144083718E+03 -0.66958776457E+02  0.12259771001E+03  0.00000000000E+00 0. -1.
         -3    1    6    6    0  503 -0.11104242111E+03  0.33580455452E+03 -0.22601703657E+03  0.41973660662E+03  0.00000000000E+00 0.  1.
<mgrwt>
<rscale>  0 0.16228823E+04</rscale>
<asrwt>0</asrwt>
<pdfrwt beam="1">  1        1 0.98810040E-01 0.16228823E+04</pdfrwt>
<pdfrwt beam="2">  1       -1 0.15771981E+00 0.16228823E+04</pdfrwt>
<totfact> 0.90308218E+00</totfact>
</mgrwt>
</event>
<event>
12    3  0.4769008E-008  0.1865379E+04  0.7818608E-02  0.8672284E-01
          1   -1    0    0  501    0  0.00000000000E+00  0.00000000000E+00  0.83367071527E+03  0.83367071527E+03  0.00000000000E+00 0. -1.
         -1   -1    0    0    0  501 -0.00000000000E+00 -0.00000000000E+00 -0.10434696047E+04  0.10434696047E+04  0.00000000000E+00 0.  1.
         23    2    1    2    0    0 -0.62008356229E+03  0.17814995768E+03  0.21107721117E+03  0.68530756319E+03  0.94084193390E+02 0.  0.
        254    2    1    2    0    0  0.62008356229E+03 -0.17814995768E+03 -0.42087610057E+03  0.11918327567E+04  0.90944356414E+03 0.  0.
         23    2    4    4    0    0 -0.10694241474E+03 -0.29669306241E+03 -0.28915551541E+03  0.43767487809E+03  0.92113698544E+02 0.  0.
         23    2    4    4    0    0  0.72702597703E+03  0.11854310473E+03 -0.13172058516E+03  0.75415787866E+03  0.93725953867E+02 0.  0.
          2    1    3    3  502    0 -0.43935958387E+03  0.13249933175E+03  0.10472774450E+03  0.47070247219E+03  0.00000000000E+00 0. -1.
         -2    1    3    3    0  502 -0.18072397842E+03  0.45650625931E+02  0.10634946667E+03  0.21460509100E+03  0.00000000000E+00 0.  1.
         13    1    5    5    0    0 -0.92951465724E+02 -0.21061930783E+03 -0.15452464045E+03  0.27726942189E+03  0.00000000000E+00 0. -1.
        -13    1    5    5    0    0 -0.13990949015E+02 -0.86073754580E+02 -0.13463087497E+03  0.16040545619E+03  0.00000000000E+00 0.  1.
          2    1    6    6  503    0  0.28709254022E+03  0.65955567744E+00 -0.48314346929E+02  0.29113027631E+03  0.00000000000E+00 0.  1.
         -2    1    6    6    0  503  0.43993343681E+03  0.11788354905E+03 -0.83406238228E+02  0.46302760235E+03  0.00000000000E+00 0. -1.
<mgrwt>
<rscale>  0 0.18653794E+04</rscale>
<asrwt>0</asrwt>
<pdfrwt beam="1">  1        1 0.12825703E+00 0.18653794E+04</pdfrwt>
<pdfrwt beam="2">  1       -1 0.16053378E+00 0.18653794E+04</pdfrwt>
<totfact> 0.56180712E+00</totfact>
</mgrwt>
</event>
<event>
12    3  0.4769008E-008  0.1360296E+04  0.7818608E-02  0.8983071E-01
          2   -1    0    0  501    0  0.00000000000E+00  0.00000000000E+00  0.16609869344E+04  0.16609869344E+04  0.00000000000E+00 0. -1.
         -2   -1    0    0    0  501 -0.00000000000E+00 -0.00000000000E+00 -0.27850988524E+03  0.27850988524E+03  0.00000000000E+00 0.  1.
         23    2    1    2    0    0 -0.37294937206E+02 -0.31491537242E+03  0.68045966116E+03  0.75623576870E+03  0.91129486265E+02 0.  0.
        254    2    1    2    0    0  0.37294937206E+02  0.31491537242E+03  0.70201738798E+03  0.11832610509E+04  0.89817353415E+03 0.  0.
         23    2    4    4    0    0 -0.24867286587E+02 -0.21689332131E+03 -0.63039357897E+02  0.24491266018E+03  0.91362769769E+02 0.  0.
         23    2    4    4    0    0  0.62162223793E+02  0.53180869374E+03  0.76505674587E+03  0.93834839073E+03  0.92202218886E+02 0.  0.
          3    1    3    3  502    0 -0.66339485589E+02 -0.19086793359E+03  0.39725230212E+03  0.44569147059E+03  0.00000000000E+00 0. -1.
         -3    1    3    3    0  502  0.29044548383E+02 -0.12404743883E+03  0.28320735904E+03  0.31054429811E+03  0.00000000000E+00 0.  1.
         13    1    5    5    0    0  0.27312285455E+02 -0.24445719694E+02 -0.16280357964E+02  0.40107408337E+02  0.00000000000E+00 0. -1.
        -13    1    5    5    0    0 -0.52179572042E+02 -0.19244760162E+03 -0.46758999933E+02  0.20480525184E+03  0.00000000000E+00 0.  1.
          3    1    6    6  503    0 -0.18149577763E+02  0.31674631409E+02  0.44432476452E+02  0.57505951097E+02  0.00000000000E+00 0. -1.
         -3    1    6    6    0  503  0.80311801556E+02  0.50013406233E+03  0.72062426942E+03  0.88084243963E+03  0.00000000000E+00 0.  1.
<mgrwt>
<rscale>  0 0.13602960E+04</rscale>
<asrwt>0</asrwt>
<pdfrwt beam="1">  1        2 0.25553644E+00 0.13602960E+04</pdfrwt>
<pdfrwt beam="2">  1       -2 0.42847676E-01 0.13602960E+04</pdfrwt>
<totfact> 0.51957767E+01</totfact>
</mgrwt>
</event>
<event>
12    3  0.4769008E-008  0.1261995E+04  0.7818608E-02  0.9060258E-01
         -1   -1    0    0    0  501 -0.00000000000E+00  0.00000000000E+00  0.79414979248E+03  0.79414979248E+03  0.00000000000E+00 0.  1.
          1   -1    0    0  501    0  0.00000000000E+00 -0.00000000000E+00 -0.50136389937E+03  0.50136389937E+03  0.00000000000E+00 0. -1.
         23    2    1    2    0    0  0.21680997024E+03  0.16786084713E+03 -0.58317671049E+02  0.29463791538E+03  0.90701285678E+02 0.  0.
        254    2    1    2    0    0 -0.21680997024E+03 -0.16786084713E+03  0.35110356416E+03  0.10008757765E+04  0.89626713650E+03 0.  0.
         23    2    4    4    0    0  0.58127853049E+02 -0.48741721222E+03  0.13056174508E+03  0.51614533769E+03  0.91680173788E+02 0.  0.
         23    2    4    4    0    0 -0.27493782329E+03  0.31955636509E+03  0.22054181908E+03  0.48473043879E+03  0.92832252899E+02 0.  0.
          1    1    3    3  502    0  0.10163422617E+03  0.52205881611E+02 -0.64673014827E+02  0.13129192226E+03  0.00000000000E+00 0. -1.
         -1    1    3    3    0  502  0.11517574408E+03  0.11565496552E+03  0.63553437781E+01  0.16334599312E+03  0.00000000000E+00 0.  1.
         13    1    5    5    0    0 -0.86965413725E+01 -0.66048885735E+02 -0.90899834029E+01  0.67236247195E+02  0.00000000000E+00 0.  1.
        -13    1    5    5    0    0  0.66824394422E+02 -0.42136832649E+03  0.13965172848E+03  0.44890909049E+03  0.00000000000E+00 0. -1.
          4    1    6    6  503    0 -0.69811602915E+00 -0.26803738032E+01  0.13269661479E+02  0.13555651423E+02  0.00000000000E+00 0.  1.
         -4    1    6    6    0  503 -0.27423970726E+03  0.32223673890E+03  0.20727215760E+03  0.47117478737E+03  0.00000000000E+00 0. -1.
<mgrwt>
<rscale>  0 0.12619953E+04</rscale>
<asrwt>0</asrwt>
<pdfrwt beam="1">  1        1 0.77132907E-01 0.12619953E+04</pdfrwt>
<pdfrwt beam="2">  1       -1 0.12217689E+00 0.12619953E+04</pdfrwt>
<totfact> 0.25776828E+01</totfact>
</mgrwt>
</event>
<event>
12    3  0.4769008E-008  0.1426756E+04  0.7818608E-02  0.8934676E-01
          2   -1    0    0  501    0  0.00000000000E+00  0.00000000000E+00  0.64784330261E+03  0.64784330261E+03  0.00000000000E+00 0. -1.
         -2   -1    0    0    0  501 -0.00000000000E+00 -0.00000000000E+00 -0.78554226014E+03  0.78554226014E+03  0.00000000000E+00 0.  1.
         23    2    1    2    0    0  0.13360976198E+03  0.13494631075E+03  0.34335009553E+03  0.40291619951E+03  0.91597491471E+02 0.  0.
        254    2    1    2    0    0 -0.13360976198E+03 -0.13494631075E+03 -0.48104905306E+03  0.10304693632E+04  0.89128942653E+03 0.  0.
         23    2    4    4    0    0  0.26720076786E+03  0.80965159553E+01 -0.52171187324E+03  0.59329036843E+03  0.91369462516E+02 0.  0.
         23    2    4    4    0    0 -0.40081052983E+03 -0.14304282671E+03  0.40662820184E+02  0.43717899481E+03  0.91442208291E+02 0.  0.
          2    1    3    3  502    0  0.11465718448E+03  0.90930638402E+02  0.31475662161E+03  0.34711148324E+03  0.00000000000E+00 0. -1.
         -2    1    3    3    0  502  0.18952577501E+02  0.44015672351E+02  0.28593473918E+02  0.55804716263E+02  0.00000000000E+00 0.  1.
         13    1    5    5    0    0  0.10436185493E+03  0.40662478533E+02 -0.26314090118E+03  0.28598595734E+03  0.00000000000E+00 0. -1.
        -13    1    5    5    0    0  0.16283891292E+03 -0.32565962577E+02 -0.25857097207E+03  0.30730441109E+03  0.00000000000E+00 0.  1.
          3    1    6    6  503    0 -0.17185272566E+03 -0.62627975495E+02  0.63071142533E+02  0.19347762571E+03  0.00000000000E+00 0. -1.
         -3    1    6    6    0  503 -0.22895780417E+03 -0.80414851213E+02 -0.22408322348E+02  0.24370136909E+03  0.00000000000E+00 0.  1.
<mgrwt>
<rscale>  0 0.14267562E+04</rscale>
<asrwt>0</asrwt>
<pdfrwt beam="1">  1        2 0.99668200E-01 0.14267562E+04</pdfrwt>
<pdfrwt beam="2">  1       -2 0.12085266E+00 0.14267562E+04</pdfrwt>
<totfact> 0.22877340E+01</totfact>
</mgrwt>
</event>
<event>
12    3  0.4769008E-008  0.2876649E+04  0.7818608E-02  0.8279859E-01
         -2   -1    0    0    0  501 -0.00000000000E+00  0.00000000000E+00  0.98625281667E+03  0.98625281667E+03  0.00000000000E+00 0.  1.
          2   -1    0    0  501    0  0.00000000000E+00 -0.00000000000E+00 -0.20976139958E+04  0.20976139958E+04  0.00000000000E+00 0. -1.
         23    2    1    2    0    0  0.14755442262E+03  0.39894412512E+03  0.80770750027E+03  0.91730205134E+03  0.90127270090E+02 0.  0.
        254    2    1    2    0    0 -0.14755442262E+03 -0.39894412512E+03 -0.19190686794E+04  0.21665647611E+04  0.91118030338E+03 0.  0.
         23    2    4    4    0    0 -0.27585986399E+03 -0.63404502222E+03 -0.15588254520E+04  0.17081909835E+04  0.99337262056E+02 0.  0.
         23    2    4    4    0    0  0.12830544137E+03  0.23510089710E+03 -0.36024322737E+03  0.45837377757E+03  0.92717953993E+02 0.  0.
          3    1    3    3  502    0  0.25995624606E+02  0.14296675177E+02  0.37190748441E+02  0.47574354325E+02  0.00000000000E+00 0. -1.
         -3    1    3    3    0  502  0.12155879802E+03  0.38464744994E+03  0.77051675183E+03  0.86972769702E+03  0.00000000000E+00 0.  1.
         13    1    5    5    0    0 -0.20954786136E+03 -0.55152166780E+03 -0.12633817481E+04  0.13943528598E+04  0.00000000000E+00 0. -1.
        -13    1    5    5    0    0 -0.66312002632E+02 -0.82523354420E+02 -0.29544370390E+03  0.31383812371E+03  0.00000000000E+00 0.  1.
          1    1    6    6  503    0  0.96331503929E+02  0.22556219873E+03 -0.28465017688E+03  0.37574431112E+03  0.00000000000E+00 0. -1.
         -1    1    6    6    0  503  0.31973937442E+02  0.95386983709E+01 -0.75593050492E+02  0.82629466444E+02  0.00000000000E+00 0.  1.
<mgrwt>
<rscale>  0 0.28766492E+04</rscale>
<asrwt>0</asrwt>
<pdfrwt beam="1">  1        2 0.32270985E+00 0.28766492E+04</pdfrwt>
<pdfrwt beam="2">  1       -2 0.15173120E+00 0.28766492E+04</pdfrwt>
<totfact> 0.14811870E+00</totfact>
</mgrwt>
</event>
<event>
12    3  0.4769008E-008  0.1476989E+04  0.7818608E-02  0.8899901E-01
         -1   -1    0    0    0  501 -0.00000000000E+00  0.00000000000E+00  0.14180313605E+04  0.14180313605E+04  0.00000000000E+00 0.  1.
          1   -1    0    0  501    0  0.00000000000E+00 -0.00000000000E+00 -0.38459948274E+03  0.38459948274E+03  0.00000000000E+00 0. -1.
         23    2    1    2    0    0 -0.28076851046E+01  0.43258307536E+03  0.15311928677E+03  0.46794593545E+03  0.91607217699E+02 0.  0.
        254    2    1    2    0    0  0.28076851046E+01 -0.43258307536E+03  0.88031259094E+03  0.13346849078E+04  0.90515056484E+03 0.  0.
         23    2    4    4    0    0 -0.33239956330E+03 -0.52604610574E+03  0.44550456168E+03  0.77073612658E+03  0.91355827894E+02 0.  0.
         23    2    4    4    0    0  0.33520724840E+03  0.93463030376E+02  0.43480802926E+03  0.56394878118E+03  0.88774816547E+02 0.  0.
          2    1    3    3  502    0  0.29582275831E+02  0.37026778861E+03  0.13685535821E+03  0.39585696330E+03  0.00000000000E+00 0. -1.
         -2    1    3    3    0  502 -0.32389960935E+02  0.62315286756E+02  0.16263928560E+02  0.72088972146E+02  0.00000000000E+00 0.  1.
         13    1    5    5    0    0 -0.28614480371E+03 -0.39074768465E+03  0.36663309413E+03  0.60743923767E+03  0.00000000000E+00 0. -1.
        -13    1    5    5    0    0 -0.46254759591E+02 -0.13529842109E+03  0.78871467549E+02  0.16329688891E+03  0.00000000000E+00 0.  1.
          2    1    6    6  503    0  0.36412579193E+02  0.25685918245E+02  0.10351242135E+03  0.11269633399E+03  0.00000000000E+00 0.  1.
         -2    1    6    6    0  503  0.29879466921E+03  0.67777112132E+02  0.33129560791E+03  0.45125244719E+03  0.00000000000E+00 0. -1.
<mgrwt>
<rscale>  0 0.14769890E+04</rscale>
<asrwt>0</asrwt>
<pdfrwt beam="1">  1        1 0.59169152E-01 0.14769890E+04</pdfrwt>
<pdfrwt beam="2">  1       -1 0.21815867E+00 0.14769890E+04</pdfrwt>
<totfact> 0.69372914E+00</totfact>
</mgrwt>
</event>
<event>
12    3  0.4769008E-008  0.1485235E+04  0.7818608E-02  0.8894331E-01
         -2   -1    0    0    0  501 -0.00000000000E+00  0.00000000000E+00  0.27647959387E+03  0.27647959387E+03  0.00000000000E+00 0.  1.
          2   -1    0    0  501    0  0.00000000000E+00 -0.00000000000E+00 -0.19946534691E+04  0.19946534691E+04  0.00000000000E+00 0. -1.
         23    2    1    2    0    0  0.47532763942E+03  0.10775328230E+03 -0.65682985437E+03  0.82313648942E+03  0.92634162034E+02 0.  0.
        254    2    1    2    0    0 -0.47532763942E+03 -0.10775328230E+03 -0.10613440208E+04  0.14479965735E+04  0.85597652523E+03 0.  0.
         23    2    4    4    0    0 -0.46331551580E+03 -0.34904487928E+02 -0.11844015227E+04  0.12756180477E+04  0.92275924025E+02 0.  0.
         23    2    4    4    0    0 -0.12012123613E+02 -0.72848794374E+02  0.12305750189E+03  0.17237852582E+03  0.95498531080E+02 0.  0.
          3    1    3    3  502    0  0.28143270894E+03  0.93074692865E+02 -0.45358833636E+03  0.54185758922E+03  0.00000000000E+00 0. -1.
         -3    1    3    3    0  502  0.19389493048E+03  0.14678589437E+02 -0.20324151801E+03  0.28127890020E+03  0.00000000000E+00 0.  1.
         13    1    5    5    0    0 -0.18821855145E+03 -0.59171715854E+02 -0.51355266624E+03  0.55014893990E+03  0.00000000000E+00 0.  1.
        -13    1    5    5    0    0 -0.27509696436E+03  0.24267227927E+02 -0.67084885647E+03  0.72546910781E+03  0.00000000000E+00 0. -1.
          4    1    6    6  503    0 -0.37193282782E+02 -0.70022514672E+02  0.46908785947E+02  0.92124519234E+02  0.00000000000E+00 0. -1.
         -4    1    6    6    0  503  0.25181159169E+02 -0.28262797016E+01  0.76148715939E+02  0.80254006587E+02  0.00000000000E+00 0.  1.
<mgrwt>
<rscale>  0 0.14852353E+04</rscale>
<asrwt>0</asrwt>
<pdfrwt beam="1">  1        2 0.30686977E+00 0.14852353E+04</pdfrwt>
<pdfrwt beam="2">  1       -2 0.42535322E-01 0.14852353E+04</pdfrwt>
<totfact> 0.34105902E+01</totfact>
</mgrwt>
</event>
<event>
12    3  0.4769008E-008  0.1314192E+04  0.7818608E-02  0.9018386E-01
          2   -1    0    0  501    0  0.00000000000E+00  0.00000000000E+00  0.32823717924E+04  0.32823717924E+04  0.00000000000E+00 0. -1.
         -2   -1    0    0    0  501 -0.00000000000E+00 -0.00000000000E+00 -0.13154367283E+03  0.13154367283E+03  0.00000000000E+00 0.  1.
         23    2    1    2    0    0 -0.11487709219E+03 -0.21010270936E+03  0.22008825220E+03  0.33920831555E+03  0.96351169135E+02 0.  0.
        254    2    1    2    0    0  0.11487709219E+03  0.21010270936E+03  0.29307398673E+04  0.30747071496E+04  0.89846980545E+03 0.  0.
         23    2    4    4    0    0 -0.13089129364E+03 -0.23226035498E+03  0.38254011640E+03  0.47515242685E+03  0.91408341190E+02 0.  0.
         23    2    4    4    0    0  0.24576838583E+03  0.44236306434E+03  0.25481997509E+04  0.25995547228E+04  0.90970357589E+02 0.  0.
          4    1    3    3  502    0  0.13412268682E+02 -0.61475543307E+01  0.33648518179E+01  0.15132865003E+02  0.00000000000E+00 0. -1.
         -4    1    3    3    0  502 -0.12828936087E+03 -0.20395515503E+03  0.21672340038E+03  0.32407545055E+03  0.00000000000E+00 0.  1.
         13    1    5    5    0    0 -0.11728126206E+03 -0.12809785766E+03  0.27148341972E+03  0.32228435077E+03  0.00000000000E+00 0. -1.
        -13    1    5    5    0    0 -0.13610031584E+02 -0.10416249732E+03  0.11105669668E+03  0.15286807608E+03  0.00000000000E+00 0.  1.
          1    1    6    6  503    0  0.16472083306E+03  0.26252011312E+03  0.17577544353E+04  0.17848670588E+04  0.00000000000E+00 0. -1.
         -1    1    6    6    0  503  0.81047552775E+02  0.17984295122E+03  0.79044531562E+03  0.81468766402E+03  0.00000000000E+00 0.  1.
<mgrwt>
<rscale>  0 0.13141921E+04</rscale>
<asrwt>0</asrwt>
<pdfrwt beam="1">  1        2 0.50498022E+00 0.13141921E+04</pdfrwt>
<pdfrwt beam="2">  1       -2 0.20237491E-01 0.13141921E+04</pdfrwt>
<totfact> 0.23837455E+01</totfact>
</mgrwt>
</event>
<event>
12    3  0.4769008E-008  0.1132128E+04  0.7818608E-02  0.9174431E-01
          2   -1    0    0  501    0  0.00000000000E+00  0.00000000000E+00  0.21486438872E+04  0.21486438872E+04  0.00000000000E+00 0. -1.
         -2   -1    0    0    0  501 -0.00000000000E+00 -0.00000000000E+00 -0.14913067108E+03  0.14913067108E+03  0.00000000000E+00 0.  1.
         23    2    1    2    0    0 -0.95398066329E+02  0.70339760389E+01  0.47331972391E+02  0.14302858059E+03  0.95218650368E+02 0.  0.
        254    2    1    2    0    0  0.95398066329E+02 -0.70339760389E+01  0.19521812437E+04  0.21547459777E+04  0.90706579260E+03 0.  0.
         23    2    4    4    0    0 -0.24854069222E+03  0.11970014969E+03  0.17747858181E+03  0.34060158328E+03  0.91707088093E+02 0.  0.
         23    2    4    4    0    0  0.34393875855E+03 -0.12673412572E+03  0.17747026619E+04  0.18141443944E+04  0.84822976161E+02 0.  0.
          4    1    3    3  502    0  0.38142466370E+01  0.48602028864E+01 -0.21426472727E+02  0.22299412168E+02  0.00000000000E+00 0.  1.
         -4    1    3    3    0  502 -0.99212312966E+02  0.21737731526E+01  0.68758445118E+02  0.12072916843E+03  0.00000000000E+00 0. -1.
         13    1    5    5    0    0 -0.11609025745E+03  0.33294291117E+02  0.30175753034E+02  0.12448306618E+03  0.00000000000E+00 0.  1.
        -13    1    5    5    0    0 -0.13245043477E+03  0.86405858568E+02  0.14730282878E+03  0.21611851710E+03  0.00000000000E+00 0. -1.
          1    1    6    6  503    0  0.32536399558E+03 -0.11164354413E+03  0.17252126497E+04  0.17591715940E+04  0.00000000000E+00 0. -1.
         -1    1    6    6    0  503  0.18574762971E+02 -0.15090581591E+02  0.49490012271E+02  0.54972800427E+02  0.00000000000E+00 0.  1.
<mgrwt>
<rscale>  0 0.11321284E+04</rscale>
<asrwt>0</asrwt>
<pdfrwt beam="1">  1        2 0.33056058E+00 0.11321284E+04</pdfrwt>
<pdfrwt beam="2">  1       -2 0.22943182E-01 0.11321284E+04</pdfrwt>
<totfact> 0.91903784E+01</totfact>
</mgrwt>
</event>
<event>
12    3  0.4769008E-008  0.3162377E+04  0.7818608E-02  0.8198825E-01
          2   -1    0    0  501    0  0.00000000000E+00  0.00000000000E+00  0.19953391768E+04  0.19953391768E+04  0.00000000000E+00 0. -1.
         -2   -1    0    0    0  501 -0.00000000000E+00 -0.00000000000E+00 -0.12529984719E+04  0.12529984719E+04  0.00000000000E+00 0.  1.
         23    2    1    2    0    0  0.25381565961E+03 -0.13714931661E+04 -0.74785612948E+02  0.13996584258E+04  0.89637756476E+02 0.  0.
        254    2    1    2    0    0 -0.25381565961E+03  0.13714931661E+04  0.81712631785E+03  0.18486792228E+04  0.89694122210E+03 0.  0.
         23    2    4    4    0    0  0.32578112932E+03  0.56167924343E+03  0.38226895071E+03  0.75905981123E+03  0.91789594393E+02 0.  0.
         23    2    4    4    0    0 -0.57959678893E+03  0.80981392264E+03  0.43485736714E+03  0.10896194116E+04  0.80240297176E+02 0.  0.
          4    1    3    3  502    0  0.23339158200E+02 -0.33613059856E+03 -0.15333905552E+02  0.33728863641E+03  0.00000000000E+00 0. -1.
         -4    1    3    3    0  502  0.23047650141E+03 -0.10353625675E+04 -0.59451707397E+02  0.10623697894E+04  0.00000000000E+00 0.  1.
         13    1    5    5    0    0  0.11159176061E+03  0.12817605142E+03  0.72172142545E+02  0.18463650601E+03  0.00000000000E+00 0.  1.
        -13    1    5    5    0    0  0.21418936871E+03  0.43350319200E+03  0.31009680816E+03  0.57442330522E+03  0.00000000000E+00 0. -1.
          3    1    6    6  503    0 -0.33979554009E+03  0.51341439961E+03  0.30307681608E+03  0.68622948876E+03  0.00000000000E+00 0. -1.
         -3    1    6    6    0  503 -0.23980124884E+03  0.29639952303E+03  0.13178055107E+03  0.40338992282E+03  0.00000000000E+00 0.  1.
<mgrwt>
<rscale>  0 0.31623769E+04</rscale>
<asrwt>0</asrwt>
<pdfrwt beam="1">  1        2 0.30697526E+00 0.31623769E+04</pdfrwt>
<pdfrwt beam="2">  1       -2 0.19276900E+00 0.31623769E+04</pdfrwt>
<totfact> 0.84325537E-01</totfact>
</mgrwt>
</event>
<event>
12    3  0.4769008E-008  0.3393671E+04  0.7818608E-02  0.8139461E-01
          2   -1    0    0  501    0  0.00000000000E+00  0.00000000000E+00  0.20163771186E+04  0.20163771186E+04  0.00000000000E+00 0. -1.
         -2   -1    0    0    0  501 -0.00000000000E+00 -0.00000000000E+00 -0.14279326411E+04  0.14279326411E+04  0.00000000000E+00 0.  1.
         23    2    1    2    0    0  0.87607151460E+03  0.73989870671E+03 -0.82542674060E+03  0.14158811691E+04  0.91862866115E+02 0.  0.
        254    2    1    2    0    0 -0.87607151460E+03 -0.73989870671E+03  0.14138712181E+04  0.20284285905E+04  0.89472863522E+03 0.  0.
         23    2    4    4    0    0 -0.50010829324E+03 -0.89949227319E+03  0.10451132981E+04  0.14698601790E+04  0.95039388586E+02 0.  0.
         23    2    4    4    0    0 -0.37596322136E+03  0.15959356649E+03  0.36875791994E+03  0.55856841152E+03  0.95905247794E+02 0.  0.
          1    1    3    3  502    0  0.74912746430E+01  0.37195663592E+01 -0.18625479118E+02  0.20417219253E+02  0.00000000000E+00 0. -1.
         -1    1    3    3    0  502  0.86858023995E+03  0.73617914035E+03 -0.80680126148E+03  0.13954639499E+04  0.00000000000E+00 0.  1.
         13    1    5    5    0    0 -0.36269801961E+03 -0.72771590615E+03  0.80388804295E+03  0.11433968161E+04  0.00000000000E+00 0.  1.
        -13    1    5    5    0    0 -0.13741027362E+03 -0.17177636704E+03  0.24122525518E+03  0.32646336289E+03  0.00000000000E+00 0. -1.
          2    1    6    6  503    0 -0.23288432208E+03  0.14707952728E+03  0.25488609926E+03  0.37527912067E+03  0.00000000000E+00 0. -1.
         -2    1    6    6    0  503 -0.14307889928E+03  0.12514039208E+02  0.11387182068E+03  0.18328929085E+03  0.00000000000E+00 0.  1.
<mgrwt>
<rscale>  0 0.33936710E+04</rscale>
<asrwt>0</asrwt>
<pdfrwt beam="1">  1        2 0.31021186E+00 0.33936710E+04</pdfrwt>
<pdfrwt beam="2">  1       -2 0.21968195E+00 0.33936710E+04</pdfrwt>
<totfact> 0.53849055E-01</totfact>
</mgrwt>
</event>
<event>
12    3  0.4769008E-008  0.1470722E+04  0.7818608E-02  0.8904159E-01
         -1   -1    0    0    0  501 -0.00000000000E+00  0.00000000000E+00  0.77832493223E+03  0.77832493223E+03  0.00000000000E+00 0.  1.
          1   -1    0    0  501    0  0.00000000000E+00 -0.00000000000E+00 -0.69476846601E+03  0.69476846601E+03  0.00000000000E+00 0. -1.
         23    2    1    2    0    0 -0.33685606685E+03 -0.11018267898E+03  0.30824911067E+03  0.47822947758E+03  0.89853694812E+02 0.  0.
        254    2    1    2    0    0  0.33685606685E+03  0.11018267898E+03 -0.22469264445E+03  0.99486392065E+03  0.90202838294E+03 0.  0.
         23    2    4    4    0    0  0.24598998879E+03 -0.34322984291E+03  0.71942573783E+02  0.43808295440E+03  0.91777673538E+02 0.  0.
         23    2    4    4    0    0  0.90866078066E+02  0.45341252189E+03 -0.29663521823E+03  0.55678096626E+03  0.90404825849E+02 0.  0.
          4    1    3    3  502    0 -0.24857416039E+02  0.49246084047E+01  0.83559400770E+00  0.25354311614E+02  0.00000000000E+00 0. -1.
         -4    1    3    3    0  502 -0.31199865081E+03 -0.11510728739E+03  0.30741351666E+03  0.45287516596E+03  0.00000000000E+00 0.  1.
         13    1    5    5    0    0  0.23522832814E+03 -0.30906344564E+03  0.40650775474E+02  0.39051896924E+03  0.00000000000E+00 0.  1.
        -13    1    5    5    0    0  0.10761660650E+02 -0.34166397275E+02  0.31291798309E+02  0.47563985158E+02  0.00000000000E+00 0. -1.
          3    1    6    6  503    0  0.88879630015E+01  0.10990010694E+02  0.50958930993E+01  0.15024791108E+02  0.00000000000E+00 0. -1.
         -3    1    6    6    0  503  0.81978115065E+02  0.44242251120E+03 -0.30173111133E+03  0.54175617515E+03  0.00000000000E+00 0.  1.
<mgrwt>
<rscale>  0 0.14707218E+04</rscale>
<asrwt>0</asrwt>
<pdfrwt beam="1">  1        1 0.10688746E+00 0.14707218E+04</pdfrwt>
<pdfrwt beam="2">  1       -1 0.11974230E+00 0.14707218E+04</pdfrwt>
<totfact> 0.16634756E+01</totfact>
</mgrwt>
</event>
<event>
12    3  0.4769008E-008  0.1452670E+04  0.7818608E-02  0.8916552E-01
          2   -1    0    0  501    0  0.00000000000E+00  0.00000000000E+00  0.20182065386E+04  0.20182065386E+04  0.00000000000E+00 0. -1.
         -2   -1    0    0    0  501 -0.00000000000E+00 -0.00000000000E+00 -0.26140150298E+03  0.26140150298E+03  0.00000000000E+00 0.  1.
         23    2    1    2    0    0  0.87836713599E+02  0.42198047376E+03  0.68055293468E+03  0.81092718473E+03  0.93100985689E+02 0.  0.
        254    2    1    2    0    0 -0.87836713599E+02 -0.42198047376E+03  0.10762521010E+04  0.14686808569E+04  0.90162190859E+03 0.  0.
         23    2    4    4    0    0 -0.30698272671E+03  0.66222440472E+02  0.78831512741E+03  0.85392147602E+03  0.95484768331E+02 0.  0.
         23    2    4    4    0    0  0.21914601311E+03 -0.48820291423E+03  0.28793697355E+03  0.61475938086E+03  0.93028678857E+02 0.  0.
          4    1    3    3  502    0  0.10136967820E+03  0.27058650306E+03  0.44929803579E+03  0.53419246743E+03  0.00000000000E+00 0. -1.
         -4    1    3    3    0  502 -0.13532964601E+02  0.15139397071E+03  0.23125489889E+03  0.27673471730E+03  0.00000000000E+00 0.  1.
         13    1    5    5    0    0 -0.65360681808E+02 -0.19137659350E+02  0.11727127056E+03  0.13561275615E+03  0.00000000000E+00 0.  1.
        -13    1    5    5    0    0 -0.24162204490E+03  0.85360099822E+02  0.67104385685E+03  0.71830871987E+03  0.00000000000E+00 0. -1.
          3    1    6    6  503    0  0.80551127907E+02 -0.24020272259E+03  0.91522669681E+02  0.26937377603E+03  0.00000000000E+00 0. -1.
         -3    1    6    6    0  503  0.13859488521E+03 -0.24800019164E+03  0.19641430387E+03  0.34538560483E+03  0.00000000000E+00 0.  1.
<mgrwt>
<rscale>  0 0.14526696E+04</rscale>
<asrwt>0</asrwt>
<pdfrwt beam="1">  1        2 0.31049330E+00 0.14526696E+04</pdfrwt>
<pdfrwt beam="2">  1       -2 0.40215617E-01 0.14526696E+04</pdfrwt>
<totfact> 0.37056298E+01</totfact>
</mgrwt>
</event>
<event>
12    3  0.4769008E-008  0.1734786E+04  0.7818608E-02  0.8741769E-01
         -2   -1    0    0    0  501 -0.00000000000E+00  0.00000000000E+00  0.68323993817E+03  0.68323993817E+03  0.00000000000E+00 0.  1.
          2   -1    0    0  501    0  0.00000000000E+00 -0.00000000000E+00 -0.11011812084E+04  0.11011812084E+04  0.00000000000E+00 0. -1.
         23    2    1    2    0    0  0.25853641467E+03  0.25420931656E+03  0.37847971510E+03  0.53159332325E+03  0.88775628627E+02 0.  0.
        254    2    1    2    0    0 -0.25853641467E+03 -0.25420931656E+03 -0.79642098529E+03  0.12528278233E+04  0.89656439515E+03 0.  0.
         23    2    4    4    0    0 -0.43071575598E+03 -0.17754499366E+03 -0.50408283390E+02  0.47751152979E+03  0.91858471747E+02 0.  0.
         23    2    4    4    0    0  0.17217934130E+03 -0.76664322904E+02 -0.74601270190E+03  0.77531629349E+03  0.95169635809E+02 0.  0.
          1    1    3    3  502    0  0.24097799769E+03  0.19790203211E+03  0.29406067209E+03  0.42861088245E+03  0.00000000000E+00 0. -1.
         -1    1    3    3    0  502  0.17558416980E+02  0.56307284449E+02  0.84419043015E+02  0.10298244080E+03  0.00000000000E+00 0.  1.
         13    1    5    5    0    0 -0.43274587258E+03 -0.17092556908E+03 -0.55966367277E+02  0.46863287834E+03  0.00000000000E+00 0. -1.
        -13    1    5    5    0    0  0.20301165974E+01 -0.66194245776E+01  0.55580838863E+01  0.88786514530E+01  0.00000000000E+00 0.  1.
          1    1    6    6  503    0  0.13059521280E+03 -0.80296240275E+01 -0.47051397232E+03  0.48836767155E+03  0.00000000000E+00 0. -1.
         -1    1    6    6    0  503  0.41584128503E+02 -0.68634698877E+02 -0.27549872958E+03  0.28694862194E+03  0.00000000000E+00 0.  1.
<mgrwt>
<rscale>  0 0.17347864E+04</rscale>
<asrwt>0</asrwt>
<pdfrwt beam="1">  1        2 0.16941249E+00 0.17347864E+04</pdfrwt>
<pdfrwt beam="2">  1       -2 0.10511384E+00 0.17347864E+04</pdfrwt>
<totfact> 0.15134856E+01</totfact>
</mgrwt>
</event>
<event>
12    3  0.4769008E-008  0.1950932E+04  0.7818608E-02  0.8629911E-01
          2   -1    0    0  501    0  0.00000000000E+00  0.00000000000E+00  0.28334442165E+04  0.28334442165E+04  0.00000000000E+00 0.  1.
         -2   -1    0    0    0  501 -0.00000000000E+00 -0.00000000000E+00 -0.33582245307E+03  0.33582245307E+03  0.00000000000E+00 0. -1.
         23    2    1    2    0    0 -0.47546218589E+02 -0.58530235850E+03  0.17288669160E+04  0.18281670241E+04  0.91511533960E+02 0.  0.
        254    2    1    2    0    0  0.47546218589E+02  0.58530235850E+03  0.76875484745E+03  0.13410996455E+04  0.92882977450E+03 0.  0.
         23    2    4    4    0    0 -0.24928111267E+03  0.21578307120E+03  0.78655353285E+03  0.85775658422E+03  0.91523170696E+02 0.  0.
         23    2    4    4    0    0  0.29682733126E+03  0.36951928730E+03 -0.17798685407E+02  0.48334306131E+03  0.93020177642E+02 0.  0.
          1    1    3    3  502    0 -0.48131595512E+01 -0.14625810871E+03  0.32036197949E+03  0.35220221290E+03  0.00000000000E+00 0. -1.
         -1    1    3    3    0  502 -0.42733059038E+02 -0.43904424979E+03  0.14085049365E+04  0.14759648112E+04  0.00000000000E+00 0.  1.
         13    1    5    5    0    0 -0.50913674971E+02  0.39794781073E+01  0.14153069921E+03  0.15046254472E+03  0.00000000000E+00 0. -1.
        -13    1    5    5    0    0 -0.19836743770E+03  0.21180359309E+03  0.64502283364E+03  0.70729403950E+03  0.00000000000E+00 0.  1.
          1    1    6    6  503    0  0.30267798354E+03  0.36840668891E+03 -0.19340325892E+02  0.47719125973E+03  0.00000000000E+00 0. -1.
         -1    1    6    6    0  503 -0.58506522843E+01  0.11125983861E+01  0.15416404853E+01  0.61518015822E+01  0.00000000000E+00 0.  1.
<mgrwt>
<rscale>  0 0.19509323E+04</rscale>
<asrwt>0</asrwt>
<pdfrwt beam="1">  1        2 0.43591448E+00 0.19509323E+04</pdfrwt>
<pdfrwt beam="2">  1       -2 0.51664995E-01 0.19509323E+04</pdfrwt>
<totfact> 0.72972552E+00</totfact>
</mgrwt>
</event>
<event>
12    3  0.4769008E-008  0.1997488E+04  0.7818608E-02  0.8607796E-01
          1   -1    0    0  501    0  0.00000000000E+00  0.00000000000E+00  0.27674909251E+04  0.27674909251E+04  0.00000000000E+00 0. -1.
         -1   -1    0    0    0  501 -0.00000000000E+00 -0.00000000000E+00 -0.36043087799E+03  0.36043087799E+03  0.00000000000E+00 0.  1.
         23    2    1    2    0    0 -0.46097953436E+03  0.46838992015E+03  0.26352724542E+03  0.71400428818E+03  0.92001446065E+02 0.  0.
        254    2    1    2    0    0  0.46097953436E+03 -0.46838992015E+03  0.21435328017E+04  0.24139175149E+04  0.89463604246E+03 0.  0.
         23    2    4    4    0    0 -0.23756120377E+03 -0.25290510917E+03  0.52897938025E+03  0.63923744249E+03  0.91700618086E+02 0.  0.
         23    2    4    4    0    0  0.69854073813E+03 -0.21548481097E+03  0.16145534214E+04  0.17746800724E+04  0.91179724669E+02 0.  0.
          3    1    3    3  502    0  0.44633134468E+01  0.31438569924E+01  0.15001249241E+01  0.56617469478E+01  0.00000000000E+00 0. -1.
         -3    1    3    3    0  502 -0.46544284780E+03  0.46524606315E+03  0.26202712049E+03  0.70834254124E+03  0.00000000000E+00 0.  1.
         13    1    5    5    0    0 -0.16726540126E+03 -0.22935311039E+03  0.40040287995E+03  0.49081873434E+03  0.00000000000E+00 0. -1.
        -13    1    5    5    0    0 -0.70295802514E+02 -0.23551998780E+02  0.12857650030E+03  0.14841870815E+03  0.00000000000E+00 0.  1.
          1    1    6    6  503    0  0.55813972321E+03 -0.17072727325E+03  0.13701476608E+04  0.14892858573E+04  0.00000000000E+00 0. -1.
         -1    1    6    6    0  503  0.14040101492E+03 -0.44757537726E+02  0.24440576064E+03  0.28539421509E+03  0.00000000000E+00 0.  1.
<mgrwt>
<rscale>  0 0.19974876E+04</rscale>
<asrwt>0</asrwt>
<pdfrwt beam="1">  1        1 0.42576782E+00 0.19974876E+04</pdfrwt>
<pdfrwt beam="2">  1       -1 0.55450906E-01 0.19974876E+04</pdfrwt>
<totfact> 0.26851218E+00</totfact>
</mgrwt>
</event>
<event>
12    3  0.4769008E-008  0.1327635E+04  0.7818608E-02  0.9007933E-01
          2   -1    0    0  501    0  0.00000000000E+00  0.00000000000E+00  0.25586276138E+04  0.25586276138E+04  0.00000000000E+00 0. -1.
         -2   -1    0    0    0  501 -0.00000000000E+00 -0.00000000000E+00 -0.17222268906E+03  0.17222268906E+03  0.00000000000E+00 0.  1.
         23    2    1    2    0    0 -0.30619940272E+03 -0.17138774038E+03  0.79270566160E+03  0.87098648160E+03  0.84281394242E+02 0.  0.
        254    2    1    2    0    0  0.30619940272E+03  0.17138774038E+03  0.15936992631E+04  0.18598638213E+04  0.89223554093E+03 0.  0.
         23    2    4    4    0    0  0.33086235310E+03  0.29648988340E+03  0.27140348989E+03  0.52820039805E+03  0.89216918326E+02 0.  0.
         23    2    4    4    0    0 -0.24662950380E+02 -0.12510214303E+03  0.13222957733E+04  0.13316634232E+04  0.92749951100E+02 0.  0.
          3    1    3    3  502    0 -0.24339385589E+02 -0.10462645402E+02  0.13478815789E+03  0.13736709994E+03  0.00000000000E+00 0. -1.
         -3    1    3    3    0  502 -0.28186001713E+03 -0.16092509497E+03  0.65791750371E+03  0.73361938166E+03  0.00000000000E+00 0.  1.
         13    1    5    5    0    0  0.71924959499E+02  0.10374152022E+03  0.10931908205E+03  0.16699151031E+03  0.00000000000E+00 0. -1.
        -13    1    5    5    0    0  0.25893739360E+03  0.19274836318E+03  0.16208440784E+03  0.36120888774E+03  0.00000000000E+00 0.  1.
          3    1    6    6  503    0 -0.89440770032E+01  0.14439702023E+02  0.16843898151E+03  0.16929321309E+03  0.00000000000E+00 0. -1.
         -3    1    6    6    0  503 -0.15718873376E+02 -0.13954184505E+03  0.11538567918E+04  0.11623702101E+04  0.00000000000E+00 0.  1.
<mgrwt>
<rscale>  0 0.13276351E+04</rscale>
<asrwt>0</asrwt>
<pdfrwt beam="1">  1        2 0.39363499E+00 0.13276351E+04</pdfrwt>
<pdfrwt beam="2">  1       -2 0.26495800E-01 0.13276351E+04</pdfrwt>
<totfact> 0.40828016E+01</totfact>
</mgrwt>
</event>
<event>
12    3  0.4769008E-008  0.2657392E+04  0.7818608E-02  0.8348964E-01
         -2   -1    0    0    0  501 -0.00000000000E+00  0.00000000000E+00  0.18114135634E+04  0.18114135634E+04  0.00000000000E+00 0.  1.
          2   -1    0    0  501    0  0.00000000000E+00 -0.00000000000E+00 -0.97461630293E+03  0.97461630293E+03  0.00000000000E+00 0. -1.
         23    2    1    2    0    0 -0.11254001452E+04 -0.27036666059E+03  0.56812387833E+03  0.12927492613E+04  0.93873816492E+02 0.  0.
        254    2    1    2    0    0  0.11254001452E+04  0.27036666059E+03  0.26867338218E+03  0.14932806051E+04  0.90447662279E+03 0.  0.
         23    2    4    4    0    0  0.10545628047E+04  0.27081818167E+03  0.52489422665E+03  0.12122127696E+04  0.92198987222E+02 0.  0.
         23    2    4    4    0    0  0.70837340568E+02 -0.45152108299E+00 -0.25622084447E+03  0.28106783543E+03  0.91279101022E+02 0.  0.
          3    1    3    3  502    0 -0.47509865427E+03 -0.84069597595E+02  0.19676995677E+03  0.52106126743E+03  0.00000000000E+00 0. -1.
         -3    1    3    3    0  502 -0.65030149095E+03 -0.18629706300E+03  0.37135392156E+03  0.77168799386E+03  0.00000000000E+00 0.  1.
         13    1    5    5    0    0  0.13823832223E+02  0.54061956574E+01 -0.34608784540E+01  0.15241488395E+02  0.00000000000E+00 0.  1.
        -13    1    5    5    0    0  0.10407389724E+04  0.26541198602E+03  0.52835510510E+03  0.11969712813E+04  0.00000000000E+00 0. -1.
          1    1    6    6  503    0  0.26564453726E+02  0.44843250498E+02 -0.11037129036E+03  0.12205903921E+03  0.00000000000E+00 0. -1.
         -1    1    6    6    0  503  0.44272886842E+02 -0.45294771581E+02 -0.14584955410E+03  0.15900879622E+03  0.00000000000E+00 0.  1.
<mgrwt>
<rscale>  0 0.26573921E+04</rscale>
<asrwt>0</asrwt>
<pdfrwt beam="1">  1        2 0.14994097E+00 0.26573921E+04</pdfrwt>
<pdfrwt beam="2">  1       -2 0.27867901E+00 0.26573921E+04</pdfrwt>
<totfact> 0.98801914E-01</totfact>
</mgrwt>
</event>
<event>
12    3  0.4769008E-008  0.3065557E+04  0.7818608E-02  0.8225254E-01
         -2   -1    0    0    0  501 -0.00000000000E+00  0.00000000000E+00  0.91251064447E+03  0.91251064447E+03  0.00000000000E+00 0.  1.
          2   -1    0    0  501    0  0.00000000000E+00 -0.00000000000E+00 -0.25746663690E+04  0.25746663690E+04  0.00000000000E+00 0. -1.
         23    2    1    2    0    0 -0.79283884407E+03  0.11329597198E+04 -0.49248141938E+03  0.14706569115E+04  0.90014684986E+02 0.  0.
        254    2    1    2    0    0  0.79283884407E+03 -0.11329597198E+04 -0.11696743051E+04  0.20165201019E+04  0.88658004827E+03 0.  0.
         23    2    4    4    0    0  0.14727558538E+03 -0.86575796022E+03 -0.38905508908E+03  0.96485531905E+03  0.91405583101E+02 0.  0.
         23    2    4    4    0    0  0.64556325868E+03 -0.26720175962E+03 -0.78061921603E+03  0.10516647829E+04  0.92107295084E+02 0.  0.
          3    1    3    3  502    0 -0.38046187331E+03  0.52202183908E+03 -0.18427418005E+03  0.67172539847E+03  0.00000000000E+00 0. -1.
         -3    1    3    3    0  502 -0.41237697075E+03  0.61093788075E+03 -0.30820723933E+03  0.79893151304E+03  0.00000000000E+00 0.  1.
         13    1    5    5    0    0  0.40874925537E+02 -0.48143450525E+03 -0.19033392262E+03  0.51930428891E+03  0.00000000000E+00 0. -1.
        -13    1    5    5    0    0  0.10640065985E+03 -0.38432345497E+03 -0.19872116646E+03  0.44555103014E+03  0.00000000000E+00 0.  1.
          1    1    6    6  503    0  0.42208148386E+03 -0.22044737549E+03 -0.51527835208E+03  0.70161357206E+03  0.00000000000E+00 0. -1.
         -1    1    6    6    0  503  0.22348177482E+03 -0.46754384129E+02 -0.26534086395E+03  0.35005121082E+03  0.00000000000E+00 0.  1.
<mgrwt>
<rscale>  0 0.30655574E+04</rscale>
<asrwt>0</asrwt>
<pdfrwt beam="1">  1        2 0.39610251E+00 0.30655574E+04</pdfrwt>
<pdfrwt beam="2">  1       -2 0.14038626E+00 0.30655574E+04</pdfrwt>
<totfact> 0.95587873E-01</totfact>
</mgrwt>
</event>
<event>
12    3  0.4769008E-008  0.1425160E+04  0.7818608E-02  0.8935805E-01
         -2   -1    0    0    0  501 -0.00000000000E+00  0.00000000000E+00  0.33316024744E+03  0.33316024744E+03  0.00000000000E+00 0. -1.
          2   -1    0    0  501    0  0.00000000000E+00 -0.00000000000E+00 -0.15241025882E+04  0.15241025882E+04  0.00000000000E+00 0.  1.
         23    2    1    2    0    0  0.29084049622E+03 -0.30407002506E+03 -0.38434259355E+03  0.57578485094E+03  0.82232542035E+02 0.  0.
        254    2    1    2    0    0 -0.29084049622E+03  0.30407002506E+03 -0.80659974724E+03  0.12814779847E+04  0.90251642574E+03 0.  0.
         23    2    4    4    0    0 -0.40926487159E+01  0.53485858243E+03 -0.22602225286E+03  0.58769986879E+03  0.90634563020E+02 0.  0.
         23    2    4    4    0    0 -0.28674784750E+03 -0.23078855737E+03 -0.58057749438E+03  0.69377811595E+03  0.93649137355E+02 0.  0.
          4    1    3    3  502    0  0.58996045845E+02 -0.10220365840E+03 -0.13995627468E+03  0.18306796563E+03  0.00000000000E+00 0.  1.
         -4    1    3    3    0  502  0.23184445037E+03 -0.20186636666E+03 -0.24438631887E+03  0.39271688531E+03  0.00000000000E+00 0. -1.
         13    1    5    5    0    0  0.39523473086E+02  0.25835732144E+03 -0.12880410081E+03  0.29137794503E+03  0.00000000000E+00 0. -1.
        -13    1    5    5    0    0 -0.43616121802E+02  0.27650126099E+03 -0.97218152055E+02  0.29632192376E+03  0.00000000000E+00 0.  1.
          3    1    6    6  503    0 -0.33513760617E+02 -0.21249087477E+02 -0.21223607336E+02  0.45001526392E+02  0.00000000000E+00 0. -1.
         -3    1    6    6    0  503 -0.25323408688E+03 -0.20953946989E+03 -0.55935388705E+03  0.64877658955E+03  0.00000000000E+00 0.  1.
<mgrwt>
<rscale>  0 0.14251602E+04</rscale>
<asrwt>0</asrwt>
<pdfrwt beam="1">  1        2 0.23447732E+00 0.14251602E+04</pdfrwt>
<pdfrwt beam="2">  1       -2 0.51255422E-01 0.14251602E+04</pdfrwt>
<totfact> 0.42981279E+01</totfact>
</mgrwt>
</event>
<event>
12    3  0.4769008E-008  0.1304743E+04  0.7818608E-02  0.9025813E-01
         -2   -1    0    0    0  501 -0.00000000000E+00  0.00000000000E+00  0.25559287421E+03  0.25559287421E+03  0.00000000000E+00 0.  1.
          2   -1    0    0  501    0  0.00000000000E+00 -0.00000000000E+00 -0.16651027001E+04  0.16651027001E+04  0.00000000000E+00 0. -1.
         23    2    1    2    0    0 -0.13019872913E+03 -0.29050487303E+03 -0.29452310913E+03  0.44343445934E+03  0.92441698372E+02 0.  0.
        254    2    1    2    0    0  0.13019872913E+03  0.29050487303E+03 -0.11149867167E+04  0.14772611150E+04  0.91529243028E+03 0.  0.
         23    2    4    4    0    0  0.45086560457E+03 -0.92756781379E+01 -0.30879851471E+03  0.55476203914E+03  0.95071372106E+02 0.  0.
         23    2    4    4    0    0 -0.32066687545E+03  0.29978055117E+03 -0.80618820202E+03  0.92249907581E+03  0.91484992856E+02 0.  0.
          1    1    3    3  502    0 -0.63534789587E+01 -0.28986755628E+02 -0.73668035412E+02  0.79420262768E+02  0.00000000000E+00 0. -1.
         -1    1    3    3    0  502 -0.12384525017E+03 -0.26151811740E+03 -0.22085507372E+03  0.36401419657E+03  0.00000000000E+00 0.  1.
         13    1    5    5    0    0  0.44307814096E+03  0.51622035784E+01 -0.30497857610E+03  0.53791897086E+03  0.00000000000E+00 0. -1.
        -13    1    5    5    0    0  0.77874636192E+01 -0.14437881716E+02 -0.38199386174E+01  0.16843068281E+02  0.00000000000E+00 0.  1.
          4    1    6    6  503    0 -0.22238189458E+03  0.15317737679E+03 -0.44565894312E+03  0.52108435918E+03  0.00000000000E+00 0. -1.
         -4    1    6    6    0  503 -0.98284980865E+02  0.14660317437E+03 -0.36052925891E+03  0.40141471663E+03  0.00000000000E+00 0.  1.
<mgrwt>
<rscale>  0 0.13047427E+04</rscale>
<asrwt>0</asrwt>
<pdfrwt beam="1">  1        2 0.25616965E+00 0.13047427E+04</pdfrwt>
<pdfrwt beam="2">  1       -2 0.39321980E-01 0.13047427E+04</pdfrwt>
<totfact> 0.61443761E+01</totfact>
</mgrwt>
</event>
<event>
12    3  0.4769008E-008  0.4126066E+04  0.7818608E-02  0.7979587E-01
          2   -1    0    0  501    0  0.00000000000E+00  0.00000000000E+00  0.35563860645E+04  0.35563860645E+04  0.00000000000E+00 0. -1.
         -2   -1    0    0    0  501 -0.00000000000E+00 -0.00000000000E+00 -0.11967500394E+04  0.11967500394E+04  0.00000000000E+00 0.  1.
         23    2    1    2    0    0  0.74219592976E+03 -0.18498329252E+03  0.32128286389E+04  0.33039490807E+04  0.93477528053E+02 0.  0.
        254    2    1    2    0    0 -0.74219592976E+03  0.18498329252E+03 -0.85319261383E+03  0.14491870231E+04  0.88720447189E+03 0.  0.
         23    2    4    4    0    0  0.94199940914E+02  0.21887279388E+03 -0.44648601393E+03  0.51412282032E+03  0.90518423332E+02 0.  0.
         23    2    4    4    0    0 -0.83639587067E+03 -0.33889501364E+02 -0.40670659990E+03  0.93506420278E+03  0.90709724568E+02 0.  0.
          1    1    3    3  502    0  0.45237092938E+03 -0.65647396492E+02  0.18873543384E+04  0.19419205537E+04  0.00000000000E+00 0. -1.
         -1    1    3    3    0  502  0.28982500038E+03 -0.11933589603E+03  0.13254743006E+04  0.13620285270E+04  0.00000000000E+00 0.  1.
         13    1    5    5    0    0  0.68522398517E+02  0.14399531717E+03 -0.20331965775E+03  0.25839669830E+03  0.00000000000E+00 0. -1.
        -13    1    5    5    0    0  0.25677542397E+02  0.74877476718E+02 -0.24316635618E+03  0.25572612202E+03  0.00000000000E+00 0.  1.
          1    1    6    6  503    0 -0.75937279595E+03 -0.15502139645E+02 -0.39126172720E+03  0.85438463162E+03  0.00000000000E+00 0. -1.
         -1    1    6    6    0  503 -0.77023074720E+02 -0.18387361719E+02 -0.15444872701E+02  0.80679571164E+02  0.00000000000E+00 0.  1.
<mgrwt>
<rscale>  0 0.41260660E+04</rscale>
<asrwt>0</asrwt>
<pdfrwt beam="1">  1        2 0.54713632E+00 0.41260660E+04</pdfrwt>
<pdfrwt beam="2">  1       -2 0.18411539E+00 0.41260660E+04</pdfrwt>
<totfact> 0.98216701E-02</totfact>
</mgrwt>
</event>
<event>
12    3  0.4769008E-008  0.1354649E+04  0.7818608E-02  0.8987316E-01
         -2   -1    0    0    0  501 -0.00000000000E+00  0.00000000000E+00  0.36174610906E+03  0.36174610906E+03  0.00000000000E+00 0. -1.
          2   -1    0    0  501    0  0.00000000000E+00 -0.00000000000E+00 -0.12682053514E+04  0.12682053514E+04  0.00000000000E+00 0.  1.
         23    2    1    2    0    0 -0.35025325790E+03  0.13022015054E+03 -0.20484516561E+03  0.43515202848E+03  0.88097183459E+02 0.  0.
        254    2    1    2    0    0  0.35025325790E+03 -0.13022015054E+03 -0.70161407674E+03  0.11947994320E+04  0.89199144487E+03 0.  0.
         23    2    4    4    0    0  0.46959510988E+03  0.25225362375E+03 -0.50615840187E+03  0.73999946781E+03  0.85155309035E+02 0.  0.
         23    2    4    4    0    0 -0.11934185198E+03 -0.38247377429E+03 -0.19545567486E+03  0.45479996417E+03  0.90063427203E+02 0.  0.
          4    1    3    3  502    0 -0.12913193436E+03  0.57053719391E+02 -0.12609102883E+03  0.18928584448E+03  0.00000000000E+00 0. -1.
         -4    1    3    3    0  502 -0.22112132355E+03  0.73166431153E+02 -0.78754136775E+02  0.24586618400E+03  0.00000000000E+00 0.  1.
         13    1    5    5    0    0  0.11943275067E+03  0.55541109656E+02 -0.17750656945E+03  0.22103750585E+03  0.00000000000E+00 0.  1.
        -13    1    5    5    0    0  0.35016235921E+03  0.19671251409E+03 -0.32865183242E+03  0.51896196196E+03  0.00000000000E+00 0. -1.
          1    1    6    6  503    0 -0.11342489395E+03 -0.21826487021E+03 -0.10774392939E+03  0.26853959569E+03  0.00000000000E+00 0. -1.
         -1    1    6    6    0  503 -0.59169580348E+01 -0.16420890408E+03 -0.87711745473E+02  0.18626036848E+03  0.00000000000E+00 0.  1.
<mgrwt>
<rscale>  0 0.13546488E+04</rscale>
<asrwt>0</asrwt>
<pdfrwt beam="1">  1        2 0.19510852E+00 0.13546488E+04</pdfrwt>
<pdfrwt beam="2">  1       -2 0.55653247E-01 0.13546488E+04</pdfrwt>
<totfact> 0.51105950E+01</totfact>
</mgrwt>
</event>
<event>
12    3  0.4769008E-008  0.2981953E+04  0.7818608E-02  0.8248903E-01
         -2   -1    0    0    0  501 -0.00000000000E+00  0.00000000000E+00  0.76517640238E+03  0.76517640238E+03  0.00000000000E+00 0.  1.
          2   -1    0    0  501    0  0.00000000000E+00 -0.00000000000E+00 -0.29052268130E+04  0.29052268130E+04  0.00000000000E+00 0. -1.
         23    2    1    2    0    0  0.12958624862E+04  0.37203387530E+03 -0.72303035601E+03  0.15335628745E+04  0.10664617544E+03 0.  0.
        254    2    1    2    0    0 -0.12958624862E+04 -0.37203387530E+03 -0.14170200546E+04  0.21368403408E+04  0.86050683875E+03 0.  0.
         23    2    4    4    0    0  0.72221863406E+02 -0.16111560378E+03 -0.27478236818E+03  0.33984371152E+03  0.93883774246E+02 0.  0.
         23    2    4    4    0    0 -0.13680843497E+04 -0.21091827152E+03 -0.11422376864E+04  0.17969966293E+04  0.91370939170E+02 0.  0.
          3    1    3    3  502    0  0.11210340051E+04  0.30198600451E+03 -0.58495780082E+03  0.13000340058E+04  0.00000000000E+00 0. -1.
         -3    1    3    3    0  502  0.17482848114E+03  0.70047870789E+02 -0.13807255519E+03  0.23352886870E+03  0.00000000000E+00 0.  1.
         13    1    5    5    0    0  0.12086935783E+02 -0.57522708747E+02 -0.17281677756E+03  0.18253929617E+03  0.00000000000E+00 0. -1.
        -13    1    5    5    0    0  0.60134927622E+02 -0.10359289503E+03 -0.10196559061E+03  0.15730441535E+03  0.00000000000E+00 0.  1.
          4    1    6    6  503    0 -0.86874228400E+03 -0.16261029190E+03 -0.68479617288E+03  0.11180791839E+04  0.00000000000E+00 0. -1.
         -4    1    6    6    0  503 -0.49934206565E+03 -0.48307979626E+02 -0.45744151354E+03  0.67891744545E+03  0.00000000000E+00 0.  1.
<mgrwt>
<rscale>  0 0.29819531E+04</rscale>
<asrwt>0</asrwt>
<pdfrwt beam="1">  1        2 0.44695798E+00 0.29819531E+04</pdfrwt>
<pdfrwt beam="2">  1       -2 0.11771944E+00 0.29819531E+04</pdfrwt>
<totfact> 0.95148729E-01</totfact>
</mgrwt>
</event>
<event>
12    3  0.4769008E-008  0.1582743E+04  0.7818608E-02  0.8831220E-01
         -2   -1    0    0    0  501 -0.00000000000E+00  0.00000000000E+00  0.44250779431E+03  0.44250779431E+03  0.00000000000E+00 0.  1.
          2   -1    0    0  501    0  0.00000000000E+00 -0.00000000000E+00 -0.14152719925E+04  0.14152719925E+04  0.00000000000E+00 0. -1.
         23    2    1    2    0    0 -0.48799252783E+03  0.19050140481E+03 -0.28896159001E+03  0.60522347824E+03  0.91483144138E+02 0.  0.
        254    2    1    2    0    0  0.48799252783E+03 -0.19050140481E+03 -0.68380260813E+03  0.12525563085E+04  0.90933151638E+03 0.  0.
         23    2    4    4    0    0  0.53190896369E+03 -0.12358951295E+03  0.42194755922E+01  0.55386761323E+03  0.92466294670E+02 0.  0.
         23    2    4    4    0    0 -0.43916435857E+02 -0.66911891861E+02 -0.68802208372E+03  0.69868869529E+03  0.91573198187E+02 0.  0.
          4    1    3    3  502    0 -0.74473112356E+02  0.26919762809E+02 -0.89087900773E+01  0.79688673187E+02  0.00000000000E+00 0. -1.
         -4    1    3    3    0  502 -0.41351941548E+03  0.16358164200E+03 -0.28005279993E+03  0.52553480506E+03  0.00000000000E+00 0.  1.
         13    1    5    5    0    0  0.11070854253E+03 -0.48792812566E+02  0.32099909993E+02  0.12516998110E+03  0.00000000000E+00 0.  1.
        -13    1    5    5    0    0  0.42120042116E+03 -0.74796700382E+02 -0.27880434400E+02  0.42869763214E+03  0.00000000000E+00 0. -1.
          3    1    6    6  503    0 -0.38089640953E+02  0.13929588369E+02 -0.23417287886E+03  0.23765898126E+03  0.00000000000E+00 0. -1.
         -3    1    6    6    0  503 -0.58267949041E+01 -0.80841480230E+02 -0.45384920486E+03  0.46102971403E+03  0.00000000000E+00 0.  1.
<mgrwt>
<rscale>  0 0.15827430E+04</rscale>
<asrwt>0</asrwt>
<pdfrwt beam="1">  1        2 0.21773415E+00 0.15827430E+04</pdfrwt>
<pdfrwt beam="2">  1       -2 0.68078122E-01 0.15827430E+04</pdfrwt>
<totfact> 0.26896964E+01</totfact>
</mgrwt>
</event>
<event>
12    3  0.4769008E-008  0.1954347E+04  0.7818608E-02  0.8628267E-01
          2   -1    0    0  501    0  0.00000000000E+00  0.00000000000E+00  0.10196125271E+04  0.10196125271E+04  0.00000000000E+00 0. -1.
         -2   -1    0    0    0  501 -0.00000000000E+00 -0.00000000000E+00 -0.93650081989E+03  0.93650081989E+03  0.00000000000E+00 0.  1.
         23    2    1    2    0    0  0.27066300492E+03 -0.50845267948E+03 -0.47197914622E+03  0.75051850414E+03  0.93440468193E+02 0.  0.
        254    2    1    2    0    0 -0.27066300492E+03  0.50845267948E+03  0.55509085343E+03  0.12055948429E+04  0.90197033213E+03 0.  0.
         23    2    4    4    0    0 -0.64218849159E+02  0.40358508220E+03  0.76991592293E+03  0.87711111984E+03  0.97715960872E+02 0.  0.
         23    2    4    4    0    0 -0.20644415576E+03  0.10486759728E+03 -0.21482506950E+03  0.32848372301E+03  0.90196138434E+02 0.  0.
          1    1    3    3  502    0  0.16871773702E+03 -0.33213671111E+03 -0.24664343512E+03  0.44678121462E+03  0.00000000000E+00 0. -1.
         -1    1    3    3    0  502  0.10194526790E+03 -0.17631596837E+03 -0.22533571110E+03  0.30373728952E+03  0.00000000000E+00 0.  1.
         13    1    5    5    0    0 -0.72301642435E+02  0.30789832126E+03  0.65495399464E+03  0.72731948883E+03  0.00000000000E+00 0.  1.
        -13    1    5    5    0    0  0.80827932752E+01  0.95686760936E+02  0.11496192829E+03  0.14979163101E+03  0.00000000000E+00 0. -1.
          1    1    6    6  503    0 -0.58736914421E+02  0.59786352106E+02 -0.33379153836E+02  0.90214194696E+02  0.00000000000E+00 0. -1.
         -1    1    6    6    0  503 -0.14770724134E+03  0.45081245174E+02 -0.18144591566E+03  0.23826952831E+03  0.00000000000E+00 0.  1.
<mgrwt>
<rscale>  0 0.19543469E+04</rscale>
<asrwt>0</asrwt>
<pdfrwt beam="1">  1        2 0.15686347E+00 0.19543469E+04</pdfrwt>
<pdfrwt beam="2">  1       -2 0.14407705E+00 0.19543469E+04</pdfrwt>
<totfact> 0.76029068E+00</totfact>
</mgrwt>
</event>
<event>
12    3  0.4769008E-008  0.1490150E+04  0.7818608E-02  0.8891030E-01
         -1   -1    0    0    0  501 -0.00000000000E+00  0.00000000000E+00  0.36466075482E+03  0.36466075482E+03  0.00000000000E+00 0.  1.
          1   -1    0    0  501    0  0.00000000000E+00 -0.00000000000E+00 -0.15223377904E+04  0.15223377904E+04  0.00000000000E+00 0. -1.
         23    2    1    2    0    0  0.60696652957E+01  0.26779752522E+03  0.10948139947E+03  0.30159622535E+03  0.84980885884E+02 0.  0.
        254    2    1    2    0    0 -0.60696652957E+01 -0.26779752522E+03 -0.12671584351E+04  0.15854023199E+04  0.91436188732E+03 0.  0.
         23    2    4    4    0    0  0.36259182451E+03 -0.12749706448E+03 -0.10590595099E+04  0.11302727773E+04  0.90449836089E+02 0.  0.
         23    2    4    4    0    0 -0.36866148981E+03 -0.14030046074E+03 -0.20809892519E+03  0.45512954264E+03  0.90786698206E+02 0.  0.
          3    1    3    3  502    0  0.16320810689E+02  0.24728204953E+02  0.37685789937E+02  0.47938207569E+02  0.00000000000E+00 0. -1.
         -3    1    3    3    0  502 -0.10251145394E+02  0.24306932027E+03  0.71795609529E+02  0.25365801778E+03  0.00000000000E+00 0.  1.
         13    1    5    5    0    0  0.18300808906E+03 -0.27577049694E+02 -0.58519299141E+03  0.61376159176E+03  0.00000000000E+00 0. -1.
        -13    1    5    5    0    0  0.17958373545E+03 -0.99920014783E+02 -0.47386651849E+03  0.51651118549E+03  0.00000000000E+00 0.  1.
          1    1    6    6  503    0 -0.33653943461E+03 -0.10962798358E+03 -0.15636524415E+03  0.38694595928E+03  0.00000000000E+00 0. -1.
         -1    1    6    6    0  503 -0.32122055201E+02 -0.30672477166E+02 -0.51733681042E+02  0.68183583361E+02  0.00000000000E+00 0.  1.
<mgrwt>
<rscale>  0 0.14901501E+04</rscale>
<asrwt>0</asrwt>
<pdfrwt beam="1">  1        1 0.23420581E+00 0.14901501E+04</pdfrwt>
<pdfrwt beam="2">  1       -1 0.56101655E-01 0.14901501E+04</pdfrwt>
<totfact> 0.19643710E+01</totfact>
</mgrwt>
</event>
<event>
12    3  0.4769008E-008  0.1680561E+04  0.7818608E-02  0.8772529E-01
         -1   -1    0    0    0  501 -0.00000000000E+00  0.00000000000E+00  0.57732606845E+03  0.57732606845E+03  0.00000000000E+00 0.  1.
          1   -1    0    0  501    0  0.00000000000E+00 -0.00000000000E+00 -0.12230028970E+04  0.12230028970E+04  0.00000000000E+00 0. -1.
         23    2    1    2    0    0  0.43367364674E+03 -0.19474494210E+03  0.15154966960E+03  0.50582329938E+03  0.83014959413E+02 0.  0.
        254    2    1    2    0    0 -0.43367364674E+03  0.19474494210E+03 -0.79722649812E+03  0.12945056660E+04  0.90231724230E+03 0.  0.
         23    2    4    4    0    0 -0.55730588793E+03  0.43845544515E+03 -0.45591204946E+03  0.84785321445E+03  0.90367285583E+02 0.  0.
         23    2    4    4    0    0  0.12363224119E+03 -0.24371050305E+03 -0.34131444866E+03  0.44665245159E+03  0.91231131161E+02 0.  0.
          4    1    3    3  502    0  0.44044463278E+02 -0.18045551615E+02  0.43696387304E+02  0.64613705528E+02  0.00000000000E+00 0. -1.
         -4    1    3    3    0  502  0.38962918346E+03 -0.17669939048E+03  0.10785328230E+03  0.44120959385E+03  0.00000000000E+00 0.  1.
         13    1    5    5    0    0 -0.44598750095E+03  0.38469917924E+03 -0.40136137220E+03  0.71273365334E+03  0.00000000000E+00 0.  1.
        -13    1    5    5    0    0 -0.11131838698E+03  0.53756265914E+02 -0.54550677266E+02  0.13511956111E+03  0.00000000000E+00 0. -1.
          1    1    6    6  503    0  0.63556693979E+02 -0.62466027215E+02 -0.16105214705E+03  0.18406317387E+03  0.00000000000E+00 0. -1.
         -1    1    6    6    0  503  0.60075547207E+02 -0.18124447584E+03 -0.18026230160E+03  0.26258927772E+03  0.00000000000E+00 0.  1.
<mgrwt>
<rscale>  0 0.16805612E+04</rscale>
<asrwt>0</asrwt>
<pdfrwt beam="1">  1        1 0.18815429E+00 0.16805612E+04</pdfrwt>
<pdfrwt beam="2">  1       -1 0.88819397E-01 0.16805612E+04</pdfrwt>
<totfact> 0.12187290E+01</totfact>
</mgrwt>
</event>
<event>
12    3  0.4769008E-008  0.1174894E+04  0.7818608E-02  0.9135120E-01
          2   -1    0    0  501    0  0.00000000000E+00  0.00000000000E+00  0.11590733926E+04  0.11590733926E+04  0.00000000000E+00 0. -1.
         -2   -1    0    0    0  501 -0.00000000000E+00 -0.00000000000E+00 -0.29773246371E+03  0.29773246371E+03  0.00000000000E+00 0.  1.
         23    2    1    2    0    0  0.40201705903E+02  0.17896318044E+03  0.35974250118E+03  0.41345850637E+03  0.88821575221E+02 0.  0.
        254    2    1    2    0    0 -0.40201705903E+02 -0.17896318044E+03  0.50159842775E+03  0.10433473500E+04  0.89628606644E+03 0.  0.
         23    2    4    4    0    0 -0.15090235941E+03 -0.51628766386E+03  0.26415797655E+03  0.60637145565E+03  0.92641414734E+02 0.  0.
         23    2    4    4    0    0  0.11070065351E+03  0.33732448342E+03  0.23744045120E+03  0.43697589434E+03  0.92344586009E+02 0.  0.
          3    1    3    3  502    0  0.56174813954E+02  0.17447812036E+03  0.30100973407E+03  0.35242741694E+03  0.00000000000E+00 0.  1.
         -3    1    3    3    0  502 -0.15973108051E+02  0.44850600840E+01  0.58732767113E+02  0.61031089434E+02  0.00000000000E+00 0. -1.
         13    1    5    5    0    0 -0.44400110303E+02 -0.22914068655E+03  0.69688347973E+02  0.24358425621E+03  0.00000000000E+00 0.  1.
        -13    1    5    5    0    0 -0.10650224911E+03 -0.28714697731E+03  0.19446962858E+03  0.36278719944E+03  0.00000000000E+00 0. -1.
          2    1    6    6  503    0  0.82600090367E+02  0.31327192887E+03  0.18586402107E+03  0.37350704234E+03  0.00000000000E+00 0. -1.
         -2    1    6    6    0  503  0.28100563139E+02  0.24052554545E+02  0.51576430132E+02  0.63468851999E+02  0.00000000000E+00 0.  1.
<mgrwt>
<rscale>  0 0.11748937E+04</rscale>
<asrwt>0</asrwt>
<pdfrwt beam="1">  1        2 0.17831898E+00 0.11748937E+04</pdfrwt>
<pdfrwt beam="2">  1       -2 0.45804995E-01 0.11748937E+04</pdfrwt>
<totfact> 0.89504591E+01</totfact>
</mgrwt>
</event>
<event>
12    3  0.4769008E-008  0.1498793E+04  0.7818608E-02  0.8885256E-01
         -4   -1    0    0    0  501 -0.00000000000E+00  0.00000000000E+00  0.99916216186E+03  0.99916216186E+03  0.00000000000E+00 0.  1.
          4   -1    0    0  501    0  0.00000000000E+00 -0.00000000000E+00 -0.56206639707E+03  0.56206639707E+03  0.00000000000E+00 0. -1.
         23    2    1    2    0    0  0.17954737380E+02 -0.34041882163E+03  0.47525555595E+03  0.59264970250E+03  0.95699946216E+02 0.  0.
        254    2    1    2    0    0 -0.17954737380E+02  0.34041882163E+03 -0.38159791163E+02  0.96857885642E+03  0.90580433027E+03 0.  0.
         23    2    4    4    0    0  0.23611884160E+03  0.10214257651E+03 -0.38262264719E+03  0.47000838278E+03  0.91228155993E+02 0.  0.
         23    2    4    4    0    0 -0.25407357898E+03  0.23827624512E+03  0.34446285603E+03  0.49857047364E+03  0.92676348021E+02 0.  0.
          3    1    3    3  502    0  0.34138424348E+02 -0.70128634847E+02  0.67342117648E+02  0.10304570953E+03  0.00000000000E+00 0. -1.
         -3    1    3    3    0  502 -0.16183686968E+02 -0.27029018678E+03  0.40791343830E+03  0.48960399298E+03  0.00000000000E+00 0.  1.
         13    1    5    5    0    0  0.39240195604E+01 -0.11398177078E+02 -0.33630302230E+02  0.35725531463E+02  0.00000000000E+00 0.  1.
        -13    1    5    5    0    0  0.23219482204E+03  0.11354075358E+03 -0.34899234496E+03  0.43428285132E+03  0.00000000000E+00 0. -1.
          1    1    6    6  503    0 -0.20111963129E+03  0.19011991598E+03  0.31965567289E+03  0.42281726284E+03  0.00000000000E+00 0. -1.
         -1    1    6    6    0  503 -0.52953947689E+02  0.48156329136E+02  0.24807183134E+02  0.75753210802E+02  0.00000000000E+00 0.  1.
<mgrwt>
<rscale>  0 0.14987935E+04</rscale>
<asrwt>0</asrwt>
<pdfrwt beam="1">  1        4 0.86471754E-01 0.14987935E+04</pdfrwt>
<pdfrwt beam="2">  1       -4 0.15371726E+00 0.14987935E+04</pdfrwt>
<totfact> 0.62580605E-01</totfact>
</mgrwt>
</event>
<event>
12    3  0.4769008E-008  0.2845328E+04  0.7818608E-02  0.8289333E-01
         -2   -1    0    0    0  501 -0.00000000000E+00  0.00000000000E+00  0.91131802610E+03  0.91131802610E+03  0.00000000000E+00 0.  1.
          2   -1    0    0  501    0  0.00000000000E+00 -0.00000000000E+00 -0.22209285456E+04  0.22209285456E+04  0.00000000000E+00 0. -1.
         23    2    1    2    0    0  0.88008309577E+03  0.91813622694E+03 -0.60077599156E+03  0.14095107378E+04  0.90930420129E+02 0.  0.
        254    2    1    2    0    0 -0.88008309577E+03 -0.91813622694E+03 -0.70883452791E+03  0.17227358338E+04  0.92078878064E+03 0.  0.
         23    2    4    4    0    0 -0.13377648788E+03 -0.61375017398E+03  0.15651113321E+02  0.63499126779E+03  0.91561607949E+02 0.  0.
         23    2    4    4    0    0 -0.74630660789E+03 -0.30438605295E+03 -0.72448564123E+03  0.10877445660E+04  0.93189990883E+02 0.  0.
          3    1    3    3  502    0  0.12172775172E+03  0.11125108251E+03 -0.11048654850E+03  0.19849868085E+03  0.00000000000E+00 0. -1.
         -3    1    3    3    0  502  0.75835534405E+03  0.80688514443E+03 -0.49028944306E+03  0.12110120570E+04  0.00000000000E+00 0.  1.
         13    1    5    5    0    0 -0.71972932194E+02 -0.27517015747E+03  0.51154205298E+02  0.28899043453E+03  0.00000000000E+00 0. -1.
        -13    1    5    5    0    0 -0.61803555686E+02 -0.33858001652E+03 -0.35503091977E+02  0.34600083327E+03  0.00000000000E+00 0.  1.
          4    1    6    6  503    0 -0.65073378677E+02 -0.57293342199E+02 -0.77702945384E+02  0.11642516650E+03  0.00000000000E+00 0. -1.
         -4    1    6    6    0  503 -0.68123322922E+03 -0.24709271075E+03 -0.64678269584E+03  0.97131939955E+03  0.00000000000E+00 0.  1.
<mgrwt>
<rscale>  0 0.28453276E+04</rscale>
<asrwt>0</asrwt>
<pdfrwt beam="1">  1        2 0.34168131E+00 0.28453276E+04</pdfrwt>
<pdfrwt beam="2">  1       -2 0.14020277E+00 0.28453276E+04</pdfrwt>
<totfact> 0.15588227E+00</totfact>
</mgrwt>
</event>
<event>
12    3  0.4769008E-008  0.1511310E+04  0.7818608E-02  0.8876967E-01
         -2   -1    0    0    0  501 -0.00000000000E+00  0.00000000000E+00  0.67912213810E+03  0.67912213810E+03  0.00000000000E+00 0. -1.
          2   -1    0    0  501    0  0.00000000000E+00 -0.00000000000E+00 -0.84081251168E+03  0.84081251168E+03  0.00000000000E+00 0.  1.
         23    2    1    2    0    0 -0.17201418303E+03 -0.40479082393E+03  0.14512946929E+03  0.47546620473E+03  0.10752236363E+03 0.  0.
        254    2    1    2    0    0  0.17201418303E+03  0.40479082393E+03 -0.30681984288E+03  0.10444684451E+04  0.89628758020E+03 0.  0.
         23    2    4    4    0    0 -0.30511968504E+03  0.27705144369E+03  0.55652488184E+02  0.42565582957E+03  0.90720235677E+02 0.  0.
         23    2    4    4    0    0  0.47713386806E+03  0.12773938024E+03 -0.36247233106E+03  0.61881261548E+03  0.86998764205E+02 0.  0.
          2    1    3    3  502    0 -0.40485592849E+01 -0.74548638136E+02 -0.69173597921E+01  0.74978264496E+02  0.00000000000E+00 0.  1.
         -2    1    3    3    0  502 -0.16796562374E+03 -0.33024218579E+03  0.15204682909E+03  0.40048794023E+03  0.00000000000E+00 0. -1.
         13    1    5    5    0    0 -0.51207034799E+02  0.87275270949E+02 -0.10818811016E+02  0.10176531828E+03  0.00000000000E+00 0. -1.
        -13    1    5    5    0    0 -0.25391265024E+03  0.18977617274E+03  0.66471299200E+02  0.32389051130E+03  0.00000000000E+00 0.  1.
          3    1    6    6  503    0  0.11767235945E+03 -0.61945330721E+01 -0.79908462651E+02  0.14237457225E+03  0.00000000000E+00 0. -1.
         -3    1    6    6    0  503  0.35946150861E+03  0.13393391331E+03 -0.28256386841E+03  0.47643804323E+03  0.00000000000E+00 0.  1.
<mgrwt>
<rscale>  0 0.15113099E+04</rscale>
<asrwt>0</asrwt>
<pdfrwt beam="1">  1        2 0.12935577E+00 0.15113099E+04</pdfrwt>
<pdfrwt beam="2">  1       -2 0.10448033E+00 0.15113099E+04</pdfrwt>
<totfact> 0.23137241E+01</totfact>
</mgrwt>
</event>
<event>
12    3  0.4769008E-008  0.3101716E+04  0.7818608E-02  0.8215267E-01
          2   -1    0    0  501    0  0.00000000000E+00  0.00000000000E+00  0.19710320657E+04  0.19710320657E+04  0.00000000000E+00 0. -1.
         -2   -1    0    0    0  501 -0.00000000000E+00 -0.00000000000E+00 -0.12202546643E+04  0.12202546643E+04  0.00000000000E+00 0.  1.
         23    2    1    2    0    0  0.23311022140E+03  0.14769425606E+03  0.17732189250E+04  0.17969222448E+04  0.92033849285E+02 0.  0.
        254    2    1    2    0    0 -0.23311022140E+03 -0.14769425606E+03 -0.10224415236E+04  0.13943644852E+04  0.90703455277E+03 0.  0.
         23    2    4    4    0    0 -0.17839384700E+03 -0.17494767409E+03  0.86118267031E+02  0.28008451807E+03  0.92735796902E+02 0.  0.
         23    2    4    4    0    0 -0.54716374397E+02  0.27253418027E+02 -0.11085597906E+04  0.11142799671E+04  0.94754448134E+02 0.  0.
          4    1    3    3  502    0  0.19272247573E+03  0.14974295499E+03  0.13596461160E+04  0.13813770181E+04  0.00000000000E+00 0. -1.
         -4    1    3    3    0  502  0.40387745665E+02 -0.20486989265E+01  0.41357280896E+03  0.41554522675E+03  0.00000000000E+00 0.  1.
         13    1    5    5    0    0 -0.18726881947E+02 -0.20820750873E+02 -0.19687873705E+02  0.34231741781E+02  0.00000000000E+00 0. -1.
        -13    1    5    5    0    0 -0.15966696506E+03 -0.15412692322E+03  0.10580614074E+03  0.24585277629E+03  0.00000000000E+00 0.  1.
          1    1    6    6  503    0  0.17310888912E+00  0.36781189872E+02 -0.79212746160E+03  0.79298095899E+03  0.00000000000E+00 0. -1.
         -1    1    6    6    0  503 -0.54889483286E+02 -0.95277718454E+01 -0.31643232899E+03  0.32129900816E+03  0.00000000000E+00 0.  1.
<mgrwt>
<rscale>  0 0.31017163E+04</rscale>
<asrwt>0</asrwt>
<pdfrwt beam="1">  1        2 0.30323570E+00 0.31017163E+04</pdfrwt>
<pdfrwt beam="2">  1       -2 0.18773149E+00 0.31017163E+04</pdfrwt>
<totfact> 0.94511008E-01</totfact>
</mgrwt>
</event>
<event>
12    3  0.4769008E-008  0.1409378E+04  0.7818608E-02  0.8947058E-01
          2   -1    0    0  501    0  0.00000000000E+00  0.00000000000E+00  0.54770776002E+03  0.54770776002E+03  0.00000000000E+00 0. -1.
         -2   -1    0    0    0  501 -0.00000000000E+00 -0.00000000000E+00 -0.90666373090E+03  0.90666373090E+03  0.00000000000E+00 0.  1.
         23    2    1    2    0    0 -0.30005929138E+03 -0.27001682561E+02 -0.42814140554E+03  0.53081880993E+03  0.87743242686E+02 0.  0.
        254    2    1    2    0    0  0.30005929138E+03  0.27001682561E+02  0.69185434665E+02  0.92355268099E+03  0.87028630978E+03 0.  0.
         23    2    4    4    0    0  0.10307568563E+03  0.12779376882E+03 -0.37501752431E+03  0.41902665936E+03  0.89383182974E+02 0.  0.
         23    2    4    4    0    0  0.19698360575E+03 -0.10079208626E+03  0.44420295898E+03  0.50452602162E+03  0.90932129336E+02 0.  0.
          2    1    3    3  502    0 -0.10455473561E+03  0.18021076669E+02 -0.97614188151E+02  0.14416997493E+03  0.00000000000E+00 0. -1.
         -2    1    3    3    0  502 -0.19550455577E+03 -0.45022759231E+02 -0.33052721739E+03  0.38664883500E+03  0.00000000000E+00 0.  1.
         13    1    5    5    0    0  0.15815936182E+02 -0.13244089655E+02 -0.51433773270E+02  0.55416448650E+02  0.00000000000E+00 0. -1.
        -13    1    5    5    0    0  0.87259749446E+02  0.14103785848E+03 -0.32358375104E+03  0.36361021071E+03  0.00000000000E+00 0.  1.
          2    1    6    6  503    0  0.78291286827E+02 -0.84249001015E+02  0.16966841975E+03  0.20497510197E+03  0.00000000000E+00 0. -1.
         -2    1    6    6    0  503  0.11869231892E+03 -0.16543085247E+02  0.27453453922E+03  0.29955091966E+03  0.00000000000E+00 0.  1.
<mgrwt>
<rscale>  0 0.14093782E+04</rscale>
<asrwt>0</asrwt>
<pdfrwt beam="1">  1        2 0.84262733E-01 0.14093782E+04</pdfrwt>
<pdfrwt beam="2">  1       -2 0.13948673E+00 0.14093782E+04</pdfrwt>
<totfact> 0.19499740E+01</totfact>
</mgrwt>
</event>
<event>
12    3  0.4769008E-008  0.2107936E+04  0.7818608E-02  0.8557756E-01
         -2   -1    0    0    0  501 -0.00000000000E+00  0.00000000000E+00  0.51831428782E+03  0.51831428782E+03  0.00000000000E+00 0.  1.
          2   -1    0    0  501    0  0.00000000000E+00 -0.00000000000E+00 -0.21431940781E+04  0.21431940781E+04  0.00000000000E+00 0. -1.
         23    2    1    2    0    0 -0.11774643870E+03 -0.13592073703E+03 -0.17312974643E+04  0.17429686932E+04  0.90610623408E+02 0.  0.
        254    2    1    2    0    0  0.11774643870E+03  0.13592073703E+03  0.10641767409E+03  0.91853967262E+03  0.89445611309E+03 0.  0.
         23    2    4    4    0    0  0.26549754098E+03  0.44105554290E+03  0.19212267916E+03  0.55712376507E+03  0.91961021946E+02 0.  0.
         23    2    4    4    0    0 -0.14775110228E+03 -0.30513480587E+03 -0.85705005075E+02  0.36141590756E+03  0.91315236188E+02 0.  0.
          2    1    3    3  502    0 -0.12799390843E+03 -0.13633882082E+03 -0.15260623875E+04  0.15374775203E+04  0.00000000000E+00 0. -1.
         -2    1    3    3    0  502  0.10247469727E+02  0.41808378807E+00 -0.20523507678E+03  0.20549117298E+03  0.00000000000E+00 0.  1.
         13    1    5    5    0    0  0.41911933827E+02  0.10931845837E+03  0.98034936915E+01  0.11748720793E+03  0.00000000000E+00 0. -1.
        -13    1    5    5    0    0  0.22358560716E+03  0.33173708453E+03  0.18231918547E+03  0.43963655714E+03  0.00000000000E+00 0.  1.
          3    1    6    6  503    0 -0.63864876146E+02 -0.80310890006E+02  0.99486014051E+01  0.10308994194E+03  0.00000000000E+00 0. -1.
         -3    1    6    6    0  503 -0.83886226138E+02 -0.22482391586E+03 -0.95653606480E+02  0.25832596562E+03  0.00000000000E+00 0.  1.
<mgrwt>
<rscale>  0 0.21079356E+04</rscale>
<asrwt>0</asrwt>
<pdfrwt beam="1">  1        2 0.32972216E+00 0.21079356E+04</pdfrwt>
<pdfrwt beam="2">  1       -2 0.79740661E-01 0.21079356E+04</pdfrwt>
<totfact> 0.71262528E+00</totfact>
</mgrwt>
</event>
<event>
12    3  0.4769008E-008  0.1582333E+04  0.7818608E-02  0.8831476E-01
          1   -1    0    0  501    0  0.00000000000E+00  0.00000000000E+00  0.11086120511E+04  0.11086120511E+04  0.00000000000E+00 0. -1.
         -1   -1    0    0    0  501 -0.00000000000E+00 -0.00000000000E+00 -0.56461958110E+03  0.56461958110E+03  0.00000000000E+00 0.  1.
         23    2    1    2    0    0  0.32776959344E+03  0.39281431639E+03  0.70963612306E+02  0.52442332025E+03  0.90818450810E+02 0.  0.
        254    2    1    2    0    0 -0.32776959344E+03 -0.39281431639E+03  0.47302885772E+03  0.11488083120E+04  0.91338285723E+03 0.  0.
         23    2    4    4    0    0 -0.27269280296E+03 -0.15944052792E+03  0.72069529897E+03  0.79213322985E+03  0.91053243441E+02 0.  0.
         23    2    4    4    0    0 -0.55076790472E+02 -0.23337378847E+03 -0.24766644126E+03  0.35667508212E+03  0.91551461427E+02 0.  0.
          4    1    3    3  502    0  0.19495008301E+03  0.19259014326E+03  0.52131337875E+00  0.27403789868E+03  0.00000000000E+00 0. -1.
         -4    1    3    3    0  502  0.13281951043E+03  0.20022417313E+03  0.70442298927E+02  0.25038542157E+03  0.00000000000E+00 0.  1.
         13    1    5    5    0    0 -0.10137975126E+03 -0.24410079767E+02  0.31055240814E+03  0.32759197817E+03  0.00000000000E+00 0. -1.
        -13    1    5    5    0    0 -0.17131305170E+03 -0.13503044816E+03  0.41014289083E+03  0.46454125168E+03  0.00000000000E+00 0.  1.
          1    1    6    6  503    0 -0.71777736532E+01  0.88818998416E+00  0.50098974844E+01  0.87982037297E+01  0.00000000000E+00 0. -1.
         -1    1    6    6    0  503 -0.47899016819E+02 -0.23426197845E+03 -0.25267633874E+03  0.34787687839E+03  0.00000000000E+00 0.  1.
<mgrwt>
<rscale>  0 0.15823325E+04</rscale>
<asrwt>0</asrwt>
<pdfrwt beam="1">  1        1 0.17055570E+00 0.15823325E+04</pdfrwt>
<pdfrwt beam="2">  1       -1 0.86864551E-01 0.15823325E+04</pdfrwt>
<totfact> 0.15676389E+01</totfact>
</mgrwt>
</event>
<event>
12    3  0.4769008E-008  0.1265094E+04  0.7818608E-02  0.9057713E-01
         -1   -1    0    0    0  501 -0.00000000000E+00  0.00000000000E+00  0.41154253673E+03  0.41154253673E+03  0.00000000000E+00 0.  1.
          1   -1    0    0  501    0  0.00000000000E+00 -0.00000000000E+00 -0.97223465761E+03  0.97223465761E+03  0.00000000000E+00 0. -1.
         23    2    1    2    0    0  0.17056780098E+02  0.17988102126E+03  0.12281857262E+03  0.23746486796E+03  0.93043248956E+02 0.  0.
        254    2    1    2    0    0 -0.17056780098E+02 -0.17988102126E+03 -0.68351069350E+03  0.11463123264E+04  0.90232863522E+03 0.  0.
         23    2    4    4    0    0 -0.25522110622E+03 -0.31263873051E+03 -0.94512544582E+01  0.41297131825E+03  0.87035593948E+02 0.  0.
         23    2    4    4    0    0  0.23816432612E+03  0.13275770925E+03 -0.67405943904E+03  0.73334100813E+03  0.95320780739E+02 0.  0.
          4    1    3    3  502    0  0.29829779479E+02  0.18175301865E+03  0.12719251357E+03  0.22383456177E+03  0.00000000000E+00 0.  1.
         -4    1    3    3    0  502 -0.12772999381E+02 -0.18719973949E+01 -0.43739409465E+01  0.13630306190E+02  0.00000000000E+00 0. -1.
         13    1    5    5    0    0  0.54219716820E+01 -0.27796656529E+00  0.24929849203E+01  0.59741121637E+01  0.00000000000E+00 0. -1.
        -13    1    5    5    0    0 -0.26064307790E+03 -0.31236076395E+03 -0.11944239378E+02  0.40699720609E+03  0.00000000000E+00 0.  1.
          1    1    6    6  503    0  0.33459931582E+02 -0.14688168469E+02 -0.88707246137E+02  0.95938964095E+02  0.00000000000E+00 0. -1.
         -1    1    6    6    0  503  0.20470439454E+03  0.14744587772E+03 -0.58535219290E+03  0.63740204403E+03  0.00000000000E+00 0.  1.
<mgrwt>
<rscale>  0 0.12650943E+04</rscale>
<asrwt>0</asrwt>
<pdfrwt beam="1">  1        1 0.14957456E+00 0.12650943E+04</pdfrwt>
<pdfrwt beam="2">  1       -1 0.63314237E-01 0.12650943E+04</pdfrwt>
<totfact> 0.39661678E+01</totfact>
</mgrwt>
</event>
<event>
12    3  0.4769008E-008  0.2390131E+04  0.7818608E-02  0.8443207E-01
          2   -1    0    0  501    0  0.00000000000E+00  0.00000000000E+00  0.25764160600E+04  0.25764160600E+04  0.00000000000E+00 0. -1.
         -2   -1    0    0    0  501 -0.00000000000E+00 -0.00000000000E+00 -0.55432895776E+03  0.55432895776E+03  0.00000000000E+00 0.  1.
         23    2    1    2    0    0  0.84205277589E+03  0.19460076182E+03  0.14053195202E+03  0.88017827925E+03  0.89678536151E+02 0.  0.
        254    2    1    2    0    0 -0.84205277589E+03 -0.19460076182E+03  0.18815551502E+04  0.22505667385E+04  0.88197422140E+03 0.  0.
         23    2    4    4    0    0 -0.88357159646E+03 -0.31135556161E+03  0.10740363261E+04  0.14281007834E+04  0.90976732614E+02 0.  0.
         23    2    4    4    0    0  0.41518820570E+02  0.11675479979E+03  0.80751882406E+03  0.82246595508E+03  0.94911012552E+02 0.  0.
          3    1    3    3  502    0  0.21457380550E+03  0.39457368274E+02  0.74043490096E+02  0.23039366386E+03  0.00000000000E+00 0.  1.
         -3    1    3    3    0  502  0.62747897039E+03  0.15514339355E+03  0.66488461922E+02  0.64978461540E+03  0.00000000000E+00 0. -1.
         13    1    5    5    0    0 -0.85070036480E+03 -0.30468847101E+03  0.10059812567E+04  0.13522294421E+04  0.00000000000E+00 0. -1.
        -13    1    5    5    0    0 -0.32871231662E+02 -0.66670905979E+01  0.68055069396E+02  0.75871341352E+02  0.00000000000E+00 0.  1.
          2    1    6    6  503    0  0.55136816502E+02  0.12705194521E+03  0.73780615731E+03  0.75069314042E+03  0.00000000000E+00 0. -1.
         -2    1    6    6    0  503 -0.13617995932E+02 -0.10297145417E+02  0.69712666759E+02  0.71772814656E+02  0.00000000000E+00 0.  1.
<mgrwt>
<rscale>  0 0.23901314E+04</rscale>
<asrwt>0</asrwt>
<pdfrwt beam="1">  1        2 0.39637170E+00 0.23901314E+04</pdfrwt>
<pdfrwt beam="2">  1       -2 0.85281379E-01 0.23901314E+04</pdfrwt>
<totfact> 0.33810377E+00</totfact>
</mgrwt>
</event>
<event>
12    3  0.4769008E-008  0.3922481E+04  0.7818608E-02  0.8020370E-01
          1   -1    0    0  501    0  0.00000000000E+00  0.00000000000E+00  0.22154466766E+04  0.22154466766E+04  0.00000000000E+00 0. -1.
         -1   -1    0    0    0  501 -0.00000000000E+00 -0.00000000000E+00 -0.17362021692E+04  0.17362021692E+04  0.00000000000E+00 0.  1.
         23    2    1    2    0    0 -0.12778104314E+04 -0.74411801494E+03  0.13473451567E+04  0.20025220094E+04  0.90798172062E+02 0.  0.
        254    2    1    2    0    0  0.12778104314E+04  0.74411801494E+03 -0.86810064933E+03  0.19491268365E+04  0.92681474339E+03 0.  0.
         23    2    4    4    0    0 -0.12506199900E+03 -0.92328673860E+00 -0.69753260774E+02  0.16901824652E+03  0.89779141319E+02 0.  0.
         23    2    4    4    0    0  0.14028724304E+04  0.74504130168E+03 -0.79834738856E+03  0.17801085899E+04  0.91051864853E+02 0.  0.
          2    1    3    3  502    0 -0.11962878266E+04 -0.67188624903E+03  0.12343270263E+04  0.18455619479E+04  0.00000000000E+00 0. -1.
         -2    1    3    3    0  502 -0.81522604770E+02 -0.72231765913E+02  0.11301813041E+03  0.15696006147E+03  0.00000000000E+00 0.  1.
         13    1    5    5    0    0 -0.13665599410E+03 -0.54092699076E+01 -0.74467738604E+02  0.15572271837E+03  0.00000000000E+00 0. -1.
        -13    1    5    5    0    0  0.11593995104E+02  0.44859831690E+01  0.47144778305E+01  0.13295528145E+02  0.00000000000E+00 0.  1.
          2    1    6    6  503    0  0.12640896603E+04  0.67842487223E+03 -0.69059059571E+03  0.15921992173E+04  0.00000000000E+00 0. -1.
         -2    1    6    6    0  503  0.13878277001E+03  0.66616429454E+02 -0.10775679285E+03  0.18790937266E+03  0.00000000000E+00 0.  1.
<mgrwt>
<rscale>  0 0.39224805E+04</rscale>
<asrwt>0</asrwt>
<pdfrwt beam="1">  1        1 0.34083795E+00 0.39224805E+04</pdfrwt>
<pdfrwt beam="2">  1       -1 0.26710803E+00 0.39224805E+04</pdfrwt>
<totfact> 0.90357842E-02</totfact>
</mgrwt>
</event>
<event>
12    3  0.4769008E-008  0.1664626E+04  0.7818608E-02  0.8781801E-01
          2   -1    0    0  501    0  0.00000000000E+00  0.00000000000E+00  0.16269378812E+04  0.16269378812E+04  0.00000000000E+00 0. -1.
         -2   -1    0    0    0  501 -0.00000000000E+00 -0.00000000000E+00 -0.42579685376E+03  0.42579685376E+03  0.00000000000E+00 0.  1.
         23    2    1    2    0    0 -0.28760787867E+03  0.45219449374E+03  0.48167927313E+03  0.72680902739E+03  0.95069911629E+02 0.  0.
        254    2    1    2    0    0  0.28760787867E+03 -0.45219449374E+03  0.71946175434E+03  0.13259257076E+04  0.97634810087E+03 0.  0.
         23    2    4    4    0    0  0.57983911709E+03 -0.31539101771E+03  0.73342873488E+03  0.99062437013E+03  0.87943378282E+02 0.  0.
         23    2    4    4    0    0 -0.29223123843E+03 -0.13680347603E+03 -0.13966980537E+02  0.33530133747E+03  0.90097850125E+02 0.  0.
          4    1    3    3  502    0 -0.86758109376E+02  0.13880269226E+03  0.20858446157E+03  0.26514266826E+03  0.00000000000E+00 0. -1.
         -4    1    3    3    0  502 -0.20084976929E+03  0.31339180148E+03  0.27309481156E+03  0.46166635914E+03  0.00000000000E+00 0.  1.
         13    1    5    5    0    0  0.33609530695E+03 -0.22977550916E+03  0.46578147579E+03  0.61863496761E+03  0.00000000000E+00 0.  1.
        -13    1    5    5    0    0  0.24374381015E+03 -0.85615508559E+02  0.26764725909E+03  0.37198940252E+03  0.00000000000E+00 0. -1.
          2    1    6    6  503    0 -0.18435157019E+03 -0.12824808486E+03  0.86713626077E+01  0.22474043969E+03  0.00000000000E+00 0. -1.
         -2    1    6    6    0  503 -0.10787966824E+03 -0.85553911610E+01 -0.22638343145E+02  0.11056089778E+03  0.00000000000E+00 0.  1.
<mgrwt>
<rscale>  0 0.16646261E+04</rscale>
<asrwt>0</asrwt>
<pdfrwt beam="1">  1        2 0.25029813E+00 0.16646261E+04</pdfrwt>
<pdfrwt beam="2">  1       -2 0.65507209E-01 0.16646261E+04</pdfrwt>
<totfact> 0.22063337E+01</totfact>
</mgrwt>
</event>
<event>
12    3  0.4769008E-008  0.1782868E+04  0.7818608E-02  0.8715464E-01
         -2   -1    0    0    0  501 -0.00000000000E+00  0.00000000000E+00  0.63638356761E+03  0.63638356761E+03  0.00000000000E+00 0.  1.
          2   -1    0    0  501    0  0.00000000000E+00 -0.00000000000E+00 -0.12487030959E+04  0.12487030959E+04  0.00000000000E+00 0. -1.
         23    2    1    2    0    0 -0.20534168980E+03  0.62094330111E+03 -0.12377522867E+03  0.67190553251E+03  0.91656667079E+02 0.  0.
        254    2    1    2    0    0  0.20534168980E+03 -0.62094330111E+03 -0.48854429963E+03  0.12131811310E+04  0.89743920749E+03 0.  0.
         23    2    4    4    0    0 -0.29968535919E+03 -0.10232609907E+02 -0.13928499120E+03  0.34237593117E+03  0.88909778174E+02 0.  0.
         23    2    4    4    0    0  0.50502704899E+03 -0.61071069120E+03 -0.34925930843E+03  0.87080519983E+03  0.91103034825E+02 0.  0.
          3    1    3    3  502    0  0.25136083283E+01  0.37594179901E+02 -0.23928302477E+02  0.44634115301E+02  0.00000000000E+00 0. -1.
         -3    1    3    3    0  502 -0.20785529813E+03  0.58334912121E+03 -0.99846926191E+02  0.62727141721E+03  0.00000000000E+00 0.  1.
         13    1    5    5    0    0 -0.27755596630E+02 -0.27171295422E+02 -0.68627523901E+01  0.39442994429E+02  0.00000000000E+00 0. -1.
        -13    1    5    5    0    0 -0.27192976256E+03  0.16938685515E+02 -0.13242223881E+03  0.30293293674E+03  0.00000000000E+00 0.  1.
          3    1    6    6  503    0  0.30915907795E+03 -0.41570945354E+03 -0.18994938074E+03  0.55179203735E+03  0.00000000000E+00 0. -1.
         -3    1    6    6    0  503  0.19586797104E+03 -0.19500123766E+03 -0.15930992769E+03  0.31901316247E+03  0.00000000000E+00 0.  1.
<mgrwt>
<rscale>  0 0.17828675E+04</rscale>
<asrwt>0</asrwt>
<pdfrwt beam="1">  1        2 0.19210817E+00 0.17828675E+04</pdfrwt>
<pdfrwt beam="2">  1       -2 0.97905165E-01 0.17828675E+04</pdfrwt>
<totfact> 0.14548287E+01</totfact>
</mgrwt>
</event>
