<event>
12    6  0.1530720E-007  0.1189666E+04  0.7818608E-02  0.9121950E-01
         -3   -1    0    0    0  501 -0.00000000000E+00  0.00000000000E+00  0.56829339651E+03  0.56829339651E+03  0.00000000000E+00 0.  1.
          4   -1    0    0  501    0  0.00000000000E+00 -0.00000000000E+00 -0.62261200748E+03  0.62261200748E+03  0.00000000000E+00 0. -1.
         24    2    1    2    0    0  0.23192656104E+02 -0.20633355125E+03  0.12144298806E+03  0.25434869093E+03  0.82664524209E+02 0.  0.
        254    2    1    2    0    0 -0.23192656104E+02  0.20633355125E+03 -0.17576159904E+03  0.93655671305E+03  0.89617794182E+03 0.  0.
         23    2    4    4    0    0  0.29683237633E+03 -0.21285349555E+03 -0.11506299726E+02  0.37677081499E+03  0.91693957768E+02 0.  0.
         23    2    4    4    0    0 -0.32002503243E+03  0.41918704680E+03 -0.16425529931E+03  0.55978589806E+03  0.90811049611E+02 0.  0.
          2    1    3    3  502    0  0.39743929766E+02 -0.84918243003E+02  0.84878347308E+02  0.12647142677E+03  0.00000000000E+00 0. -1.
         -1    1    3    3    0  502 -0.16551273663E+02 -0.12141530825E+03  0.36564640754E+02  0.12787726416E+03  0.00000000000E+00 0.  1.
         11    1    5    5    0    0  0.29969792808E+03 -0.20915370563E+03 -0.12158786933E+01  0.36546627620E+03  0.00000000000E+00 0. -1.
        -11    1    5    5    0    0 -0.28655517541E+01 -0.36997899140E+01 -0.10290421032E+02  0.11304538792E+02  0.00000000000E+00 0.  1.
          3    1    6    6  503    0 -0.20256383673E+03  0.32008810530E+03 -0.91190022523E+02  0.38962048626E+03  0.00000000000E+00 0. -1.
         -3    1    6    6    0  503 -0.11746119571E+03  0.99098941498E+02 -0.73065276790E+02  0.17016541181E+03  0.00000000000E+00 0.  1.
<mgrwt>
<rscale>  0 0.11896660E+04</rscale>
<asrwt>0</asrwt>
<pdfrwt beam="1">  1        4 0.95786462E-01 0.11896660E+04</pdfrwt>
<pdfrwt beam="2">  1       -3 0.87429754E-01 0.11896660E+04</pdfrwt>
<totfact> 0.24569789E+00</totfact>
</mgrwt>
</event>
<event>
12    6  0.1530720E-007  0.1365867E+04  0.7818608E-02  0.8978903E-01
          4   -1    0    0  501    0  0.00000000000E+00  0.00000000000E+00  0.72367914448E+03  0.72367914448E+03  0.00000000000E+00 0. -1.
         -3   -1    0    0    0  501 -0.00000000000E+00 -0.00000000000E+00 -0.64448195143E+03  0.64448195143E+03  0.00000000000E+00 0.  1.
         24    2    1    2    0    0 -0.10171626620E+03  0.10493383423E+03  0.36420907589E+03  0.40085171694E+03  0.81710095071E+02 0.  0.
        254    2    1    2    0    0  0.10171626620E+03 -0.10493383423E+03 -0.28501188284E+03  0.96730937897E+03  0.91274221603E+03 0.  0.
         23    2    4    4    0    0 -0.69572866493E+02  0.31524972999E+03  0.11575283540E+03  0.35511419648E+03  0.92111875629E+02 0.  0.
         23    2    4    4    0    0  0.17128913269E+03 -0.42018356422E+03 -0.40076471824E+03  0.61219518249E+03  0.90974652875E+02 0.  0.
          2    1    3    3  502    0 -0.91089926417E+02  0.82055386574E+02  0.35217120664E+03  0.37290081784E+03  0.00000000000E+00 0. -1.
         -1    1    3    3    0  502 -0.10626339784E+02  0.22878447655E+02  0.12037869251E+02  0.27950899098E+02  0.00000000000E+00 0.  1.
         11    1    5    5    0    0  0.20323544118E+02  0.86250809912E+02  0.43482829083E+02  0.98706661786E+02  0.00000000000E+00 0.  1.
        -11    1    5    5    0    0 -0.89896410611E+02  0.22899892007E+03  0.72270006316E+02  0.25640753470E+03  0.00000000000E+00 0. -1.
          1    1    6    6  503    0  0.94088564139E+02 -0.25906412330E+03 -0.18447726744E+03  0.33166057964E+03  0.00000000000E+00 0. -1.
         -1    1    6    6    0  503  0.77200568555E+02 -0.16111944091E+03 -0.21628745080E+03  0.28053460285E+03  0.00000000000E+00 0.  1.
<mgrwt>
<rscale>  0 0.13658670E+04</rscale>
<asrwt>0</asrwt>
<pdfrwt beam="1">  1        4 0.11133525E+00 0.13658670E+04</pdfrwt>
<pdfrwt beam="2">  1       -3 0.99151069E-01 0.13658670E+04</pdfrwt>
<totfact> 0.12665430E+00</totfact>
</mgrwt>
</event>
<event>
12    6  0.1530720E-007  0.2087597E+04  0.7818608E-02  0.8566727E-01
          2   -1    0    0  501    0  0.00000000000E+00  0.00000000000E+00  0.11286009266E+04  0.11286009266E+04  0.00000000000E+00 0. -1.
         -1   -1    0    0    0  501 -0.00000000000E+00 -0.00000000000E+00 -0.96536792847E+03  0.96536792847E+03  0.00000000000E+00 0.  1.
         24    2    1    2    0    0  0.62862807346E+03 -0.34239712312E+03 -0.38480658552E+03  0.81642753489E+03  0.77902290063E+02 0.  0.
        254    2    1    2    0    0 -0.62862807346E+03  0.34239712312E+03  0.54803958367E+03  0.12775413202E+04  0.90518252023E+03 0.  0.
         23    2    4    4    0    0 -0.31188307416E+03  0.99544258101E+02 -0.22254581703E+03  0.40590504696E+03  0.89733801884E+02 0.  0.
         23    2    4    4    0    0 -0.31674499930E+03  0.24285286502E+03  0.77058540070E+03  0.87163627326E+03  0.81504751145E+02 0.  0.
          4    1    3    3  502    0  0.15824127301E+03 -0.64024972995E+02 -0.61859680932E+02  0.18156573954E+03  0.00000000000E+00 0. -1.
         -3    1    3    3    0  502  0.47038680045E+03 -0.27837215012E+03 -0.32294690459E+03  0.63486179534E+03  0.00000000000E+00 0.  1.
         11    1    5    5    0    0 -0.11302673477E+03  0.69255567274E+01 -0.11572629458E+03  0.16191226441E+03  0.00000000000E+00 0.  1.
        -11    1    5    5    0    0 -0.19885633940E+03  0.92618701373E+02 -0.10681952245E+03  0.24399278255E+03  0.00000000000E+00 0. -1.
          3    1    6    6  503    0 -0.23833508873E+02  0.33039536840E+02  0.40294698583E+02  0.57300173418E+02  0.00000000000E+00 0. -1.
         -3    1    6    6    0  503 -0.29291149042E+03  0.20981332818E+03  0.73029070212E+03  0.81433609984E+03  0.00000000000E+00 0.  1.
<mgrwt>
<rscale>  0 0.20875968E+04</rscale>
<asrwt>0</asrwt>
<pdfrwt beam="1">  1        2 0.17363091E+00 0.20875968E+04</pdfrwt>
<pdfrwt beam="2">  1       -1 0.14851814E+00 0.20875968E+04</pdfrwt>
<totfact> 0.78869170E+00</totfact>
</mgrwt>
</event>
<event>
12    6  0.1530720E-007  0.2132635E+04  0.7818608E-02  0.8547002E-01
         -1   -1    0    0    0  501 -0.00000000000E+00  0.00000000000E+00  0.77722126165E+03  0.77722126165E+03  0.00000000000E+00 0.  1.
          2   -1    0    0  501    0  0.00000000000E+00 -0.00000000000E+00 -0.14629465588E+04  0.14629465588E+04  0.00000000000E+00 0. -1.
         24    2    1    2    0    0 -0.88915583143E+02  0.24083926103E+03  0.58313438671E+03  0.64237092762E+03  0.81762858925E+02 0.  0.
        254    2    1    2    0    0  0.88915583143E+02 -0.24083926103E+03 -0.12688596839E+04  0.15977968928E+04  0.93650439554E+03 0.  0.
         23    2    4    4    0    0  0.11633122632E+03  0.21887669847E+03 -0.21210723813E+02  0.26486915641E+03  0.90916510407E+02 0.  0.
         23    2    4    4    0    0 -0.27415643176E+02 -0.45971595950E+03 -0.12476489600E+04  0.13329277364E+04  0.89319886476E+02 0.  0.
          2    1    3    3  502    0 -0.49037632299E+02  0.54556551957E+02  0.10888708276E+03  0.13129167351E+03  0.00000000000E+00 0. -1.
         -1    1    3    3    0  502 -0.39877950844E+02  0.18628270907E+03  0.47424730396E+03  0.51107925410E+03  0.00000000000E+00 0.  1.
         11    1    5    5    0    0  0.13139288255E+03  0.20442864894E+03 -0.17237110611E+02  0.24362323385E+03  0.00000000000E+00 0.  1.
        -11    1    5    5    0    0 -0.15061656227E+02  0.14448049531E+02 -0.39736132028E+01  0.21245922560E+02  0.00000000000E+00 0. -1.
          4    1    6    6  503    0  0.41676081969E+01 -0.11425493741E+03 -0.42540309563E+03  0.44049898235E+03  0.00000000000E+00 0. -1.
         -4    1    6    6    0  503 -0.31583251373E+02 -0.34546102209E+03 -0.82224586442E+03  0.89242875408E+03  0.00000000000E+00 0.  1.
<mgrwt>
<rscale>  0 0.21326351E+04</rscale>
<asrwt>0</asrwt>
<pdfrwt beam="1">  1        2 0.22506870E+00 0.21326351E+04</pdfrwt>
<pdfrwt beam="2">  1       -1 0.11957250E+00 0.21326351E+04</pdfrwt>
<totfact> 0.87132082E+00</totfact>
</mgrwt>
</event>
<event>
12    6  0.1530720E-007  0.1231705E+04  0.7818608E-02  0.9085549E-01
         -1   -1    0    0    0  501 -0.00000000000E+00  0.00000000000E+00  0.49843704463E+03  0.49843704463E+03  0.00000000000E+00 0.  1.
          2   -1    0    0  501    0  0.00000000000E+00 -0.00000000000E+00 -0.76092731035E+03  0.76092731035E+03  0.00000000000E+00 0. -1.
         24    2    1    2    0    0 -0.26260715589E+03  0.94866076981E+02 -0.82030388833E+02  0.30124339298E+03  0.77823558378E+02 0.  0.
        254    2    1    2    0    0  0.26260715589E+03 -0.94866076981E+02 -0.18045987689E+03  0.95812096200E+03  0.89859218768E+03 0.  0.
         23    2    4    4    0    0 -0.11070597720E+03 -0.39649511100E+03 -0.20599564280E+03  0.46919275957E+03  0.90793470855E+02 0.  0.
         23    2    4    4    0    0  0.37331313309E+03  0.30162903402E+03  0.25535765911E+02  0.48892820242E+03  0.89754901189E+02 0.  0.
          4    1    3    3  502    0  0.47700839769E+01 -0.23022212677E+01 -0.58677668945E+00  0.53289990425E+01  0.00000000000E+00 0. -1.
         -3    1    3    3    0  502 -0.26737723987E+03  0.97168298249E+02 -0.81443612143E+02  0.29591439394E+03  0.00000000000E+00 0.  1.
         11    1    5    5    0    0 -0.47246193690E+02 -0.30060225322E+03 -0.12726826092E+03  0.32983500072E+03  0.00000000000E+00 0.  1.
        -11    1    5    5    0    0 -0.63459783508E+02 -0.95892857773E+02 -0.78727381881E+02  0.13935775885E+03  0.00000000000E+00 0. -1.
          2    1    6    6  503    0  0.23467561398E+03  0.16292805863E+03 -0.23894779190E+02  0.28668651269E+03  0.00000000000E+00 0. -1.
         -2    1    6    6    0  503  0.13863751910E+03  0.13870097538E+03  0.49430545101E+02  0.20224168973E+03  0.00000000000E+00 0.  1.
<mgrwt>
<rscale>  0 0.12317051E+04</rscale>
<asrwt>0</asrwt>
<pdfrwt beam="1">  1        2 0.11706574E+00 0.12317051E+04</pdfrwt>
<pdfrwt beam="2">  1       -1 0.76682622E-01 0.12317051E+04</pdfrwt>
<totfact> 0.70637832E+01</totfact>
</mgrwt>
</event>
<event>
12    6  0.1530720E-007  0.1573168E+04  0.7818608E-02  0.8837204E-01
         -1   -1    0    0    0  501 -0.00000000000E+00  0.00000000000E+00  0.49748001297E+03  0.49748001297E+03  0.00000000000E+00 0.  1.
          2   -1    0    0  501    0  0.00000000000E+00 -0.00000000000E+00 -0.12436965821E+04  0.12436965821E+04  0.00000000000E+00 0. -1.
         24    2    1    2    0    0  0.29692066078E+03 -0.37966454612E+02  0.22612360947E+03  0.38274488830E+03  0.75884334943E+02 0.  0.
        254    2    1    2    0    0 -0.29692066078E+03  0.37966454612E+02 -0.97234017861E+03  0.13584317068E+04  0.90015995722E+03 0.  0.
         23    2    4    4    0    0 -0.58659391110E+03  0.47979547247E+02 -0.42260855424E+03  0.72997605162E+03  0.88727630057E+02 0.  0.
         23    2    4    4    0    0  0.28967325032E+03 -0.10013092635E+02 -0.54973162437E+03  0.62845565516E+03  0.93492233322E+02 0.  0.
          2    1    3    3  502    0  0.24907974271E+03 -0.33342393623E+02  0.14984082401E+03  0.29258281901E+03  0.00000000000E+00 0. -1.
         -1    1    3    3    0  502  0.47840918070E+02 -0.46240609895E+01  0.76282785457E+02  0.90162069292E+02  0.00000000000E+00 0.  1.
         11    1    5    5    0    0 -0.52808592618E+03  0.30003791424E+02 -0.34657652586E+03  0.63236876995E+03  0.00000000000E+00 0.  1.
        -11    1    5    5    0    0 -0.58507984920E+02  0.17975755823E+02 -0.76032028377E+02  0.97607281675E+02  0.00000000000E+00 0. -1.
          2    1    6    6  503    0  0.20426497366E+03  0.36191210386E+02 -0.37426151250E+03  0.42790847493E+03  0.00000000000E+00 0.  1.
         -2    1    6    6    0  503  0.85408276663E+02 -0.46204303020E+02 -0.17547011187E+03  0.20054718023E+03  0.00000000000E+00 0. -1.
<mgrwt>
<rscale>  0 0.15731677E+04</rscale>
<asrwt>0</asrwt>
<pdfrwt beam="1">  1        2 0.19133793E+00 0.15731677E+04</pdfrwt>
<pdfrwt beam="2">  1       -1 0.76535387E-01 0.15731677E+04</pdfrwt>
<totfact> 0.33490431E+01</totfact>
</mgrwt>
</event>
<event>
12    6  0.1530720E-007  0.1449842E+04  0.7818608E-02  0.8918510E-01
          2   -1    0    0  501    0  0.00000000000E+00  0.00000000000E+00  0.64059128058E+03  0.64059128058E+03  0.00000000000E+00 0. -1.
         -1   -1    0    0    0  501 -0.00000000000E+00 -0.00000000000E+00 -0.82035243746E+03  0.82035243746E+03  0.00000000000E+00 0.  1.
         24    2    1    2    0    0  0.98018550543E+02 -0.11824990526E+03  0.37781578072E+03  0.41564663181E+03  0.80166589263E+02 0.  0.
        254    2    1    2    0    0 -0.98018550543E+02  0.11824990526E+03 -0.55757693760E+03  0.10452970862E+04  0.87072572075E+03 0.  0.
         23    2    4    4    0    0 -0.16831009923E+03  0.24009038772E+03 -0.73796955286E+03  0.79908549091E+03  0.89257364174E+02 0.  0.
         23    2    4    4    0    0  0.70291548684E+02 -0.12184048246E+03  0.18039261526E+03  0.24621159531E+03  0.91063983236E+02 0.  0.
          4    1    3    3  502    0  0.76763666319E+02 -0.37700597116E+02  0.23793699189E+03  0.25283988530E+03  0.00000000000E+00 0. -1.
         -3    1    3    3    0  502  0.21254884224E+02 -0.80549308145E+02  0.13987878883E+03  0.16280674651E+03  0.00000000000E+00 0.  1.
         11    1    5    5    0    0 -0.20141211432E+02 -0.43722585305E+01 -0.47196259506E+02  0.51500213145E+02  0.00000000000E+00 0.  1.
        -11    1    5    5    0    0 -0.14816888779E+03  0.24446264625E+03 -0.69077329335E+03  0.74758527777E+03  0.00000000000E+00 0. -1.
          2    1    6    6  503    0 -0.80455687942E+01 -0.74448138731E+02  0.67091709525E+02  0.10054130507E+03  0.00000000000E+00 0. -1.
         -2    1    6    6    0  503  0.78337117478E+02 -0.47392343724E+02  0.11330090574E+03  0.14567029024E+03  0.00000000000E+00 0.  1.
<mgrwt>
<rscale>  0 0.14498422E+04</rscale>
<asrwt>0</asrwt>
<pdfrwt beam="1">  1        2 0.98552505E-01 0.14498422E+04</pdfrwt>
<pdfrwt beam="2">  1       -1 0.12620807E+00 0.14498422E+04</pdfrwt>
<totfact> 0.27721221E+01</totfact>
</mgrwt>
</event>
<event>
12    6  0.1530720E-007  0.1455256E+04  0.7818608E-02  0.8914764E-01
          2   -1    0    0  501    0  0.00000000000E+00  0.00000000000E+00  0.83481828632E+03  0.83481828632E+03  0.00000000000E+00 0. -1.
         -1   -1    0    0    0  501 -0.00000000000E+00 -0.00000000000E+00 -0.63420130896E+03  0.63420130896E+03  0.00000000000E+00 0.  1.
         24    2    1    2    0    0  0.42073253131E+03  0.92669081593E+02  0.29597884141E+02  0.43900507323E+03  0.79031626549E+02 0.  0.
        254    2    1    2    0    0 -0.42073253131E+03 -0.92669081593E+02  0.17101909323E+03  0.10300145221E+04  0.91982550726E+03 0.  0.
         23    2    4    4    0    0 -0.21168952049E+03 -0.39667642882E+03  0.38046383946E+03  0.59592268885E+03  0.90589600304E+02 0.  0.
         23    2    4    4    0    0 -0.20904301082E+03  0.30400734722E+03 -0.20944474623E+03  0.43409183320E+03  0.91919368968E+02 0.  0.
          2    1    3    3  502    0  0.16828204675E+03  0.21913794419E+02  0.47473125100E+02  0.17621793113E+03  0.00000000000E+00 0. -1.
         -1    1    3    3    0  502  0.25245048456E+03  0.70755287173E+02 -0.17875240960E+02  0.26278714211E+03  0.00000000000E+00 0.  1.
         11    1    5    5    0    0 -0.18801753773E+03 -0.37547898170E+03  0.32121540244E+03  0.52869120945E+03  0.00000000000E+00 0.  1.
        -11    1    5    5    0    0 -0.23671982762E+02 -0.21197447121E+02  0.59248437018E+02  0.67231479393E+02  0.00000000000E+00 0. -1.
          1    1    6    6  503    0 -0.61923580438E+00 -0.41897248333E+01  0.34220055671E+01  0.54449397849E+01  0.00000000000E+00 0. -1.
         -1    1    6    6    0  503 -0.20842377501E+03  0.30819707206E+03 -0.21286675180E+03  0.42864689342E+03  0.00000000000E+00 0.  1.
<mgrwt>
<rscale>  0 0.14552565E+04</rscale>
<asrwt>0</asrwt>
<pdfrwt beam="1">  1        2 0.12843358E+00 0.14552565E+04</pdfrwt>
<pdfrwt beam="2">  1       -1 0.97569432E-01 0.14552565E+04</pdfrwt>
<totfact> 0.36301623E+01</totfact>
</mgrwt>
</event>
<event>
12    6  0.1530720E-007  0.3594459E+04  0.7818608E-02  0.8091762E-01
         -1   -1    0    0    0  501 -0.00000000000E+00  0.00000000000E+00  0.14176689276E+04  0.14176689276E+04  0.00000000000E+00 0.  1.
          2   -1    0    0  501    0  0.00000000000E+00 -0.00000000000E+00 -0.22784114614E+04  0.22784114614E+04  0.00000000000E+00 0. -1.
         24    2    1    2    0    0 -0.51450579489E+03  0.11542159012E+04 -0.15381227756E+04  0.19922280488E+04  0.78869295353E+02 0.  0.
        254    2    1    2    0    0  0.51450579489E+03 -0.11542159012E+04  0.67738024182E+03  0.17038523402E+04  0.92050977483E+03 0.  0.
         23    2    4    4    0    0  0.58806521871E+03 -0.12677648242E+04  0.60065660832E+03  0.15239069713E+04  0.91955124153E+02 0.  0.
         23    2    4    4    0    0 -0.73559423817E+02  0.11354892306E+03  0.76723633506E+02  0.17994536892E+03  0.90495707611E+02 0.  0.
          4    1    3    3  502    0 -0.43137176238E+03  0.10227471176E+04 -0.13281878802E+04  0.17309466511E+04  0.00000000000E+00 0. -1.
         -3    1    3    3    0  502 -0.83134032517E+02  0.13146878361E+03 -0.20993489550E+03  0.26128139768E+03  0.00000000000E+00 0.  1.
         11    1    5    5    0    0  0.55802319593E+03 -0.12307828113E+04  0.56665144759E+03  0.14653702873E+04  0.00000000000E+00 0.  1.
        -11    1    5    5    0    0  0.30042022783E+02 -0.36982012957E+02  0.34005160732E+02  0.58536683982E+02  0.00000000000E+00 0. -1.
          1    1    6    6  503    0 -0.44412484562E+01 -0.15632469317E+02  0.71223186918E+01  0.17743342648E+02  0.00000000000E+00 0. -1.
         -1    1    6    6    0  503 -0.69118175361E+02  0.12918139238E+03  0.69601314814E+02  0.16220202627E+03  0.00000000000E+00 0.  1.
<mgrwt>
<rscale>  0 0.35944586E+04</rscale>
<asrwt>0</asrwt>
<pdfrwt beam="1">  1        2 0.35052484E+00 0.35944586E+04</pdfrwt>
<pdfrwt beam="2">  1       -1 0.21810291E+00 0.35944586E+04</pdfrwt>
<totfact> 0.48989682E-01</totfact>
</mgrwt>
</event>
<event>
12    6  0.1530720E-007  0.2634734E+04  0.7818608E-02  0.8356498E-01
          2   -1    0    0  501    0  0.00000000000E+00  0.00000000000E+00  0.78525204592E+03  0.78525204592E+03  0.00000000000E+00 0. -1.
         -1   -1    0    0    0  501 -0.00000000000E+00 -0.00000000000E+00 -0.22100625096E+04  0.22100625096E+04  0.00000000000E+00 0.  1.
         24    2    1    2    0    0 -0.79688699784E+03 -0.56866293105E+03 -0.13393782838E+04  0.16610639805E+04  0.82419316352E+02 0.  0.
        254    2    1    2    0    0  0.79688699784E+03  0.56866293105E+03 -0.85432179916E+02  0.13342505750E+04  0.90250735352E+03 0.  0.
         23    2    4    4    0    0  0.75601179364E+03  0.44640271255E+03  0.28888487073E+03  0.92855536196E+03  0.89058283159E+02 0.  0.
         23    2    4    4    0    0  0.40875204207E+02  0.12226021850E+03 -0.37431705065E+03  0.40569521308E+03  0.88639766264E+02 0.  0.
          2    1    3    3  502    0 -0.18540479862E+03 -0.12775828764E+03 -0.25216286261E+03  0.33805802562E+03  0.00000000000E+00 0. -1.
         -1    1    3    3    0  502 -0.61148219923E+03 -0.44090464342E+03 -0.10872154212E+04  0.13230059548E+04  0.00000000000E+00 0.  1.
         11    1    5    5    0    0  0.72865603009E+03  0.40780528125E+03  0.26944346035E+03  0.87740785039E+03  0.00000000000E+00 0.  1.
        -11    1    5    5    0    0  0.27355763548E+02  0.38597431302E+02  0.19441410381E+02  0.51147511572E+02  0.00000000000E+00 0. -1.
          4    1    6    6  503    0  0.37202454059E+02  0.13315395946E+03 -0.36672091595E+03  0.39191610033E+03  0.00000000000E+00 0.  1.
         -4    1    6    6    0  503  0.36727501478E+01 -0.10893740958E+02 -0.75961347021E+01  0.13779112748E+02  0.00000000000E+00 0. -1.
<mgrwt>
<rscale>  0 0.26347342E+04</rscale>
<asrwt>0</asrwt>
<pdfrwt beam="1">  1        2 0.12080801E+00 0.26347342E+04</pdfrwt>
<pdfrwt beam="2">  1       -1 0.34000961E+00 0.26347342E+04</pdfrwt>
<totfact> 0.64256220E-01</totfact>
</mgrwt>
</event>
<event>
12    6  0.1530720E-007  0.1085729E+04  0.7818608E-02  0.9219215E-01
         -1   -1    0    0    0  501 -0.00000000000E+00  0.00000000000E+00  0.26034920005E+03  0.26034920005E+03  0.00000000000E+00 0.  1.
          2   -1    0    0  501    0  0.00000000000E+00 -0.00000000000E+00 -0.11319473822E+04  0.11319473822E+04  0.00000000000E+00 0. -1.
         24    2    1    2    0    0  0.10084790708E+02 -0.28307196060E+02 -0.32356810605E+03  0.33588575267E+03  0.84970107928E+02 0.  0.
        254    2    1    2    0    0 -0.10084790708E+02  0.28307196060E+02 -0.54803007608E+03  0.10564108296E+04  0.90264271791E+03 0.  0.
         23    2    4    4    0    0 -0.21177985158E+03 -0.16554156389E+03 -0.67752298997E+03  0.73499599742E+03  0.94482799373E+02 0.  0.
         23    2    4    4    0    0  0.20169506087E+03  0.19384875995E+03  0.12949291388E+03  0.32141483215E+03  0.90999122351E+02 0.  0.
          2    1    3    3  502    0 -0.28241057846E+02 -0.60222596658E+01 -0.23574554088E+03  0.23750744200E+03  0.00000000000E+00 0. -1.
         -1    1    3    3    0  502  0.38325848554E+02 -0.22284936394E+02 -0.87822565166E+02  0.98378310667E+02  0.00000000000E+00 0.  1.
         11    1    5    5    0    0 -0.72659496666E+02 -0.38534122346E+02 -0.32561271294E+03  0.33583912796E+03  0.00000000000E+00 0.  1.
        -11    1    5    5    0    0 -0.13912035491E+03 -0.12700744154E+03 -0.35191027703E+03  0.39915686946E+03  0.00000000000E+00 0. -1.
          2    1    6    6  503    0  0.68925142348E+02  0.10996060454E+03  0.94432682653E+02  0.16049779236E+03  0.00000000000E+00 0.  1.
         -2    1    6    6    0  503  0.13276991852E+03  0.83888155405E+02  0.35060231229E+02  0.16091703979E+03  0.00000000000E+00 0. -1.
<mgrwt>
<rscale>  0 0.10857285E+04</rscale>
<asrwt>0</asrwt>
<pdfrwt beam="1">  1        2 0.17414575E+00 0.10857285E+04</pdfrwt>
<pdfrwt beam="2">  1       -1 0.40053723E-01 0.10857285E+04</pdfrwt>
<totfact> 0.14320581E+02</totfact>
</mgrwt>
</event>
<event>
12    6  0.1530720E-007  0.1438824E+04  0.7818608E-02  0.8926185E-01
         -1   -1    0    0    0  501 -0.00000000000E+00  0.00000000000E+00  0.25401993715E+03  0.25401993715E+03  0.00000000000E+00 0.  1.
          2   -1    0    0  501    0  0.00000000000E+00 -0.00000000000E+00 -0.20374539244E+04  0.20374539244E+04  0.00000000000E+00 0. -1.
         24    2    1    2    0    0 -0.29134189126E+03  0.15449543079E+03 -0.96506364488E+03  0.10231960538E+04  0.82664321455E+02 0.  0.
        254    2    1    2    0    0  0.29134189126E+03 -0.15449543079E+03 -0.81837034239E+03  0.12682778078E+04  0.91107060359E+03 0.  0.
         23    2    4    4    0    0  0.58751899778E+03 -0.21353950589E+03 -0.41325214826E+03  0.75487078345E+03  0.90966303243E+02 0.  0.
         23    2    4    4    0    0 -0.29617710653E+03  0.59044075095E+02 -0.40511819412E+03  0.51340702436E+03  0.90878711546E+02 0.  0.
          4    1    3    3  502    0 -0.11591927059E+03  0.31356115694E+02 -0.43950162785E+03  0.45561185692E+03  0.00000000000E+00 0. -1.
         -1    1    3    3    0  502 -0.17542262067E+03  0.12313931510E+03 -0.52556201703E+03  0.56758419685E+03  0.00000000000E+00 0.  1.
         11    1    5    5    0    0  0.10460400519E+03 -0.53513127189E+02 -0.40850882814E+02  0.12439633158E+03  0.00000000000E+00 0.  1.
        -11    1    5    5    0    0  0.48291499260E+03 -0.16002637870E+03 -0.37240126545E+03  0.63047445187E+03  0.00000000000E+00 0. -1.
          4    1    6    6  503    0 -0.29216760351E+03  0.51371099129E+02 -0.40785451791E+03  0.50432747907E+03  0.00000000000E+00 0. -1.
         -4    1    6    6    0  503 -0.40095030192E+01  0.76729759661E+01  0.27363237904E+01  0.90795452818E+01  0.00000000000E+00 0.  1.
<mgrwt>
<rscale>  0 0.14388244E+04</rscale>
<asrwt>0</asrwt>
<pdfrwt beam="1">  1        2 0.31345446E+00 0.14388244E+04</pdfrwt>
<pdfrwt beam="2">  1       -1 0.39079989E-01 0.14388244E+04</pdfrwt>
<totfact> 0.44774430E+01</totfact>
</mgrwt>
</event>
<event>
12    6  0.1530720E-007  0.1815915E+04  0.7818608E-02  0.8697882E-01
          2   -1    0    0  501    0  0.00000000000E+00  0.00000000000E+00  0.11934034806E+04  0.11934034806E+04  0.00000000000E+00 0. -1.
         -1   -1    0    0    0  501 -0.00000000000E+00 -0.00000000000E+00 -0.69078597462E+03  0.69078597462E+03  0.00000000000E+00 0.  1.
         24    2    1    2    0    0 -0.51800733514E+03 -0.41912348167E+03  0.33861917841E+03  0.75184015744E+03  0.81268580717E+02 0.  0.
        254    2    1    2    0    0  0.51800733514E+03  0.41912348167E+03  0.16399832754E+03  0.11323492977E+04  0.90073491578E+03 0.  0.
         23    2    4    4    0    0  0.41952629600E+03 -0.20605938628E+03  0.19654763638E+02  0.47668724353E+03  0.91551268156E+02 0.  0.
         23    2    4    4    0    0  0.98481039141E+02  0.62518286794E+03  0.14434356390E+03  0.65566205421E+03  0.92225438196E+02 0.  0.
          4    1    3    3  502    0 -0.35601616329E+02 -0.30276819201E+02  0.49562013676E+02  0.68121612325E+02  0.00000000000E+00 0. -1.
         -3    1    3    3    0  502 -0.48240571881E+03 -0.38884666246E+03  0.28905716473E+03  0.68371854512E+03  0.00000000000E+00 0.  1.
         11    1    5    5    0    0  0.33122493319E+02  0.57221424072E+01 -0.99609119062E+01  0.35057984018E+02  0.00000000000E+00 0. -1.
        -11    1    5    5    0    0  0.38640380268E+03 -0.21178152868E+03  0.29615675544E+02  0.44162925951E+03  0.00000000000E+00 0.  1.
          3    1    6    6  503    0  0.35625329545E+02  0.30866497712E+03  0.11622719165E+03  0.33174085109E+03  0.00000000000E+00 0. -1.
         -3    1    6    6    0  503  0.62855709596E+02  0.31651789083E+03  0.28116372257E+02  0.32392120312E+03  0.00000000000E+00 0.  1.
<mgrwt>
<rscale>  0 0.18159145E+04</rscale>
<asrwt>0</asrwt>
<pdfrwt beam="1">  1        2 0.18360054E+00 0.18159145E+04</pdfrwt>
<pdfrwt beam="2">  1       -1 0.10627476E+00 0.18159145E+04</pdfrwt>
<totfact> 0.17010665E+01</totfact>
</mgrwt>
</event>
<event>
12    6  0.1530720E-007  0.1919625E+04  0.7818608E-02  0.8645149E-01
          2   -1    0    0  501    0  0.00000000000E+00  0.00000000000E+00  0.12415773529E+04  0.12415773529E+04  0.00000000000E+00 0. -1.
         -1   -1    0    0    0  501 -0.00000000000E+00 -0.00000000000E+00 -0.74199130213E+03  0.74199130213E+03  0.00000000000E+00 0.  1.
         24    2    1    2    0    0 -0.42252459290E+02 -0.20628166295E+03  0.92999676703E+03  0.95688211396E+03  0.79949975196E+02 0.  0.
        254    2    1    2    0    0  0.42252459290E+02  0.20628166295E+03 -0.43041071630E+03  0.10266865410E+04  0.90801678071E+03 0.  0.
         23    2    4    4    0    0  0.46531975075E+03  0.10428036351E+03 -0.25478703397E+03  0.54855590701E+03  0.92737725812E+02 0.  0.
         23    2    4    4    0    0 -0.42306729146E+03  0.10200129944E+03 -0.17562368233E+03  0.47813063402E+03  0.91515174738E+02 0.  0.
          2    1    3    3  502    0 -0.59375085347E+02 -0.17438006590E+03  0.83819444647E+03  0.85819795982E+03  0.00000000000E+00 0. -1.
         -1    1    3    3    0  502  0.17122626056E+02 -0.31901597048E+02  0.91802320564E+02  0.98684154139E+02  0.00000000000E+00 0.  1.
         11    1    5    5    0    0  0.22477852984E+03  0.72563931385E+02 -0.79438859995E+02  0.24920161334E+03  0.00000000000E+00 0.  1.
        -11    1    5    5    0    0  0.24054122091E+03  0.31716432129E+02 -0.17534817398E+03  0.29935429368E+03  0.00000000000E+00 0. -1.
          2    1    6    6  503    0 -0.99368668640E+02 -0.15007703225E+02 -0.41332089763E+02  0.10866326476E+03  0.00000000000E+00 0. -1.
         -2    1    6    6    0  503 -0.32369862282E+03  0.11700900266E+03 -0.13429159257E+03  0.36946736927E+03  0.00000000000E+00 0.  1.
<mgrwt>
<rscale>  0 0.19196245E+04</rscale>
<asrwt>0</asrwt>
<pdfrwt beam="1">  1        2 0.19101190E+00 0.19196245E+04</pdfrwt>
<pdfrwt beam="2">  1       -1 0.11415251E+00 0.19196245E+04</pdfrwt>
<totfact> 0.13328231E+01</totfact>
</mgrwt>
</event>
<event>
12    6  0.1530720E-007  0.4178567E+04  0.7818608E-02  0.7969462E-01
         -1   -1    0    0    0  501 -0.00000000000E+00  0.00000000000E+00  0.12758860936E+04  0.12758860936E+04  0.00000000000E+00 0.  1.
          2   -1    0    0  501    0  0.00000000000E+00 -0.00000000000E+00 -0.34212340988E+04  0.34212340988E+04  0.00000000000E+00 0. -1.
         24    2    1    2    0    0 -0.65467239790E+03 -0.10836757768E+04 -0.27558591495E+04  0.30338029250E+04  0.79065780628E+02 0.  0.
        254    2    1    2    0    0  0.65467239790E+03  0.10836757768E+04  0.61051114436E+03  0.16633172674E+04  0.88935444958E+03 0.  0.
         23    2    4    4    0    0  0.27857043936E+03  0.11011967312E+04  0.57057107153E+03  0.12743699860E+04  0.90729174798E+02 0.  0.
         23    2    4    4    0    0  0.37610195854E+03 -0.17520954413E+02  0.39940072830E+02  0.38894728139E+03  0.89023093763E+02 0.  0.
          4    1    3    3  502    0 -0.52254195754E+03 -0.87230430291E+03 -0.22848117311E+04  0.25008657583E+04  0.00000000000E+00 0. -1.
         -3    1    3    3    0  502 -0.13213044036E+03 -0.21137147387E+03 -0.47104741844E+03  0.53293716670E+03  0.00000000000E+00 0.  1.
         11    1    5    5    0    0  0.55110621355E+02  0.30836945985E+03  0.19571886794E+03  0.36937078880E+03  0.00000000000E+00 0. -1.
        -11    1    5    5    0    0  0.22345981800E+03  0.79282727135E+03  0.37485220359E+03  0.90499919723E+03  0.00000000000E+00 0.  1.
          2    1    6    6  503    0  0.99179932480E+02  0.34562253035E+02  0.72383711887E+01  0.10527868901E+03  0.00000000000E+00 0. -1.
         -2    1    6    6    0  503  0.27692202606E+03 -0.52083207448E+02  0.32701701641E+02  0.28366859239E+03  0.00000000000E+00 0.  1.
<mgrwt>
<rscale>  0 0.41785667E+04</rscale>
<asrwt>0</asrwt>
<pdfrwt beam="1">  1        2 0.52634370E+00 0.41785667E+04</pdfrwt>
<pdfrwt beam="2">  1       -1 0.19629017E+00 0.41785667E+04</pdfrwt>
<totfact> 0.12973587E-01</totfact>
</mgrwt>
</event>
<event>
12    6  0.1530720E-007  0.1401224E+04  0.7818608E-02  0.8952933E-01
          2   -1    0    0  501    0  0.00000000000E+00  0.00000000000E+00  0.10605975218E+04  0.10605975218E+04  0.00000000000E+00 0. -1.
         -1   -1    0    0    0  501 -0.00000000000E+00 -0.00000000000E+00 -0.46281182223E+03  0.46281182223E+03  0.00000000000E+00 0.  1.
         24    2    1    2    0    0  0.17349616868E+03 -0.21500606445E+03 -0.15110181816E+03  0.32484772792E+03  0.79785704144E+02 0.  0.
        254    2    1    2    0    0 -0.17349616868E+03  0.21500606445E+03  0.74888751772E+03  0.11985616161E+04  0.89408551331E+03 0.  0.
         23    2    4    4    0    0  0.28991929991E+03  0.31716264267E+03  0.25928943803E+03  0.51041092957E+03  0.92967531872E+02 0.  0.
         23    2    4    4    0    0 -0.46341546859E+03 -0.10215657822E+03  0.48959807969E+03  0.68815068654E+03  0.93033460367E+02 0.  0.
          2    1    3    3  502    0  0.91735143474E+01  0.30559868211E+01 -0.19452559574E+02  0.21723132714E+02  0.00000000000E+00 0. -1.
         -1    1    3    3    0  502  0.16432265434E+03 -0.21806205128E+03 -0.13164925858E+03  0.30312459521E+03  0.00000000000E+00 0.  1.
         11    1    5    5    0    0  0.22484458598E+03  0.18476988982E+03  0.15480028021E+03  0.32963332172E+03  0.00000000000E+00 0. -1.
        -11    1    5    5    0    0  0.65074713926E+02  0.13239275285E+03  0.10448915782E+03  0.18077760786E+03  0.00000000000E+00 0.  1.
          3    1    6    6  503    0 -0.27244459345E+03 -0.24496506599E+02  0.32168006419E+03  0.42226081873E+03  0.00000000000E+00 0. -1.
         -3    1    6    6    0  503 -0.19097087514E+03 -0.77660071621E+02  0.16791801550E+03  0.26588986781E+03  0.00000000000E+00 0.  1.
<mgrwt>
<rscale>  0 0.14012239E+04</rscale>
<asrwt>0</asrwt>
<pdfrwt beam="1">  1        2 0.16316885E+00 0.14012239E+04</pdfrwt>
<pdfrwt beam="2">  1       -1 0.71201819E-01 0.14012239E+04</pdfrwt>
<totfact> 0.50985977E+01</totfact>
</mgrwt>
</event>
<event>
12    6  0.1530720E-007  0.2431887E+04  0.7818608E-02  0.8427661E-01
         -1   -1    0    0    0  501 -0.00000000000E+00  0.00000000000E+00  0.56128664753E+03  0.56128664753E+03  0.00000000000E+00 0.  1.
          2   -1    0    0  501    0  0.00000000000E+00 -0.00000000000E+00 -0.26341602489E+04  0.26341602489E+04  0.00000000000E+00 0. -1.
         24    2    1    2    0    0 -0.12840876769E+03 -0.13976088426E+03  0.45754471290E+03  0.50183960954E+03  0.80460630220E+02 0.  0.
        254    2    1    2    0    0  0.12840876769E+03  0.13976088426E+03 -0.25304183143E+04  0.26936072869E+04  0.90359363344E+03 0.  0.
         23    2    4    4    0    0 -0.10268590727E+03 -0.24627157823E+03 -0.28687238327E+03  0.40342991702E+03  0.96259274192E+02 0.  0.
         23    2    4    4    0    0  0.23109467497E+03  0.38603246249E+03 -0.22435459310E+04  0.22901773699E+04  0.94806276384E+02 0.  0.
          2    1    3    3  502    0 -0.55276330498E+02 -0.82554980841E+02  0.32617451871E+03  0.34097010753E+03  0.00000000000E+00 0. -1.
         -1    1    3    3    0  502 -0.73132437196E+02 -0.57205903417E+02  0.13137019419E+03  0.16086950201E+03  0.00000000000E+00 0.  1.
         11    1    5    5    0    0  0.79091226780E+00 -0.58351515696E+01 -0.50188560383E+02  0.50532822297E+02  0.00000000000E+00 0.  1.
        -11    1    5    5    0    0 -0.10347681954E+03 -0.24043642666E+03 -0.23668382289E+03  0.35289709473E+03  0.00000000000E+00 0. -1.
          3    1    6    6  503    0  0.21684237486E+03  0.29165276680E+03 -0.18330104812E+04  0.18686918890E+04  0.00000000000E+00 0. -1.
         -3    1    6    6    0  503  0.14252300104E+02  0.94379695692E+02 -0.41053544984E+03  0.42148548088E+03  0.00000000000E+00 0.  1.
<mgrwt>
<rscale>  0 0.24318873E+04</rscale>
<asrwt>0</asrwt>
<pdfrwt beam="1">  1        2 0.40525543E+00 0.24318873E+04</pdfrwt>
<pdfrwt beam="2">  1       -1 0.86351791E-01 0.24318873E+04</pdfrwt>
<totfact> 0.39207195E+00</totfact>
</mgrwt>
</event>
<event>
12    6  0.1530720E-007  0.1499359E+04  0.7818608E-02  0.8884879E-01
         -1   -1    0    0    0  501 -0.00000000000E+00  0.00000000000E+00  0.30786051282E+03  0.30786051282E+03  0.00000000000E+00 0.  1.
          2   -1    0    0  501    0  0.00000000000E+00 -0.00000000000E+00 -0.18255655944E+04  0.18255655944E+04  0.00000000000E+00 0. -1.
         24    2    1    2    0    0  0.21069509695E+03  0.39564772008E+03 -0.68219708221E+03  0.82008615196E+03  0.78859973310E+02 0.  0.
        254    2    1    2    0    0 -0.21069509695E+03 -0.39564772008E+03 -0.83550799939E+03  0.13133399553E+04  0.90876767042E+03 0.  0.
         23    2    4    4    0    0  0.14968862823E+03 -0.52655467139E+03 -0.70636000567E+03  0.89832400608E+03  0.91515326081E+02 0.  0.
         23    2    4    4    0    0 -0.36038372518E+03  0.13090695131E+03 -0.12914799372E+03  0.41501594920E+03  0.92444440227E+02 0.  0.
          2    1    3    3  502    0  0.14123750567E+03  0.21525529549E+03 -0.44488942364E+03  0.51401310733E+03  0.00000000000E+00 0. -1.
         -1    1    3    3    0  502  0.69457591277E+02  0.18039242459E+03 -0.23730765857E+03  0.30607304463E+03  0.00000000000E+00 0.  1.
         11    1    5    5    0    0  0.67143717293E+01 -0.72739848183E+02 -0.53812163712E+02  0.90729913837E+02  0.00000000000E+00 0.  1.
        -11    1    5    5    0    0  0.14297425651E+03 -0.45381482320E+03 -0.65254784196E+03  0.80759409224E+03  0.00000000000E+00 0. -1.
          2    1    6    6  503    0 -0.30279245304E+03  0.10034234220E+03 -0.14098136702E+03  0.34875148904E+03  0.00000000000E+00 0. -1.
         -2    1    6    6    0  503 -0.57591272142E+02  0.30564609109E+02  0.11833373303E+02  0.66264460162E+02  0.00000000000E+00 0.  1.
<mgrwt>
<rscale>  0 0.14993593E+04</rscale>
<asrwt>0</asrwt>
<pdfrwt beam="1">  1        2 0.28085625E+00 0.14993593E+04</pdfrwt>
<pdfrwt beam="2">  1       -1 0.47363155E-01 0.14993593E+04</pdfrwt>
<totfact> 0.40893784E+01</totfact>
</mgrwt>
</event>
<event>
12    6  0.1530720E-007  0.1956953E+04  0.7818608E-02  0.8627015E-01
         -1   -1    0    0    0  501 -0.00000000000E+00  0.00000000000E+00  0.50600313395E+03  0.50600313395E+03  0.00000000000E+00 0.  1.
          2   -1    0    0  501    0  0.00000000000E+00 -0.00000000000E+00 -0.18921158183E+04  0.18921158183E+04  0.00000000000E+00 0. -1.
         24    2    1    2    0    0  0.28213637265E+03 -0.41269359861E+03 -0.12604788494E+04  0.13582182922E+04  0.77672776492E+02 0.  0.
        254    2    1    2    0    0 -0.28213637265E+03  0.41269359861E+03 -0.12563383488E+03  0.10399006601E+04  0.90315700916E+03 0.  0.
         23    2    4    4    0    0 -0.26617355879E+03  0.49986333255E+03  0.26191662031E+03  0.63062893624E+03  0.91546843800E+02 0.  0.
         23    2    4    4    0    0 -0.15962813864E+02 -0.87169733934E+02 -0.38755045519E+03  0.40927172381E+03  0.97234842776E+02 0.  0.
          4    1    3    3  502    0  0.25478844586E+03 -0.32321937104E+03 -0.99632908595E+03  0.10779886648E+04  0.00000000000E+00 0. -1.
         -3    1    3    3    0  502  0.27347926795E+02 -0.89474227576E+02 -0.26414976349E+03  0.28022962737E+03  0.00000000000E+00 0.  1.
         11    1    5    5    0    0 -0.77541215170E+01  0.47154455357E+02  0.46248153195E+02  0.66502336308E+02  0.00000000000E+00 0. -1.
        -11    1    5    5    0    0 -0.25841943727E+03  0.45270887719E+03  0.21566846711E+03  0.56412659994E+03  0.00000000000E+00 0.  1.
          3    1    6    6  503    0 -0.23826716397E+02  0.98848466980E+01 -0.34734618190E+02  0.43265648144E+02  0.00000000000E+00 0. -1.
         -3    1    6    6    0  503  0.78639025327E+01 -0.97054580632E+02 -0.35281583700E+03  0.36600607566E+03  0.00000000000E+00 0.  1.
<mgrwt>
<rscale>  0 0.19569533E+04</rscale>
<asrwt>0</asrwt>
<pdfrwt beam="1">  1        2 0.29109474E+00 0.19569533E+04</pdfrwt>
<pdfrwt beam="2">  1       -1 0.77846637E-01 0.19569533E+04</pdfrwt>
<totfact> 0.13459739E+01</totfact>
</mgrwt>
</event>
<event>
12    6  0.1530720E-007  0.1841120E+04  0.7818608E-02  0.8684733E-01
         -1   -1    0    0    0  501 -0.00000000000E+00  0.00000000000E+00  0.66711031110E+03  0.66711031110E+03  0.00000000000E+00 0.  1.
          2   -1    0    0  501    0  0.00000000000E+00 -0.00000000000E+00 -0.12703012005E+04  0.12703012005E+04  0.00000000000E+00 0. -1.
         24    2    1    2    0    0 -0.48569844830E+03  0.23795308425E+03 -0.69367905190E+03  0.88329469159E+03  0.80586798974E+02 0.  0.
        254    2    1    2    0    0  0.48569844830E+03 -0.23795308425E+03  0.90488162544E+02  0.10541168200E+04  0.90024969291E+03 0.  0.
         23    2    4    4    0    0  0.48767456856E+03 -0.52809632741E+03 -0.34540447224E+02  0.72536591256E+03  0.90831980980E+02 0.  0.
         23    2    4    4    0    0 -0.19761202681E+01  0.29014324316E+03  0.12502860977E+03  0.32875090740E+03  0.90873534405E+02 0.  0.
          4    1    3    3  502    0 -0.24414977548E+03  0.76153601405E+02 -0.34029287481E+03  0.42568500622E+03  0.00000000000E+00 0. -1.
         -3    1    3    3    0  502 -0.24154867281E+03  0.16179948285E+03 -0.35338617709E+03  0.45760968537E+03  0.00000000000E+00 0.  1.
         11    1    5    5    0    0  0.18084859256E+02 -0.55178943042E+02 -0.41859651331E+01  0.58217696567E+02  0.00000000000E+00 0.  1.
        -11    1    5    5    0    0  0.46958970931E+03 -0.47291738437E+03 -0.30354482090E+02  0.66714821600E+03  0.00000000000E+00 0. -1.
          1    1    6    6  503    0 -0.10566982725E+02  0.19982368263E+03  0.39295671844E+02  0.20392477802E+03  0.00000000000E+00 0. -1.
         -1    1    6    6    0  503  0.85908624574E+01  0.90319560524E+02  0.85732937924E+02  0.12482612938E+03  0.00000000000E+00 0.  1.
<mgrwt>
<rscale>  0 0.18411203E+04</rscale>
<asrwt>0</asrwt>
<pdfrwt beam="1">  1        2 0.19543095E+00 0.18411203E+04</pdfrwt>
<pdfrwt beam="2">  1       -1 0.10263236E+00 0.18411203E+04</pdfrwt>
<totfact> 0.16572009E+01</totfact>
</mgrwt>
</event>
<event>
12    6  0.1530720E-007  0.3179042E+04  0.7818608E-02  0.8194374E-01
          2   -1    0    0  501    0  0.00000000000E+00  0.00000000000E+00  0.18646277226E+04  0.18646277226E+04  0.00000000000E+00 0. -1.
         -1   -1    0    0    0  501 -0.00000000000E+00 -0.00000000000E+00 -0.13550035180E+04  0.13550035180E+04  0.00000000000E+00 0.  1.
         24    2    1    2    0    0 -0.11635293974E+04 -0.12139138808E+03 -0.64557792383E+03  0.13385442280E+04  0.79957905683E+02 0.  0.
        254    2    1    2    0    0  0.11635293974E+04  0.12139138808E+03  0.11552021284E+04  0.18810870126E+04  0.91403493567E+03 0.  0.
         23    2    4    4    0    0  0.93061827781E+03  0.23493204789E+03  0.34438739930E+03  0.10241357988E+04  0.94910523332E+02 0.  0.
         23    2    4    4    0    0  0.23291111963E+03 -0.11354065981E+03  0.81081472910E+03  0.85695121380E+03  0.99024172916E+02 0.  0.
          2    1    3    3  502    0 -0.10955518534E+03  0.76217218788E+01 -0.45501858892E+02  0.11887324528E+03  0.00000000000E+00 0. -1.
         -1    1    3    3    0  502 -0.10539742121E+04 -0.12901310996E+03 -0.60007606494E+03  0.12196709827E+04  0.00000000000E+00 0.  1.
         11    1    5    5    0    0  0.69141405854E+03  0.18574658038E+03  0.29843777438E+03  0.77564186172E+03  0.00000000000E+00 0. -1.
        -11    1    5    5    0    0  0.23920421926E+03  0.49185467508E+02  0.45949624922E+02  0.24849393706E+03  0.00000000000E+00 0.  1.
          3    1    6    6  503    0  0.24576091850E+02 -0.38081440773E+02  0.67432758392E+02  0.81248737383E+02  0.00000000000E+00 0. -1.
         -3    1    6    6    0  503  0.20833502778E+03 -0.75459219033E+02  0.74338197071E+03  0.77570247641E+03  0.00000000000E+00 0.  1.
<mgrwt>
<rscale>  0 0.31790421E+04</rscale>
<asrwt>0</asrwt>
<pdfrwt beam="1">  1        2 0.28686580E+00 0.31790421E+04</pdfrwt>
<pdfrwt beam="2">  1       -1 0.20846208E+00 0.31790421E+04</pdfrwt>
<totfact> 0.10041382E+00</totfact>
</mgrwt>
</event>
<event>
12    6  0.1530720E-007  0.2027319E+04  0.7818608E-02  0.8593954E-01
          2   -1    0    0  501    0  0.00000000000E+00  0.00000000000E+00  0.15010408747E+04  0.15010408747E+04  0.00000000000E+00 0. -1.
         -1   -1    0    0    0  501 -0.00000000000E+00 -0.00000000000E+00 -0.68452839254E+03  0.68452839254E+03  0.00000000000E+00 0.  1.
         24    2    1    2    0    0  0.79647241615E+03  0.14536914600E+03  0.44237009859E+03  0.92605477104E+03  0.79910177960E+02 0.  0.
        254    2    1    2    0    0 -0.79647241615E+03 -0.14536914600E+03  0.37414238352E+03  0.12595144962E+04  0.88932207024E+03 0.  0.
         23    2    4    4    0    0 -0.72298801585E+03  0.18752926105E+03  0.12220982684E+02  0.75366292001E+03  0.99897696483E+02 0.  0.
         23    2    4    4    0    0 -0.73484400299E+02 -0.33289840705E+03  0.36192140084E+03  0.50585157616E+03  0.93152617870E+02 0.  0.
          4    1    3    3  502    0  0.79821819299E+03  0.14554727567E+03  0.44266187269E+03  0.92427583903E+03  0.00000000000E+00 0. -1.
         -3    1    3    3    0  502 -0.17457768433E+01 -0.17812967456E+00 -0.29177409988E+00  0.17789320091E+01  0.00000000000E+00 0.  1.
         11    1    5    5    0    0 -0.67903651774E+03  0.15287764243E+03  0.24089447243E+02  0.69644990304E+03  0.00000000000E+00 0. -1.
        -11    1    5    5    0    0 -0.43951498111E+02  0.34651618622E+02 -0.11868464559E+02  0.57213016965E+02  0.00000000000E+00 0.  1.
          3    1    6    6  503    0 -0.95474161155E+01 -0.17847266660E+03  0.23872025386E+03  0.29821302031E+03  0.00000000000E+00 0. -1.
         -3    1    6    6    0  503 -0.63936984184E+02 -0.15442574045E+03  0.12320114698E+03  0.20763855585E+03  0.00000000000E+00 0.  1.
<mgrwt>
<rscale>  0 0.20273185E+04</rscale>
<asrwt>0</asrwt>
<pdfrwt beam="1">  1        2 0.23092936E+00 0.20273185E+04</pdfrwt>
<pdfrwt beam="2">  1       -1 0.10531206E+00 0.20273185E+04</pdfrwt>
<totfact> 0.11320345E+01</totfact>
</mgrwt>
</event>
<event>
12    6  0.1530720E-007  0.1529783E+04  0.7818608E-02  0.8864886E-01
         -1   -1    0    0    0  501 -0.00000000000E+00  0.00000000000E+00  0.11025850277E+04  0.11025850277E+04  0.00000000000E+00 0.  1.
          2   -1    0    0  501    0  0.00000000000E+00 -0.00000000000E+00 -0.53062461049E+03  0.53062461049E+03  0.00000000000E+00 0. -1.
         24    2    1    2    0    0  0.77644254727E+02 -0.40788912426E+03 -0.12087116907E+03  0.43974186144E+03  0.79755233096E+02 0.  0.
        254    2    1    2    0    0 -0.77644254727E+02  0.40788912426E+03  0.69283158631E+03  0.11934677768E+04  0.87860546279E+03 0.  0.
         23    2    4    4    0    0  0.10343392622E+03  0.50461750571E+03  0.63897106634E+02  0.52547574669E+03  0.81881108706E+02 0.  0.
         23    2    4    4    0    0 -0.18107818095E+03 -0.96728381452E+02  0.62893447967E+03  0.66799203008E+03  0.92244702494E+02 0.  0.
          2    1    3    3  502    0  0.33612047089E+02 -0.33604535422E+03 -0.85653037621E+02  0.34841454140E+03  0.00000000000E+00 0. -1.
         -1    1    3    3    0  502  0.44032207637E+02 -0.71843770036E+02 -0.35218131454E+02  0.91327320039E+02  0.00000000000E+00 0.  1.
         11    1    5    5    0    0  0.91408116461E+02  0.25723354256E+03  0.18014419597E+02  0.27358555971E+03  0.00000000000E+00 0.  1.
        -11    1    5    5    0    0  0.12025809764E+02  0.24738396315E+03  0.45882687037E+02  0.25189018698E+03  0.00000000000E+00 0. -1.
          3    1    6    6  503    0 -0.77236299920E+02 -0.92772818054E+02  0.35855317524E+03  0.37832872118E+03  0.00000000000E+00 0. -1.
         -3    1    6    6    0  503 -0.10384188103E+03 -0.39555633980E+01  0.27038130443E+03  0.28966330890E+03  0.00000000000E+00 0.  1.
<mgrwt>
<rscale>  0 0.15297827E+04</rscale>
<asrwt>0</asrwt>
<pdfrwt beam="1">  1        2 0.81634556E-01 0.15297827E+04</pdfrwt>
<pdfrwt beam="2">  1       -1 0.16962847E+00 0.15297827E+04</pdfrwt>
<totfact> 0.15670830E+01</totfact>
</mgrwt>
</event>
<event>
12    6  0.1530720E-007  0.1339028E+04  0.7818608E-02  0.8999176E-01
         -1   -1    0    0    0  501 -0.00000000000E+00  0.00000000000E+00  0.32856947245E+03  0.32856947245E+03  0.00000000000E+00 0.  1.
          2   -1    0    0  501    0  0.00000000000E+00 -0.00000000000E+00 -0.13642442183E+04  0.13642442183E+04  0.00000000000E+00 0. -1.
         24    2    1    2    0    0 -0.23021293452E+03 -0.15142402739E+03 -0.58665100534E+03  0.65370125884E+03  0.85080564464E+02 0.  0.
        254    2    1    2    0    0  0.23021293452E+03  0.15142402739E+03 -0.44902374051E+03  0.10391124319E+04  0.89565902850E+03 0.  0.
         23    2    4    4    0    0 -0.26682774367E+03  0.29334151865E+03 -0.14255276452E+03  0.43147016302E+03  0.92730359394E+02 0.  0.
         23    2    4    4    0    0  0.49704067819E+03 -0.14191749126E+03 -0.30647097600E+03  0.60764226889E+03  0.90081394935E+02 0.  0.
          2    1    3    3  502    0 -0.17280436943E+03 -0.76686007562E+02 -0.44578755932E+03  0.48421962155E+03  0.00000000000E+00 0. -1.
         -1    1    3    3    0  502 -0.57408565093E+02 -0.74738019826E+02 -0.14086344602E+03  0.16948163729E+03  0.00000000000E+00 0.  1.
         11    1    5    5    0    0 -0.15818455266E+03  0.13092003613E+03 -0.11136152419E+03  0.23358895015E+03  0.00000000000E+00 0.  1.
        -11    1    5    5    0    0 -0.10864319101E+03  0.16242148252E+03 -0.31191240322E+02  0.19788121287E+03  0.00000000000E+00 0. -1.
          1    1    6    6  503    0  0.15042824859E+03 -0.37218549650E+02 -0.14112568090E+03  0.20959564934E+03  0.00000000000E+00 0. -1.
         -1    1    6    6    0  503  0.34661242960E+03 -0.10469894161E+03 -0.16534529510E+03  0.39804661956E+03  0.00000000000E+00 0.  1.
<mgrwt>
<rscale>  0 0.13390280E+04</rscale>
<asrwt>0</asrwt>
<pdfrwt beam="1">  1        2 0.20988372E+00 0.13390280E+04</pdfrwt>
<pdfrwt beam="2">  1       -1 0.50549150E-01 0.13390280E+04</pdfrwt>
<totfact> 0.66434582E+01</totfact>
</mgrwt>
</event>
<event>
12    6  0.1530720E-007  0.1161324E+04  0.7818608E-02  0.9147400E-01
          2   -1    0    0  501    0  0.00000000000E+00  0.00000000000E+00  0.70172460725E+03  0.70172460725E+03  0.00000000000E+00 0. -1.
         -1   -1    0    0    0  501 -0.00000000000E+00 -0.00000000000E+00 -0.48048516159E+03  0.48048516159E+03  0.00000000000E+00 0.  1.
         24    2    1    2    0    0  0.61527642908E+02  0.22476008080E+03  0.11072316386E+03  0.27121458716E+03  0.83636047908E+02 0.  0.
        254    2    1    2    0    0 -0.61527642908E+02 -0.22476008080E+03  0.11051628180E+03  0.91099518168E+03  0.87372514427E+03 0.  0.
         23    2    4    4    0    0 -0.38920716460E+03 -0.15573349622E+03 -0.17332539064E+03  0.46244760505E+03  0.89894146397E+02 0.  0.
         23    2    4    4    0    0  0.32767952169E+03 -0.69026584578E+02  0.28384167244E+03  0.44854757663E+03  0.92142797717E+02 0.  0.
          4    1    3    3  502    0  0.98784979522E+01  0.13528865648E+03  0.27161907106E+02  0.13834151399E+03  0.00000000000E+00 0. -1.
         -3    1    3    3    0  502  0.51649144956E+02  0.89471424320E+02  0.83561256753E+02  0.13287307317E+03  0.00000000000E+00 0.  1.
         11    1    5    5    0    0 -0.17056330929E+03 -0.23838435649E+02 -0.53152824512E+02  0.18023688924E+03  0.00000000000E+00 0. -1.
        -11    1    5    5    0    0 -0.21864385531E+03 -0.13189506057E+03 -0.12017256613E+03  0.28221071581E+03  0.00000000000E+00 0.  1.
          2    1    6    6  503    0  0.25757523079E+02 -0.34594356757E+02  0.41698661596E+02  0.59991648531E+02  0.00000000000E+00 0. -1.
         -2    1    6    6    0  503  0.30192199861E+03 -0.34432227821E+02  0.24214301085E+03  0.38855592810E+03  0.00000000000E+00 0.  1.
<mgrwt>
<rscale>  0 0.11613238E+04</rscale>
<asrwt>0</asrwt>
<pdfrwt beam="1">  1        2 0.10795763E+00 0.11613238E+04</pdfrwt>
<pdfrwt beam="2">  1       -1 0.73920794E-01 0.11613238E+04</pdfrwt>
<totfact> 0.85080398E+01</totfact>
</mgrwt>
</event>
<event>
12    6  0.1530720E-007  0.1439746E+04  0.7818608E-02  0.8925540E-01
          2   -1    0    0  501    0  0.00000000000E+00  0.00000000000E+00  0.84993160728E+03  0.84993160728E+03  0.00000000000E+00 0. -1.
         -1   -1    0    0    0  501 -0.00000000000E+00 -0.00000000000E+00 -0.60971618710E+03  0.60971618710E+03  0.00000000000E+00 0.  1.
         24    2    1    2    0    0  0.47106986430E+02 -0.34927861431E+03  0.17890531606E+03  0.40348688654E+03  0.81116810298E+02 0.  0.
        254    2    1    2    0    0 -0.47106986430E+02  0.34927861431E+03  0.61310104116E+02  0.10561609078E+04  0.99373151092E+03 0.  0.
         23    2    4    4    0    0 -0.68736602095E+02 -0.23801327730E+03 -0.26767638756E+03  0.37660987197E+03  0.93857906289E+02 0.  0.
         23    2    4    4    0    0  0.21629615665E+02  0.58729189160E+03  0.32898649168E+03  0.67955103587E+03  0.90431700310E+02 0.  0.
          2    1    3    3  502    0  0.19098135832E+02 -0.25958057374E+03  0.16581018063E+03  0.30860950902E+03  0.00000000000E+00 0. -1.
         -1    1    3    3    0  502  0.28008850598E+02 -0.89698040563E+02  0.13095135423E+02  0.94877377517E+02  0.00000000000E+00 0.  1.
         11    1    5    5    0    0 -0.93322732517E+01 -0.18276307076E+02  0.52872886734E+01  0.21191275230E+02  0.00000000000E+00 0. -1.
        -11    1    5    5    0    0 -0.59404328844E+02 -0.21973697022E+03 -0.27296367624E+03  0.35541859674E+03  0.00000000000E+00 0.  1.
          2    1    6    6  503    0 -0.10815145934E+02  0.69634279536E+01  0.11522809380E+02  0.17269390448E+02  0.00000000000E+00 0. -1.
         -2    1    6    6    0  503  0.32444761599E+02  0.58032846365E+03  0.31746368230E+03  0.66228164542E+03  0.00000000000E+00 0.  1.
<mgrwt>
<rscale>  0 0.14397459E+04</rscale>
<asrwt>0</asrwt>
<pdfrwt beam="1">  1        2 0.13075871E+00 0.14397459E+04</pdfrwt>
<pdfrwt beam="2">  1       -1 0.93802490E-01 0.14397459E+04</pdfrwt>
<totfact> 0.38755250E+01</totfact>
</mgrwt>
</event>
<event>
12    6  0.1530720E-007  0.2288739E+04  0.7818608E-02  0.8482375E-01
          2   -1    0    0  501    0  0.00000000000E+00  0.00000000000E+00  0.30347850660E+04  0.30347850660E+04  0.00000000000E+00 0. -1.
         -1   -1    0    0    0  501 -0.00000000000E+00 -0.00000000000E+00 -0.43152356303E+03  0.43152356303E+03  0.00000000000E+00 0.  1.
         24    2    1    2    0    0  0.70678308744E+03 -0.12057116066E+03  0.12641638422E+03  0.73242609931E+03  0.79919655171E+02 0.  0.
        254    2    1    2    0    0 -0.70678308744E+03  0.12057116066E+03  0.24768451187E+04  0.27338825297E+04  0.90844493863E+03 0.  0.
         23    2    4    4    0    0 -0.81666599667E+03  0.14104733978E+03  0.12772868907E+04  0.15256562953E+04  0.96579645764E+02 0.  0.
         23    2    4    4    0    0  0.10988290923E+03 -0.20476179123E+02  0.11995582280E+04  0.12082262344E+04  0.91526845562E+02 0.  0.
          4    1    3    3  502    0  0.15080815713E+03 -0.33669363143E+02 -0.48349278080E+01  0.15459658081E+03  0.00000000000E+00 0. -1.
         -3    1    3    3    0  502  0.55597493031E+03 -0.86901797514E+02  0.13125131202E+03  0.57782951850E+03  0.00000000000E+00 0.  1.
         11    1    5    5    0    0 -0.12515614042E+03 -0.13013392623E+02  0.19983402214E+03  0.23615046957E+03  0.00000000000E+00 0. -1.
        -11    1    5    5    0    0 -0.69150985625E+03  0.15406073240E+03  0.10774528685E+04  0.12895058257E+04  0.00000000000E+00 0.  1.
          2    1    6    6  503    0  0.91737928009E+02  0.25335856242E+02  0.78074359605E+03  0.78652292771E+03  0.00000000000E+00 0. -1.
         -2    1    6    6    0  503  0.18144981221E+02 -0.45812035365E+02  0.41881463199E+03  0.42170330672E+03  0.00000000000E+00 0.  1.
<mgrwt>
<rscale>  0 0.22887387E+04</rscale>
<asrwt>0</asrwt>
<pdfrwt beam="1">  1        2 0.46689000E+00 0.22887387E+04</pdfrwt>
<pdfrwt beam="2">  1       -1 0.66388243E-01 0.22887387E+04</pdfrwt>
<totfact> 0.39334021E+00</totfact>
</mgrwt>
</event>
<event>
12    6  0.1530720E-007  0.2737732E+04  0.7818608E-02  0.8322865E-01
          2   -1    0    0  501    0  0.00000000000E+00  0.00000000000E+00  0.22439341759E+04  0.22439341759E+04  0.00000000000E+00 0. -1.
         -1   -1    0    0    0  501 -0.00000000000E+00 -0.00000000000E+00 -0.83504843039E+03  0.83504843039E+03  0.00000000000E+00 0.  1.
         24    2    1    2    0    0  0.25677886458E+03  0.84779117562E+03 -0.31106785708E+03  0.94221134375E+03  0.79459057596E+02 0.  0.
        254    2    1    2    0    0 -0.25677886458E+03 -0.84779117562E+03  0.17199536026E+04  0.21367712625E+04  0.90711949077E+03 0.  0.
         23    2    4    4    0    0 -0.20425927331E+03  0.60852405658E+02  0.56551380579E+02  0.23844534450E+03  0.90737300265E+02 0.  0.
         23    2    4    4    0    0 -0.52519591272E+02 -0.90864358128E+03  0.16634022220E+04  0.18983259180E+04  0.91339332224E+02 0.  0.
          4    1    3    3  502    0  0.60403712509E+02  0.19362902239E+03 -0.10728056063E+03  0.22945571574E+03  0.00000000000E+00 0. -1.
         -3    1    3    3    0  502  0.19637515207E+03  0.65416215323E+03 -0.20378729645E+03  0.71275562802E+03  0.00000000000E+00 0.  1.
         11    1    5    5    0    0 -0.36126399494E+02  0.48584125228E+02  0.30741298171E+02  0.67901114702E+02  0.00000000000E+00 0. -1.
        -11    1    5    5    0    0 -0.16813287382E+03  0.12268280430E+02  0.25810082408E+02  0.17054422979E+03  0.00000000000E+00 0.  1.
          1    1    6    6  503    0 -0.28930342943E+02 -0.50448625767E+03  0.82839201323E+03  0.97034873963E+03  0.00000000000E+00 0. -1.
         -1    1    6    6    0  503 -0.23589248329E+02 -0.40415732361E+03  0.83501020876E+03  0.92797717839E+03  0.00000000000E+00 0.  1.
<mgrwt>
<rscale>  0 0.27377317E+04</rscale>
<asrwt>0</asrwt>
<pdfrwt beam="1">  1        2 0.34522064E+00 0.27377317E+04</pdfrwt>
<pdfrwt beam="2">  1       -1 0.12846899E+00 0.27377317E+04</pdfrwt>
<totfact> 0.25346366E+00</totfact>
</mgrwt>
</event>
<event>
12    6  0.1530720E-007  0.1033805E+04  0.7818608E-02  0.9272226E-01
         -3   -1    0    0    0  501 -0.00000000000E+00  0.00000000000E+00  0.25058094665E+03  0.25058094665E+03  0.00000000000E+00 0.  1.
          4   -1    0    0  501    0  0.00000000000E+00 -0.00000000000E+00 -0.10662743640E+04  0.10662743640E+04  0.00000000000E+00 0. -1.
         24    2    1    2    0    0 -0.35283473281E+02 -0.33053017339E+02 -0.20543680462E+03  0.22529013720E+03  0.78828546751E+02 0.  0.
        254    2    1    2    0    0  0.35283473281E+02  0.33053017339E+02 -0.61025661270E+03  0.10915651734E+04  0.90374994829E+03 0.  0.
         23    2    4    4    0    0 -0.24280808884E+03 -0.34157903253E+03 -0.31940813723E+03  0.53453805862E+03  0.89874214913E+02 0.  0.
         23    2    4    4    0    0  0.27809156212E+03  0.37463204987E+03 -0.29084847547E+03  0.55702711481E+03  0.89455470663E+02 0.  0.
          2    1    3    3  502    0 -0.17462914225E+01 -0.39653848534E+02 -0.39970841610E+02  0.56330679175E+02  0.00000000000E+00 0. -1.
         -1    1    3    3    0  502 -0.33537181858E+02  0.66008311952E+01 -0.16546596301E+03  0.16895945802E+03  0.00000000000E+00 0.  1.
         11    1    5    5    0    0 -0.39805405210E+02 -0.27385310085E+02 -0.69593808373E+02  0.84721447439E+02  0.00000000000E+00 0.  1.
        -11    1    5    5    0    0 -0.20300268363E+03 -0.31419372245E+03 -0.24981432886E+03  0.44981661118E+03  0.00000000000E+00 0. -1.
          2    1    6    6  503    0  0.26181586196E+03  0.37536756998E+03 -0.27315304180E+03  0.53297367891E+03  0.00000000000E+00 0. -1.
         -2    1    6    6    0  503  0.16275700166E+02 -0.73552010672E+00 -0.17695433676E+02  0.24053435902E+02  0.00000000000E+00 0.  1.
<mgrwt>
<rscale>  0 0.10338047E+04</rscale>
<asrwt>0</asrwt>
<pdfrwt beam="1">  1        4 0.16404221E+00 0.10338047E+04</pdfrwt>
<pdfrwt beam="2">  1       -3 0.38550915E-01 0.10338047E+04</pdfrwt>
<totfact> 0.35525833E+00</totfact>
</mgrwt>
</event>
<event>
12    6  0.1530720E-007  0.1306144E+04  0.7818608E-02  0.9024707E-01
          2   -1    0    0  501    0  0.00000000000E+00  0.00000000000E+00  0.13547679237E+04  0.13547679237E+04  0.00000000000E+00 0. -1.
         -1   -1    0    0    0  501 -0.00000000000E+00 -0.00000000000E+00 -0.31481620369E+03  0.31481620369E+03  0.00000000000E+00 0.  1.
         24    2    1    2    0    0  0.22212376477E+03 -0.17051973337E+03  0.38468673292E+02  0.29379091449E+03  0.80108153565E+02 0.  0.
        254    2    1    2    0    0 -0.22212376477E+03  0.17051973337E+03  0.10014830467E+04  0.13757932129E+04  0.90079005625E+03 0.  0.
         23    2    4    4    0    0 -0.11418088701E+03  0.46577506146E+03  0.23377884564E+03  0.54149174937E+03  0.92612543043E+02 0.  0.
         23    2    4    4    0    0 -0.10794287776E+03 -0.29525532808E+03  0.76770420109E+03  0.83430146354E+03  0.88666893895E+02 0.  0.
          4    1    3    3  502    0  0.63373543830E+02 -0.32392125890E+02  0.43293592204E+02  0.83305408007E+02  0.00000000000E+00 0. -1.
         -3    1    3    3    0  502  0.15875022094E+03 -0.13812760748E+03 -0.48249189122E+01  0.21048550649E+03  0.00000000000E+00 0.  1.
         11    1    5    5    0    0 -0.80643834916E+02  0.23800520406E+03  0.16718245945E+03  0.30182756670E+03  0.00000000000E+00 0.  1.
        -11    1    5    5    0    0 -0.33537052091E+02  0.22776985739E+03  0.66596386192E+02  0.23966418267E+03  0.00000000000E+00 0. -1.
          1    1    6    6  503    0 -0.91117715298E+02 -0.21487228706E+03  0.65119694383E+03  0.69175862657E+03  0.00000000000E+00 0. -1.
         -1    1    6    6    0  503 -0.16825162466E+02 -0.80383041022E+02  0.11650725727E+03  0.14254283697E+03  0.00000000000E+00 0.  1.
<mgrwt>
<rscale>  0 0.13061438E+04</rscale>
<asrwt>0</asrwt>
<pdfrwt beam="1">  1        2 0.20842583E+00 0.13061438E+04</pdfrwt>
<pdfrwt beam="2">  1       -1 0.48433263E-01 0.13061438E+04</pdfrwt>
<totfact> 0.73142139E+01</totfact>
</mgrwt>
</event>
<event>
12    6  0.1530720E-007  0.2601684E+04  0.7818608E-02  0.8367629E-01
         -1   -1    0    0    0  501 -0.00000000000E+00  0.00000000000E+00  0.10037989043E+04  0.10037989043E+04  0.00000000000E+00 0.  1.
          2   -1    0    0  501    0  0.00000000000E+00 -0.00000000000E+00 -0.16857857679E+04  0.16857857679E+04  0.00000000000E+00 0. -1.
         24    2    1    2    0    0  0.32805178182E+03  0.64838754635E+02 -0.14454372295E+04  0.14857735929E+04  0.80077146110E+02 0.  0.
        254    2    1    2    0    0 -0.32805178182E+03 -0.64838754635E+02  0.76345036602E+03  0.12038110793E+04  0.86860958866E+03 0.  0.
         23    2    4    4    0    0  0.74469184475E+01  0.18492193087E+03  0.74618070684E+03  0.77447475774E+03  0.93669237280E+02 0.  0.
         23    2    4    4    0    0 -0.33549870026E+03 -0.24976068550E+03  0.17269659184E+02  0.42933632152E+03  0.95350185859E+02 0.  0.
          2    1    3    3  502    0  0.20823547269E+03  0.25967972849E+02 -0.10497900120E+04  0.10705584604E+04  0.00000000000E+00 0. -1.
         -1    1    3    3    0  502  0.11981630913E+03  0.38870781786E+02 -0.39564721750E+03  0.41521513259E+03  0.00000000000E+00 0.  1.
         11    1    5    5    0    0 -0.32474240097E+02  0.90549029775E+02  0.47358287485E+03  0.48325401438E+03  0.00000000000E+00 0. -1.
        -11    1    5    5    0    0  0.39921158544E+02  0.94372901091E+02  0.27259783199E+03  0.29122074336E+03  0.00000000000E+00 0.  1.
          1    1    6    6  503    0 -0.29769400867E+03 -0.17555712892E+03  0.17692392201E+02  0.34605642466E+03  0.00000000000E+00 0. -1.
         -1    1    6    6    0  503 -0.37804691599E+02 -0.74203556584E+02 -0.42273301736E+00  0.83279896852E+02  0.00000000000E+00 0.  1.
<mgrwt>
<rscale>  0 0.26016840E+04</rscale>
<asrwt>0</asrwt>
<pdfrwt beam="1">  1        2 0.25935166E+00 0.26016840E+04</pdfrwt>
<pdfrwt beam="2">  1       -1 0.15443060E+00 0.26016840E+04</pdfrwt>
<totfact> 0.32418476E+00</totfact>
</mgrwt>
</event>
<event>
12    6  0.1530720E-007  0.1733015E+04  0.7818608E-02  0.8742755E-01
         -1   -1    0    0    0  501 -0.00000000000E+00  0.00000000000E+00  0.24539286168E+03  0.24539286168E+03  0.00000000000E+00 0.  1.
          2   -1    0    0  501    0  0.00000000000E+00 -0.00000000000E+00 -0.30597283566E+04  0.30597283566E+04  0.00000000000E+00 0. -1.
         24    2    1    2    0    0 -0.44118687621E+03 -0.26248404083E+03 -0.17184288548E+04  0.17957206746E+04  0.89840306315E+02 0.  0.
        254    2    1    2    0    0  0.44118687621E+03  0.26248404083E+03 -0.10959066401E+04  0.15094005437E+04  0.90207256141E+03 0.  0.
         23    2    4    4    0    0  0.32016937956E+03  0.23775779839E+03 -0.12357202418E+04  0.13017285970E+04  0.91954455290E+02 0.  0.
         23    2    4    4    0    0  0.12101749665E+03  0.24726242443E+02  0.13981360169E+03  0.20767194674E+03  0.91231423785E+02 0.  0.
          4    1    3    3  502    0 -0.42062141521E+03 -0.22215346949E+03 -0.15540645930E+04  0.16252357669E+04  0.00000000000E+00 0. -1.
         -3    1    3    3    0  502 -0.20565460998E+02 -0.40330571340E+02 -0.16436426186E+03  0.17048490769E+03  0.00000000000E+00 0.  1.
         11    1    5    5    0    0  0.30322595888E+02 -0.81085314294E+00 -0.55569246275E+02  0.63309228678E+02  0.00000000000E+00 0.  1.
        -11    1    5    5    0    0  0.28984678367E+03  0.23856865153E+03 -0.11801509955E+04  0.12384193683E+04  0.00000000000E+00 0. -1.
          4    1    6    6  503    0  0.78060845599E+02  0.52757912675E+02  0.12027235723E+03  0.15278197826E+03  0.00000000000E+00 0. -1.
         -4    1    6    6    0  503  0.42956651049E+02 -0.28031670233E+02  0.19541244455E+02  0.54889968485E+02  0.00000000000E+00 0.  1.
<mgrwt>
<rscale>  0 0.17330153E+04</rscale>
<asrwt>0</asrwt>
<pdfrwt beam="1">  1        2 0.47072742E+00 0.17330153E+04</pdfrwt>
<pdfrwt beam="2">  1       -1 0.37752749E-01 0.17330153E+04</pdfrwt>
<totfact> 0.11734597E+01</totfact>
</mgrwt>
</event>
<event>
12    6  0.1530720E-007  0.2516437E+04  0.7818608E-02  0.8397153E-01
          2   -1    0    0  501    0  0.00000000000E+00  0.00000000000E+00  0.12845227452E+04  0.12845227452E+04  0.00000000000E+00 0. -1.
         -1   -1    0    0    0  501 -0.00000000000E+00 -0.00000000000E+00 -0.12324530750E+04  0.12324530750E+04  0.00000000000E+00 0.  1.
         24    2    1    2    0    0 -0.24720291334E+03 -0.26765152484E+03  0.10706556619E+04  0.11337979492E+04  0.80297098198E+02 0.  0.
        254    2    1    2    0    0  0.24720291334E+03  0.26765152484E+03 -0.10185859916E+04  0.13831778711E+04  0.86192632023E+03 0.  0.
         23    2    4    4    0    0  0.44368061560E+03  0.28720965331E+03 -0.10366320774E+04  0.11667503757E+04  0.85781709749E+02 0.  0.
         23    2    4    4    0    0 -0.19647770225E+03 -0.19558128469E+02  0.18046085780E+02  0.21642749532E+03  0.86770914768E+02 0.  0.
          2    1    3    3  502    0 -0.13919069403E+03 -0.12100179998E+03  0.64409132570E+03  0.66997695538E+03  0.00000000000E+00 0. -1.
         -1    1    3    3    0  502 -0.10801221932E+03 -0.14664972486E+03  0.42656433622E+03  0.46382099377E+03  0.00000000000E+00 0.  1.
         11    1    5    5    0    0  0.12131819336E+03  0.12613657552E+03 -0.34777598675E+03  0.38932849457E+03  0.00000000000E+00 0. -1.
        -11    1    5    5    0    0  0.32236242224E+03  0.16107307779E+03 -0.68885609067E+03  0.77742188116E+03  0.00000000000E+00 0.  1.
          3    1    6    6  503    0 -0.47611044162E+02  0.22538787637E+02 -0.21264916356E+02  0.56806735005E+02  0.00000000000E+00 0. -1.
         -3    1    6    6    0  503 -0.14886665809E+03 -0.42096916106E+02  0.39311002136E+02  0.15962076032E+03  0.00000000000E+00 0.  1.
<mgrwt>
<rscale>  0 0.25164372E+04</rscale>
<asrwt>0</asrwt>
<pdfrwt beam="1">  1        2 0.19761888E+00 0.25164372E+04</pdfrwt>
<pdfrwt beam="2">  1       -1 0.18960817E+00 0.25164372E+04</pdfrwt>
<totfact> 0.30464253E+00</totfact>
</mgrwt>
</event>
<event>
12    6  0.1530720E-007  0.2761840E+04  0.7818608E-02  0.8315214E-01
         -1   -1    0    0    0  501 -0.00000000000E+00  0.00000000000E+00  0.13201566825E+04  0.13201566825E+04  0.00000000000E+00 0.  1.
          2   -1    0    0  501    0  0.00000000000E+00 -0.00000000000E+00 -0.14444803075E+04  0.14444803075E+04  0.00000000000E+00 0. -1.
         24    2    1    2    0    0 -0.49245657594E+03  0.11329618630E+04 -0.13522604918E+03  0.12454869715E+04  0.82677987356E+02 0.  0.
        254    2    1    2    0    0  0.49245657594E+03 -0.11329618630E+04  0.10902424107E+02  0.15191500185E+04  0.88407118134E+03 0.  0.
         23    2    4    4    0    0  0.76200553755E+02  0.13368554706E+03  0.34912331629E+02  0.18242798370E+03  0.91557350618E+02 0.  0.
         23    2    4    4    0    0  0.41625602218E+03 -0.12666474100E+04 -0.24009907523E+02  0.13367220348E+04  0.92653037077E+02 0.  0.
          2    1    3    3  502    0 -0.35835194269E+02  0.14930086390E+03 -0.22133262853E+02  0.15512830313E+03  0.00000000000E+00 0. -1.
         -1    1    3    3    0  502 -0.45662138167E+03  0.98366099910E+03 -0.11309278632E+03  0.10903586684E+04  0.00000000000E+00 0.  1.
         11    1    5    5    0    0  0.37402427407E+02  0.96854354421E+01 -0.17388024719E+02  0.42368533598E+02  0.00000000000E+00 0. -1.
        -11    1    5    5    0    0  0.38798126349E+02  0.12400011161E+03  0.52300356348E+02  0.14005945010E+03  0.00000000000E+00 0.  1.
          4    1    6    6  503    0  0.15803236760E+03 -0.59054539565E+03  0.19973284800E+02  0.61165106527E+03  0.00000000000E+00 0. -1.
         -4    1    6    6    0  503  0.25822365458E+03 -0.67610201440E+03 -0.43983192322E+02  0.72507096954E+03  0.00000000000E+00 0.  1.
<mgrwt>
<rscale>  0 0.27618402E+04</rscale>
<asrwt>0</asrwt>
<pdfrwt beam="1">  1        2 0.22222774E+00 0.27618402E+04</pdfrwt>
<pdfrwt beam="2">  1       -1 0.20310103E+00 0.27618402E+04</pdfrwt>
<totfact> 0.19441946E+00</totfact>
</mgrwt>
</event>
<event>
12    6  0.1530720E-007  0.1631694E+04  0.7818608E-02  0.8801310E-01
         -1   -1    0    0    0  501 -0.00000000000E+00  0.00000000000E+00  0.32689817898E+03  0.32689817898E+03  0.00000000000E+00 0.  1.
          2   -1    0    0  501    0  0.00000000000E+00 -0.00000000000E+00 -0.20361269608E+04  0.20361269608E+04  0.00000000000E+00 0. -1.
         24    2    1    2    0    0 -0.11579064624E+01  0.40735579252E+03 -0.10560160512E+03  0.42831132605E+03  0.79742150514E+02 0.  0.
        254    2    1    2    0    0  0.11579064624E+01 -0.40735579252E+03 -0.16036271767E+04  0.19347138138E+04  0.10027748186E+04 0.  0.
         23    2    4    4    0    0  0.49302334265E+03 -0.18995836180E+03 -0.77970266916E+03  0.94637763157E+03  0.92402238248E+02 0.  0.
         23    2    4    4    0    0 -0.49186543619E+03 -0.21739743072E+03 -0.82392450758E+03  0.98833618219E+03  0.93613912691E+02 0.  0.
          4    1    3    3  502    0  0.21776894744E+02  0.77259110768E+02 -0.44649141664E+02  0.91851778386E+02  0.00000000000E+00 0. -1.
         -3    1    3    3    0  502 -0.22934801207E+02  0.33009668176E+03 -0.60952463453E+02  0.33645954766E+03  0.00000000000E+00 0.  1.
         11    1    5    5    0    0  0.74123146231E+02  0.50657246576E+01 -0.10708874226E+03  0.13033764265E+03  0.00000000000E+00 0. -1.
        -11    1    5    5    0    0  0.41890019642E+03 -0.19502408646E+03 -0.67261392691E+03  0.81603998892E+03  0.00000000000E+00 0.  1.
          3    1    6    6  503    0 -0.29408954897E+03 -0.16577772614E+03 -0.45490526220E+03  0.56648893623E+03  0.00000000000E+00 0. -1.
         -3    1    6    6    0  503 -0.19777588721E+03 -0.51619704576E+02 -0.36901924538E+03  0.42184724596E+03  0.00000000000E+00 0.  1.
<mgrwt>
<rscale>  0 0.16316938E+04</rscale>
<asrwt>0</asrwt>
<pdfrwt beam="1">  1        2 0.31325030E+00 0.16316938E+04</pdfrwt>
<pdfrwt beam="2">  1       -1 0.50292028E-01 0.16316938E+04</pdfrwt>
<totfact> 0.27595297E+01</totfact>
</mgrwt>
</event>
<event>
12    6  0.1530720E-007  0.3336378E+04  0.7818608E-02  0.8153700E-01
          2   -1    0    0  501    0  0.00000000000E+00  0.00000000000E+00  0.19628866368E+04  0.19628866368E+04  0.00000000000E+00 0. -1.
         -1   -1    0    0    0  501 -0.00000000000E+00 -0.00000000000E+00 -0.14177354002E+04  0.14177354002E+04  0.00000000000E+00 0.  1.
         24    2    1    2    0    0  0.20383742102E+02  0.15145431831E+04  0.52176665030E+03  0.16040345681E+04  0.80186705470E+02 0.  0.
        254    2    1    2    0    0 -0.20383742102E+02 -0.15145431831E+04  0.23384586264E+02  0.17765874689E+04  0.92814850394E+03 0.  0.
         23    2    4    4    0    0 -0.33112503114E+03 -0.21854177770E+03 -0.14071604394E+03  0.43113462550E+03  0.93122314377E+02 0.  0.
         23    2    4    4    0    0  0.31074128904E+03 -0.12960014054E+04  0.16410063021E+03  0.13454528434E+04  0.84466238570E+02 0.  0.
          4    1    3    3  502    0  0.92279519859E+01  0.90463699233E+03  0.35297024254E+03  0.97110310220E+03  0.00000000000E+00 0. -1.
         -3    1    3    3    0  502  0.11155790116E+02  0.60990619078E+03  0.16879640776E+03  0.63293146587E+03  0.00000000000E+00 0.  1.
         11    1    5    5    0    0 -0.22114553863E+03 -0.91437383832E+02 -0.88222526491E+02  0.25504775748E+03  0.00000000000E+00 0. -1.
        -11    1    5    5    0    0 -0.10997949251E+03 -0.12710439387E+03 -0.52493517453E+02  0.17608686802E+03  0.00000000000E+00 0.  1.
          1    1    6    6  503    0  0.12127978041E+03 -0.68652855458E+03  0.87886676585E+02  0.70267653249E+03  0.00000000000E+00 0. -1.
         -1    1    6    6    0  503  0.18946150862E+03 -0.60947285084E+03  0.76213953622E+02  0.64277631093E+03  0.00000000000E+00 0.  1.
<mgrwt>
<rscale>  0 0.33363776E+04</rscale>
<asrwt>0</asrwt>
<pdfrwt beam="1">  1        2 0.30198256E+00 0.33363776E+04</pdfrwt>
<pdfrwt beam="2">  1       -1 0.21811314E+00 0.33363776E+04</pdfrwt>
<totfact> 0.75204687E-01</totfact>
</mgrwt>
</event>
<event>
12    6  0.1530720E-007  0.1258213E+04  0.7818608E-02  0.9063375E-01
          2   -1    0    0  501    0  0.00000000000E+00  0.00000000000E+00  0.11195865067E+04  0.11195865067E+04  0.00000000000E+00 0. -1.
         -1   -1    0    0    0  501 -0.00000000000E+00 -0.00000000000E+00 -0.35350096055E+03  0.35350096055E+03  0.00000000000E+00 0.  1.
         24    2    1    2    0    0 -0.29978140531E+02  0.23395445160E+03 -0.31192068489E+02  0.25148973908E+03  0.81490916017E+02 0.  0.
        254    2    1    2    0    0  0.29978140531E+02 -0.23395445160E+03  0.79727761465E+03  0.12215977282E+04  0.89499499458E+03 0.  0.
         23    2    4    4    0    0 -0.32955185185E+01  0.12628372478E+03 -0.14198002377E+03  0.21090941233E+03  0.91465914275E+02 0.  0.
         23    2    4    4    0    0  0.33273659049E+02 -0.36023817638E+03  0.93925763842E+03  0.10106883158E+04  0.91691222849E+02 0.  0.
          4    1    3    3  502    0  0.69949453000E+01  0.12706886698E+03  0.17301913041E+02  0.12843201474E+03  0.00000000000E+00 0. -1.
         -3    1    3    3    0  502 -0.36973085831E+02  0.10688558462E+03 -0.48493981530E+02  0.12305772434E+03  0.00000000000E+00 0.  1.
         11    1    5    5    0    0  0.37087565695E+02  0.61924662841E+02 -0.10227432609E+03  0.12518062620E+03  0.00000000000E+00 0. -1.
        -11    1    5    5    0    0 -0.40383084213E+02  0.64359061940E+02 -0.39705697674E+02  0.85728786135E+02  0.00000000000E+00 0.  1.
          3    1    6    6  503    0  0.26860720891E+02 -0.34849707064E+03  0.82972598924E+03  0.90034267020E+03  0.00000000000E+00 0. -1.
         -3    1    6    6    0  503  0.64129381584E+01 -0.11741105743E+02  0.10953164918E+03  0.11034564564E+03  0.00000000000E+00 0.  1.
<mgrwt>
<rscale>  0 0.12582129E+04</rscale>
<asrwt>0</asrwt>
<pdfrwt beam="1">  1        2 0.17224408E+00 0.12582129E+04</pdfrwt>
<pdfrwt beam="2">  1       -1 0.54384764E-01 0.12582129E+04</pdfrwt>
<totfact> 0.81093740E+01</totfact>
</mgrwt>
</event>
<event>
12    6  0.1530720E-007  0.1765190E+04  0.7818608E-02  0.8725033E-01
         -1   -1    0    0    0  501 -0.00000000000E+00  0.00000000000E+00  0.26846014865E+04  0.26846014865E+04  0.00000000000E+00 0.  1.
          2   -1    0    0  501    0  0.00000000000E+00 -0.00000000000E+00 -0.29016370301E+03  0.29016370301E+03  0.00000000000E+00 0. -1.
         24    2    1    2    0    0  0.45099078535E+03 -0.12374493675E+03  0.12693971420E+03  0.49120302426E+03  0.80381727794E+02 0.  0.
        254    2    1    2    0    0 -0.45099078535E+03  0.12374493675E+03  0.22674980693E+04  0.24835621652E+04  0.89879254366E+03 0.  0.
         23    2    4    4    0    0  0.78447667931E+02 -0.29978067842E+03  0.62475340795E+03  0.70365801658E+03  0.93783217050E+02 0.  0.
         23    2    4    4    0    0 -0.52943845328E+03  0.42352561517E+03  0.16427446613E+04  0.17799041486E+04  0.98841962364E+02 0.  0.
          2    1    3    3  502    0  0.26335311045E+03 -0.45159968280E+02  0.40826631030E+02  0.27029816373E+03  0.00000000000E+00 0. -1.
         -3    1    3    3    0  502  0.18763767490E+03 -0.78584968469E+02  0.86113083170E+02  0.22090486053E+03  0.00000000000E+00 0.  1.
         11    1    5    5    0    0  0.40077104039E+02 -0.25064211318E+03  0.43175114581E+03  0.50083599619E+03  0.00000000000E+00 0.  1.
        -11    1    5    5    0    0  0.38370563893E+02 -0.49138565239E+02  0.19300226213E+03  0.20282202039E+03  0.00000000000E+00 0. -1.
          1    1    6    6  503    0 -0.19459239501E+03  0.98892387056E+02  0.55603779759E+03  0.59734741714E+03  0.00000000000E+00 0. -1.
         -1    1    6    6    0  503 -0.33484605827E+03  0.32463322811E+03  0.10867068637E+04  0.11825567315E+04  0.00000000000E+00 0.  1.
<mgrwt>
<rscale>  0 0.17651900E+04</rscale>
<asrwt>0</asrwt>
<pdfrwt beam="1">  1        2 0.44640571E-01 0.17651900E+04</pdfrwt>
<pdfrwt beam="2">  1       -1 0.41301560E+00 0.17651900E+04</pdfrwt>
<totfact> 0.72154754E-01</totfact>
</mgrwt>
</event>
<event>
12    6  0.1530720E-007  0.2175436E+04  0.7818608E-02  0.8528722E-01
         -1   -1    0    0    0  501 -0.00000000000E+00  0.00000000000E+00  0.83057820366E+03  0.83057820366E+03  0.00000000000E+00 0.  1.
          2   -1    0    0  501    0  0.00000000000E+00 -0.00000000000E+00 -0.14244654459E+04  0.14244654459E+04  0.00000000000E+00 0. -1.
         24    2    1    2    0    0  0.28556353596E+03 -0.32611699034E+03 -0.10625708020E+04  0.11511662808E+04  0.90709825512E+02 0.  0.
        254    2    1    2    0    0 -0.28556353596E+03  0.32611699034E+03  0.46868355979E+03  0.11038773687E+04  0.90054546882E+03 0.  0.
         23    2    4    4    0    0 -0.59348343228E+03  0.19566342787E+03  0.40971153787E+03  0.75272201824E+03  0.90664938598E+02 0.  0.
         23    2    4    4    0    0  0.30791989632E+03  0.13045356248E+03  0.58972021913E+02  0.35115535044E+03  0.89440406211E+02 0.  0.
          2    1    3    3  502    0  0.21853483560E+03 -0.18456059027E+03 -0.67008547022E+03  0.72858398504E+03  0.00000000000E+00 0. -1.
         -1    1    3    3    0  502  0.67028700359E+02 -0.14155640007E+03 -0.39248533177E+03  0.42258229580E+03  0.00000000000E+00 0.  1.
         11    1    5    5    0    0 -0.52495003960E+03  0.16702305718E+03  0.39269807365E+03  0.67652126556E+03  0.00000000000E+00 0.  1.
        -11    1    5    5    0    0 -0.68533392673E+02  0.28640370684E+02  0.17013464223E+02  0.76200752680E+02  0.00000000000E+00 0. -1.
          3    1    6    6  503    0  0.21219077612E+03  0.12565466279E+03  0.65279006119E+02  0.25509874243E+03  0.00000000000E+00 0. -1.
         -3    1    6    6    0  503  0.95729120196E+02  0.47988996858E+01 -0.63069842056E+01  0.96056608005E+02  0.00000000000E+00 0.  1.
<mgrwt>
<rscale>  0 0.21754355E+04</rscale>
<asrwt>0</asrwt>
<pdfrwt beam="1">  1        2 0.21914853E+00 0.21754355E+04</pdfrwt>
<pdfrwt beam="2">  1       -1 0.12778126E+00 0.21754355E+04</pdfrwt>
<totfact> 0.77450744E+00</totfact>
</mgrwt>
</event>
<event>
12    6  0.1530720E-007  0.2337686E+04  0.7818608E-02  0.8463209E-01
          2   -1    0    0  501    0  0.00000000000E+00  0.00000000000E+00  0.15075051400E+04  0.15075051400E+04  0.00000000000E+00 0. -1.
         -1   -1    0    0    0  501 -0.00000000000E+00 -0.00000000000E+00 -0.90626143594E+03  0.90626143594E+03  0.00000000000E+00 0.  1.
         24    2    1    2    0    0  0.18487617089E+03 -0.48346414711E+03  0.11251397206E+04  0.12410691490E+04  0.79977882801E+02 0.  0.
        254    2    1    2    0    0 -0.18487617089E+03  0.48346414711E+03 -0.52389601650E+03  0.11726974269E+04  0.91259818043E+03 0.  0.
         23    2    4    4    0    0  0.15770125827E+03 -0.17074384551E+03  0.20658301136E+02  0.25059662144E+03  0.91371514337E+02 0.  0.
         23    2    4    4    0    0 -0.34257742916E+03  0.65420799262E+03 -0.54455431763E+03  0.92210080549E+03  0.91559259783E+02 0.  0.
          4    1    3    3  502    0  0.73591209417E+02 -0.10283045872E+03  0.30090180626E+03  0.32639189076E+03  0.00000000000E+00 0. -1.
         -3    1    3    3    0  502  0.11128496147E+03 -0.38063368839E+03  0.82423791431E+03  0.91467725826E+03  0.00000000000E+00 0.  1.
         11    1    5    5    0    0 -0.10644878865E+01 -0.50551231302E+02  0.62222656296E+01  0.50943858415E+02  0.00000000000E+00 0. -1.
        -11    1    5    5    0    0  0.15876574616E+03 -0.12019261421E+03  0.14436035506E+02  0.19965276303E+03  0.00000000000E+00 0.  1.
          3    1    6    6  503    0 -0.49633240146E+02  0.42957606723E+02 -0.59573358849E+02  0.88644230424E+02  0.00000000000E+00 0. -1.
         -3    1    6    6    0  503 -0.29294418901E+03  0.61125038590E+03 -0.48498095878E+03  0.83345657506E+03  0.00000000000E+00 0.  1.
<mgrwt>
<rscale>  0 0.23376858E+04</rscale>
<asrwt>0</asrwt>
<pdfrwt beam="1">  1        2 0.23192387E+00 0.23376858E+04</pdfrwt>
<pdfrwt beam="2">  1       -1 0.13942484E+00 0.23376858E+04</pdfrwt>
<totfact> 0.54837311E+00</totfact>
</mgrwt>
</event>
<event>
12    6  0.1530720E-007  0.1470413E+04  0.7818608E-02  0.8904369E-01
          2   -1    0    0  501    0  0.00000000000E+00  0.00000000000E+00  0.29794812765E+04  0.29794812765E+04  0.00000000000E+00 0. -1.
         -1   -1    0    0    0  501 -0.00000000000E+00 -0.00000000000E+00 -0.18141713671E+03  0.18141713671E+03  0.00000000000E+00 0.  1.
         24    2    1    2    0    0  0.92494134517E+02  0.18197919133E+03  0.62059514066E+01  0.21925015745E+03  0.79752910348E+02 0.  0.
        254    2    1    2    0    0 -0.92494134517E+02 -0.18197919133E+03  0.27918581884E+04  0.29416482558E+04  0.90396389615E+03 0.  0.
         23    2    4    4    0    0  0.80979540077E+02  0.11609219520E+03  0.24222282968E+04  0.24280609357E+04  0.90856490931E+02 0.  0.
         23    2    4    4    0    0 -0.17347367459E+03 -0.29807138653E+03  0.36962989168E+03  0.51358732015E+03  0.90587037436E+02 0.  0.
          2    1    3    3  502    0  0.33881507407E+02  0.20441269175E+02 -0.21741370480E+02  0.45149631449E+02  0.00000000000E+00 0. -1.
         -1    1    3    3    0  502  0.58612627110E+02  0.16153792216E+03  0.27947321886E+02  0.17410052600E+03  0.00000000000E+00 0.  1.
         11    1    5    5    0    0  0.80978570288E+02  0.66852394722E+02  0.11227057865E+04  0.11276058951E+04  0.00000000000E+00 0.  1.
        -11    1    5    5    0    0  0.96978843190E-03  0.49239800474E+02  0.12995225102E+04  0.13004550406E+04  0.00000000000E+00 0. -1.
          1    1    6    6  503    0 -0.15473215366E+03 -0.19625299397E+03  0.29098584659E+03  0.38357533802E+03  0.00000000000E+00 0. -1.
         -1    1    6    6    0  503 -0.18741520934E+02 -0.10181839256E+03  0.78644045087E+02  0.13001198213E+03  0.00000000000E+00 0.  1.
<mgrwt>
<rscale>  0 0.14704135E+04</rscale>
<asrwt>0</asrwt>
<pdfrwt beam="1">  1        2 0.45838170E+00 0.14704135E+04</pdfrwt>
<pdfrwt beam="2">  1       -1 0.27910331E-01 0.14704135E+04</pdfrwt>
<totfact> 0.23071641E+01</totfact>
</mgrwt>
</event>
<event>
12    6  0.1530720E-007  0.2432946E+04  0.7818608E-02  0.8427271E-01
          2   -1    0    0  501    0  0.00000000000E+00  0.00000000000E+00  0.22730147967E+04  0.22730147967E+04  0.00000000000E+00 0. -1.
         -1   -1    0    0    0  501 -0.00000000000E+00 -0.00000000000E+00 -0.65103242038E+03  0.65103242038E+03  0.00000000000E+00 0.  1.
         24    2    1    2    0    0  0.82494015069E+03 -0.63488231535E+03  0.86762761475E+03  0.13575116041E+04  0.80363367012E+02 0.  0.
        254    2    1    2    0    0 -0.82494015069E+03  0.63488231535E+03  0.75435476158E+03  0.15665356130E+04  0.89519881254E+03 0.  0.
         23    2    4    4    0    0  0.17978879117E+03  0.15247121900E+03  0.16751309642E+03  0.30364043593E+03  0.92549418190E+02 0.  0.
         23    2    4    4    0    0 -0.10047289419E+04  0.48241109635E+03  0.58684166516E+03  0.12628951771E+04  0.91216094321E+02 0.  0.
          4    1    3    3  502    0 -0.17103773680E+00 -0.75344045102E+01  0.65406799955E+01  0.99788275882E+01  0.00000000000E+00 0. -1.
         -3    1    3    3    0  502  0.82511118842E+03 -0.62734791084E+03  0.86108693476E+03  0.13475327765E+04  0.00000000000E+00 0.  1.
         11    1    5    5    0    0  0.68733299346E+02  0.11150231644E+03  0.11436013020E+03  0.17388292725E+03  0.00000000000E+00 0. -1.
        -11    1    5    5    0    0  0.11105549182E+03  0.40968902563E+02  0.53152966220E+02  0.12975750868E+03  0.00000000000E+00 0.  1.
          3    1    6    6  503    0 -0.62792783835E+03  0.26193423695E+03  0.32724464883E+03  0.75497812872E+03  0.00000000000E+00 0. -1.
         -3    1    6    6    0  503 -0.37680110350E+03  0.22047685940E+03  0.25959701633E+03  0.50791704836E+03  0.00000000000E+00 0.  1.
<mgrwt>
<rscale>  0 0.24329458E+04</rscale>
<asrwt>0</asrwt>
<pdfrwt beam="1">  1        2 0.34969458E+00 0.24329458E+04</pdfrwt>
<pdfrwt beam="2">  1       -1 0.10015883E+00 0.24329458E+04</pdfrwt>
<totfact> 0.45493970E+00</totfact>
</mgrwt>
</event>
<event>
12    6  0.1530720E-007  0.1181601E+04  0.7818608E-02  0.9129116E-01
          2   -1    0    0  501    0  0.00000000000E+00  0.00000000000E+00  0.76655246314E+03  0.76655246314E+03  0.00000000000E+00 0. -1.
         -1   -1    0    0    0  501 -0.00000000000E+00 -0.00000000000E+00 -0.45534399217E+03  0.45534399217E+03  0.00000000000E+00 0.  1.
         24    2    1    2    0    0  0.15496582382E+02  0.14417234065E+03 -0.13076399456E+03  0.21168095693E+03  0.81754494555E+02 0.  0.
        254    2    1    2    0    0 -0.15496582382E+02 -0.14417234065E+03  0.44197246554E+03  0.10102154984E+04  0.89675519792E+03 0.  0.
         23    2    4    4    0    0 -0.21507054821E+03  0.10227505773E+03 -0.17614472132E+03  0.30966439884E+03  0.90274852078E+02 0.  0.
         23    2    4    4    0    0  0.19957396583E+03 -0.24644739838E+03  0.61811718686E+03  0.70055109954E+03  0.90204758001E+02 0.  0.
          2    1    3    3  502    0 -0.32952642877E+02  0.49877408395E+02 -0.56399776209E+02  0.82186174611E+02  0.00000000000E+00 0. -1.
         -1    1    3    3    0  502  0.48449225259E+02  0.94294932252E+02 -0.74364218352E+02  0.12949478232E+03  0.00000000000E+00 0.  1.
         11    1    5    5    0    0 -0.15046202648E+03  0.25800240098E+02 -0.12464961756E+03  0.19708374098E+03  0.00000000000E+00 0.  1.
        -11    1    5    5    0    0 -0.64608521731E+02  0.76474817634E+02 -0.51495103764E+02  0.11258065786E+03  0.00000000000E+00 0. -1.
          2    1    6    6  503    0  0.18431853062E+03 -0.22314841662E+03  0.48703799786E+03  0.56654615693E+03  0.00000000000E+00 0. -1.
         -2    1    6    6    0  503  0.15255435209E+02 -0.23298981754E+02  0.13107918900E+03  0.13400494261E+03  0.00000000000E+00 0.  1.
<mgrwt>
<rscale>  0 0.11816007E+04</rscale>
<asrwt>0</asrwt>
<pdfrwt beam="1">  1        2 0.11793115E+00 0.11816007E+04</pdfrwt>
<pdfrwt beam="2">  1       -1 0.70052922E-01 0.11816007E+04</pdfrwt>
<totfact> 0.84718340E+01</totfact>
</mgrwt>
</event>
<event>
12    6  0.1530720E-007  0.3017400E+04  0.7818608E-02  0.8238780E-01
          2   -1    0    0  501    0  0.00000000000E+00  0.00000000000E+00  0.22696113408E+04  0.22696113408E+04  0.00000000000E+00 0. -1.
         -1   -1    0    0    0  501 -0.00000000000E+00 -0.00000000000E+00 -0.10028925249E+04  0.10028925249E+04  0.00000000000E+00 0.  1.
         24    2    1    2    0    0  0.48453407020E+03  0.34376445446E+03  0.19245025729E+04  0.20156792161E+04  0.79405817103E+02 0.  0.
        254    2    1    2    0    0 -0.48453407020E+03 -0.34376445446E+03 -0.65778375699E+03  0.12568246496E+04  0.89105637507E+03 0.  0.
         23    2    4    4    0    0 -0.68106260298E+03 -0.28874955274E+02 -0.44747333430E+03  0.82062500737E+03  0.92265841958E+02 0.  0.
         23    2    4    4    0    0  0.19652853277E+03 -0.31488949918E+03 -0.21031042269E+03  0.43619964224E+03  0.90888905288E+02 0.  0.
          2    1    3    3  502    0  0.37959533292E+03  0.24385131593E+03  0.13603297517E+04  0.14331968164E+04  0.00000000000E+00 0. -1.
         -1    1    3    3    0  502  0.10493873728E+03  0.99913138531E+02  0.56417282113E+03  0.58248239968E+03  0.00000000000E+00 0.  1.
         11    1    5    5    0    0 -0.39587093578E+03  0.10735946758E+02 -0.30202262868E+03  0.49804289633E+03  0.00000000000E+00 0. -1.
        -11    1    5    5    0    0 -0.28519166719E+03 -0.39610902032E+02 -0.14545070563E+03  0.32258211104E+03  0.00000000000E+00 0.  1.
          3    1    6    6  503    0  0.17394610463E+03 -0.30875104717E+03 -0.21162917611E+03  0.41276066264E+03  0.00000000000E+00 0. -1.
         -3    1    6    6    0  503  0.22582428140E+02 -0.61384520148E+01  0.13187534169E+01  0.23438979594E+02  0.00000000000E+00 0.  1.
<mgrwt>
<rscale>  0 0.30174004E+04</rscale>
<asrwt>0</asrwt>
<pdfrwt beam="1">  1        2 0.34917097E+00 0.30174004E+04</pdfrwt>
<pdfrwt beam="2">  1       -1 0.15429116E+00 0.30174004E+04</pdfrwt>
<totfact> 0.14813481E+00</totfact>
</mgrwt>
</event>
<event>
12    6  0.1530720E-007  0.1942596E+04  0.7818608E-02  0.8633940E-01
         -1   -1    0    0    0  501 -0.00000000000E+00  0.00000000000E+00  0.88270576467E+03  0.88270576467E+03  0.00000000000E+00 0.  1.
          2   -1    0    0  501    0  0.00000000000E+00 -0.00000000000E+00 -0.10687814212E+04  0.10687814212E+04  0.00000000000E+00 0. -1.
         24    2    1    2    0    0 -0.16533532573E+03  0.95246886101E+02 -0.76689808007E+03  0.79431255625E+03  0.79950187956E+02 0.  0.
        254    2    1    2    0    0  0.16533532573E+03 -0.95246886101E+02  0.58082242350E+03  0.11571746297E+04  0.98249208477E+03 0.  0.
         23    2    4    4    0    0  0.35507028188E+03 -0.11238595663E+03  0.77897310304E+03  0.86749950804E+03  0.83968999430E+02 0.  0.
         23    2    4    4    0    0 -0.18973495615E+03  0.17139070530E+02 -0.19815067954E+03  0.28967512162E+03  0.91405048878E+02 0.  0.
          4    1    3    3  502    0 -0.12850035661E+03  0.43697348178E+02 -0.61370914527E+03  0.62853855481E+03  0.00000000000E+00 0. -1.
         -3    1    3    3    0  502 -0.36834969116E+02  0.51549537923E+02 -0.15318893480E+03  0.16577400145E+03  0.00000000000E+00 0.  1.
         11    1    5    5    0    0  0.31749712662E+03 -0.11102674284E+03  0.74243959271E+03  0.81507540257E+03  0.00000000000E+00 0. -1.
        -11    1    5    5    0    0  0.37573155252E+02 -0.13592137964E+01  0.36533510329E+02  0.52424105474E+02  0.00000000000E+00 0.  1.
          4    1    6    6  503    0 -0.11868756521E+03 -0.33820352611E+02 -0.12527194534E+03  0.17585111508E+03  0.00000000000E+00 0. -1.
         -4    1    6    6    0  503 -0.71047390937E+02  0.50959423141E+02 -0.72878734203E+02  0.11382400654E+03  0.00000000000E+00 0.  1.
<mgrwt>
<rscale>  0 0.19425957E+04</rscale>
<asrwt>0</asrwt>
<pdfrwt beam="1">  1        2 0.16442791E+00 0.19425957E+04</pdfrwt>
<pdfrwt beam="2">  1       -1 0.13580089E+00 0.19425957E+04</pdfrwt>
<totfact> 0.11004141E+01</totfact>
</mgrwt>
</event>
<event>
12    6  0.1530720E-007  0.2484023E+04  0.7818608E-02  0.8408699E-01
          2   -1    0    0  501    0  0.00000000000E+00  0.00000000000E+00  0.10882447049E+04  0.10882447049E+04  0.00000000000E+00 0. -1.
         -1   -1    0    0    0  501 -0.00000000000E+00 -0.00000000000E+00 -0.14175057718E+04  0.14175057718E+04  0.00000000000E+00 0.  1.
         24    2    1    2    0    0 -0.53523438619E+03  0.92903867047E+03 -0.23226310853E+03  0.10999464069E+04  0.79669612161E+02 0.  0.
        254    2    1    2    0    0  0.53523438619E+03 -0.92903867047E+03 -0.96997958380E+02  0.14058040698E+04  0.90403970011E+03 0.  0.
         23    2    4    4    0    0 -0.21312950144E+03 -0.38974266619E+03  0.84299144909E+02  0.46123474615E+03  0.91146118903E+02 0.  0.
         23    2    4    4    0    0  0.74836388763E+03 -0.53929600428E+03 -0.18129710329E+03  0.94456932366E+03  0.91944978094E+02 0.  0.
          2    1    3    3  502    0 -0.76085943856E+02  0.83729813058E+02 -0.27706442864E+02  0.11647918021E+03  0.00000000000E+00 0. -1.
         -1    1    3    3    0  502 -0.45914844234E+03  0.84530885741E+03 -0.20455666566E+03  0.98346722670E+03  0.00000000000E+00 0.  1.
         11    1    5    5    0    0 -0.18220134932E+03 -0.27495039532E+03  0.32116538037E+02  0.33140085033E+03  0.00000000000E+00 0.  1.
        -11    1    5    5    0    0 -0.30928152116E+02 -0.11479227087E+03  0.52182606872E+02  0.12983389582E+03  0.00000000000E+00 0. -1.
          1    1    6    6  503    0  0.29594095412E+03 -0.20217457828E+03 -0.25874355088E+02  0.35933979835E+03  0.00000000000E+00 0. -1.
         -1    1    6    6    0  503  0.45242293352E+03 -0.33712142600E+03 -0.15542274820E+03  0.58522952531E+03  0.00000000000E+00 0.  1.
<mgrwt>
<rscale>  0 0.24840235E+04</rscale>
<asrwt>0</asrwt>
<pdfrwt beam="1">  1        2 0.16742226E+00 0.24840235E+04</pdfrwt>
<pdfrwt beam="2">  1       -1 0.21807781E+00 0.24840235E+04</pdfrwt>
<totfact> 0.25568453E+00</totfact>
</mgrwt>
</event>
<event>
12    6  0.1530720E-007  0.2180318E+04  0.7818608E-02  0.8526665E-01
         -1   -1    0    0    0  501 -0.00000000000E+00  0.00000000000E+00  0.53733727187E+03  0.53733727187E+03  0.00000000000E+00 0.  1.
          2   -1    0    0  501    0  0.00000000000E+00 -0.00000000000E+00 -0.22117321275E+04  0.22117321275E+04  0.00000000000E+00 0. -1.
         24    2    1    2    0    0 -0.15294153697E+03  0.78096523319E+03 -0.14482718067E+03  0.81286741322E+03  0.80502857252E+02 0.  0.
        254    2    1    2    0    0  0.15294153697E+03 -0.78096523319E+03 -0.15295676749E+04  0.19362019861E+04  0.88091035280E+03 0.  0.
         23    2    4    4    0    0 -0.66609327044E+02  0.11578524856E+03 -0.18024934208E+02  0.16266918334E+03  0.91067769949E+02 0.  0.
         23    2    4    4    0    0  0.21955086402E+03 -0.89675048175E+03 -0.15115427407E+04  0.17735328028E+04  0.91066662832E+02 0.  0.
          2    1    3    3  502    0 -0.13408455788E+02  0.26023630874E+03 -0.55302856216E+02  0.26638530173E+03  0.00000000000E+00 0. -1.
         -1    1    3    3    0  502 -0.13953308119E+03  0.52072892445E+03 -0.89524324454E+02  0.54648211149E+03  0.00000000000E+00 0.  1.
         11    1    5    5    0    0 -0.75953228133E+02  0.11899440190E+03  0.10668595893E+01  0.14117258493E+03  0.00000000000E+00 0. -1.
        -11    1    5    5    0    0  0.93439010898E+01 -0.32091533433E+01 -0.19091793797E+02  0.21496598408E+02  0.00000000000E+00 0.  1.
          1    1    6    6  503    0  0.19779953485E+03 -0.81066105955E+03 -0.14120632301E+04  0.16401885791E+04  0.00000000000E+00 0. -1.
         -1    1    6    6    0  503  0.21751329170E+02 -0.86089422198E+02 -0.99479510674E+02  0.13334422364E+03  0.00000000000E+00 0.  1.
<mgrwt>
<rscale>  0 0.21803175E+04</rscale>
<asrwt>0</asrwt>
<pdfrwt beam="1">  1        2 0.34026648E+00 0.21803175E+04</pdfrwt>
<pdfrwt beam="2">  1       -1 0.82667272E-01 0.21803175E+04</pdfrwt>
<totfact> 0.77046079E+00</totfact>
</mgrwt>
</event>
<event>
12    6  0.1530720E-007  0.1882712E+04  0.7818608E-02  0.8663510E-01
          2   -1    0    0  501    0  0.00000000000E+00  0.00000000000E+00  0.10543823499E+04  0.10543823499E+04  0.00000000000E+00 0. -1.
         -1   -1    0    0    0  501 -0.00000000000E+00 -0.00000000000E+00 -0.84044545031E+03  0.84044545031E+03  0.00000000000E+00 0.  1.
         24    2    1    2    0    0  0.65544515031E+03  0.26085257807E+03  0.23633209236E+03  0.74824900264E+03  0.79820420487E+02 0.  0.
        254    2    1    2    0    0 -0.65544515031E+03 -0.26085257807E+03 -0.22395192744E+02  0.11465787976E+04  0.90359779875E+03 0.  0.
         23    2    4    4    0    0 -0.56044560487E+03 -0.15335883815E+03 -0.41460439064E+03  0.71951666230E+03  0.90494294506E+02 0.  0.
         23    2    4    4    0    0 -0.94999545439E+02 -0.10749373992E+03  0.39220919790E+03  0.42706213530E+03  0.89298346759E+02 0.  0.
          2    1    3    3  502    0  0.30815994943E+03  0.14086367085E+03  0.15148326969E+03  0.37114998208E+03  0.00000000000E+00 0. -1.
         -1    1    3    3    0  502  0.34728520087E+03  0.11998890722E+03  0.84848822674E+02  0.37709902056E+03  0.00000000000E+00 0.  1.
         11    1    5    5    0    0 -0.32327852026E+03 -0.50861465151E+02 -0.19903263343E+03  0.38302725682E+03  0.00000000000E+00 0. -1.
        -11    1    5    5    0    0 -0.23716708461E+03 -0.10249737300E+03 -0.21557175722E+03  0.33648940549E+03  0.00000000000E+00 0.  1.
          4    1    6    6  503    0 -0.56357737058E+02 -0.19016079840E+01  0.12265834585E+03  0.13499955721E+03  0.00000000000E+00 0. -1.
         -4    1    6    6    0  503 -0.38641808381E+02 -0.10559213194E+03  0.26955085205E+03  0.29206257809E+03  0.00000000000E+00 0.  1.
<mgrwt>
<rscale>  0 0.18827117E+04</rscale>
<asrwt>0</asrwt>
<pdfrwt beam="1">  1        2 0.16221267E+00 0.18827117E+04</pdfrwt>
<pdfrwt beam="2">  1       -1 0.12929930E+00 0.18827117E+04</pdfrwt>
<totfact> 0.12794105E+01</totfact>
</mgrwt>
</event>
<event>
12    6  0.1530720E-007  0.1907964E+04  0.7818608E-02  0.8650902E-01
         -3   -1    0    0    0  501 -0.00000000000E+00  0.00000000000E+00  0.45359029941E+03  0.45359029941E+03  0.00000000000E+00 0.  1.
          4   -1    0    0  501    0  0.00000000000E+00 -0.00000000000E+00 -0.20063960186E+04  0.20063960186E+04  0.00000000000E+00 0. -1.
         24    2    1    2    0    0 -0.36604688160E+03 -0.57315846343E+03 -0.97269206213E+03  0.11883427917E+04  0.59395279060E+02 0.  0.
        254    2    1    2    0    0  0.36604688160E+03  0.57315846343E+03 -0.58011365710E+03  0.12716435263E+04  0.90445810250E+03 0.  0.
         23    2    4    4    0    0  0.38330146781E+03  0.18323322842E+03  0.13281426109E+03  0.45374424204E+03  0.88032823520E+02 0.  0.
         23    2    4    4    0    0 -0.17254586208E+02  0.38992523502E+03 -0.71292791818E+03  0.81789928429E+03  0.91398102097E+02 0.  0.
          4    1    3    3  502    0 -0.19310397928E+02 -0.38127985844E+02 -0.39808933778E+02  0.58407071329E+02  0.00000000000E+00 0. -1.
         -3    1    3    3    0  502 -0.34673648367E+03 -0.53503047759E+03 -0.93288312835E+03  0.11299357204E+04  0.00000000000E+00 0.  1.
         11    1    5    5    0    0  0.36569587333E+03  0.16695641512E+03  0.10207856817E+03  0.41476252290E+03  0.00000000000E+00 0.  1.
        -11    1    5    5    0    0  0.17605594476E+02  0.16276813298E+02  0.30735692922E+02  0.38981719143E+02  0.00000000000E+00 0. -1.
          3    1    6    6  503    0 -0.23244923226E+02  0.11941882707E+03 -0.14852561783E+03  0.19199229637E+03  0.00000000000E+00 0. -1.
         -3    1    6    6    0  503  0.59903370186E+01  0.27050640795E+03 -0.56440230036E+03  0.62590698792E+03  0.00000000000E+00 0.  1.
<mgrwt>
<rscale>  0 0.19079641E+04</rscale>
<asrwt>0</asrwt>
<pdfrwt beam="1">  1        4 0.30867631E+00 0.19079641E+04</pdfrwt>
<pdfrwt beam="2">  1       -3 0.69783122E-01 0.19079641E+04</pdfrwt>
<totfact> 0.11462879E-01</totfact>
</mgrwt>
</event>
<event>
12    6  0.1530720E-007  0.2591753E+04  0.7818608E-02  0.8371008E-01
          2   -1    0    0  501    0  0.00000000000E+00  0.00000000000E+00  0.17497351653E+04  0.17497351653E+04  0.00000000000E+00 0. -1.
         -1   -1    0    0    0  501 -0.00000000000E+00 -0.00000000000E+00 -0.95974278407E+03  0.95974278407E+03  0.00000000000E+00 0.  1.
         24    2    1    2    0    0 -0.24351820396E+03  0.11313476770E+04  0.26218193301E+03  0.11894749310E+04  0.82840591689E+02 0.  0.
        254    2    1    2    0    0  0.24351820396E+03 -0.11313476770E+04  0.52781044820E+03  0.15200030184E+04  0.83221188695E+03 0.  0.
         23    2    4    4    0    0  0.96797422444E+02 -0.12000184759E+04  0.33851494651E+03  0.12546557194E+04  0.10076964623E+03 0.  0.
         23    2    4    4    0    0  0.14672078151E+03  0.68670798953E+02  0.18929550169E+03  0.26534729900E+03  0.91289297118E+02 0.  0.
          4    1    3    3  502    0 -0.13627981141E+03  0.67593633391E+03  0.11542967434E+03  0.69913240822E+03  0.00000000000E+00 0. -1.
         -3    1    3    3    0  502 -0.10723839254E+03  0.45541134305E+03  0.14675225867E+03  0.49034252277E+03  0.00000000000E+00 0.  1.
         11    1    5    5    0    0  0.19668451171E+02 -0.87637520356E+02  0.16586926021E+01  0.89832812528E+02  0.00000000000E+00 0.  1.
        -11    1    5    5    0    0  0.77128971273E+02 -0.11123809556E+04  0.33685625390E+03  0.11648229068E+04  0.00000000000E+00 0. -1.
          2    1    6    6  503    0 -0.59912054999E+01 -0.63968379321E+01  0.33524356086E+02  0.34651068235E+02  0.00000000000E+00 0.  1.
         -2    1    6    6    0  503  0.15271198701E+03  0.75067636885E+02  0.15577114561E+03  0.23069623077E+03  0.00000000000E+00 0. -1.
<mgrwt>
<rscale>  0 0.25917528E+04</rscale>
<asrwt>0</asrwt>
<pdfrwt beam="1">  1        2 0.26919002E+00 0.25917528E+04</pdfrwt>
<pdfrwt beam="2">  1       -1 0.14765274E+00 0.25917528E+04</pdfrwt>
<totfact> 0.33752042E+00</totfact>
</mgrwt>
</event>
<event>
12    6  0.1530720E-007  0.1514643E+04  0.7818608E-02  0.8874774E-01
          2   -1    0    0  501    0  0.00000000000E+00  0.00000000000E+00  0.92242531559E+03  0.92242531559E+03  0.00000000000E+00 0. -1.
         -1   -1    0    0    0  501 -0.00000000000E+00 -0.00000000000E+00 -0.62176908863E+03  0.62176908863E+03  0.00000000000E+00 0.  1.
         24    2    1    2    0    0  0.94606590574E+01  0.15825511812E+03 -0.37355841020E+03  0.41357395307E+03  0.79770560668E+02 0.  0.
        254    2    1    2    0    0 -0.94606590574E+01 -0.15825511812E+03  0.67421463716E+03  0.11306204512E+04  0.89364592604E+03 0.  0.
         23    2    4    4    0    0  0.79053544991E+02 -0.18334714516E+03 -0.16892494769E+03  0.27687946354E+03  0.90889827612E+02 0.  0.
         23    2    4    4    0    0 -0.88514204048E+02  0.25092027038E+02  0.84313958485E+03  0.85374098761E+03  0.97595800367E+02 0.  0.
          4    1    3    3  502    0  0.31194388907E+02  0.55945174868E+02 -0.83532900608E+02  0.10526489431E+03  0.00000000000E+00 0. -1.
         -3    1    3    3    0  502 -0.21733729850E+02  0.10230994325E+03 -0.29002550959E+03  0.30830905876E+03  0.00000000000E+00 0.  1.
         11    1    5    5    0    0 -0.27946301044E+01 -0.86947953538E+02 -0.10111584343E+03  0.13338729465E+03  0.00000000000E+00 0. -1.
        -11    1    5    5    0    0  0.81848175095E+02 -0.96399191621E+02 -0.67809104266E+02  0.14349216889E+03  0.00000000000E+00 0.  1.
          3    1    6    6  503    0 -0.27759436475E+02 -0.26616064833E+02  0.49878731771E+03  0.50026771786E+03  0.00000000000E+00 0. -1.
         -3    1    6    6    0  503 -0.60754767573E+02  0.51708091871E+02  0.34435226714E+03  0.35347326975E+03  0.00000000000E+00 0.  1.
<mgrwt>
<rscale>  0 0.15146426E+04</rscale>
<asrwt>0</asrwt>
<pdfrwt beam="1">  1        2 0.14191159E+00 0.15146426E+04</pdfrwt>
<pdfrwt beam="2">  1       -1 0.95656783E-01 0.15146426E+04</pdfrwt>
<totfact> 0.32894268E+01</totfact>
</mgrwt>
</event>
<event>
12    6  0.1530720E-007  0.1424866E+04  0.7818608E-02  0.8936013E-01
          2   -1    0    0  501    0  0.00000000000E+00  0.00000000000E+00  0.29098227408E+04  0.29098227408E+04  0.00000000000E+00 0. -1.
         -1   -1    0    0    0  501 -0.00000000000E+00 -0.00000000000E+00 -0.17443011718E+03  0.17443011718E+03  0.00000000000E+00 0.  1.
         24    2    1    2    0    0 -0.30706077445E+02  0.29823053553E+02  0.17257549521E+04  0.17279706857E+04  0.76290616436E+02 0.  0.
        254    2    1    2    0    0  0.30706077445E+02 -0.29823053553E+02  0.10096376715E+04  0.13562821723E+04  0.90459981505E+03 0.  0.
         23    2    4    4    0    0  0.43830785415E+03 -0.13230550306E+03  0.61551363225E+03  0.77266573880E+03  0.92394757819E+02 0.  0.
         23    2    4    4    0    0 -0.40760177671E+03  0.10248244951E+03  0.39412403924E+03  0.58361643347E+03  0.92911367852E+02 0.  0.
          2    1    3    3  502    0  0.20420072471E+02 -0.80195965806E+01  0.30213839232E+03  0.30293382347E+03  0.00000000000E+00 0. -1.
         -1    1    3    3    0  502 -0.51126149916E+02  0.37842650133E+02  0.14236165598E+04  0.14250368622E+04  0.00000000000E+00 0.  1.
         11    1    5    5    0    0  0.24114404447E+03 -0.98762669661E+02  0.41075775146E+03  0.48644264358E+03  0.00000000000E+00 0. -1.
        -11    1    5    5    0    0  0.19716380968E+03 -0.33542833397E+02  0.20475588079E+03  0.28622309522E+03  0.00000000000E+00 0.  1.
          4    1    6    6  503    0 -0.40447368296E+02  0.27822021433E+01  0.75669370852E+01  0.41243045325E+02  0.00000000000E+00 0.  1.
         -4    1    6    6    0  503 -0.36715440841E+03  0.99700247362E+02  0.38655710215E+03  0.54237338814E+03  0.00000000000E+00 0. -1.
<mgrwt>
<rscale>  0 0.14248659E+04</rscale>
<asrwt>0</asrwt>
<pdfrwt beam="1">  1        2 0.44766500E+00 0.14248659E+04</pdfrwt>
<pdfrwt beam="2">  1       -1 0.26835405E-01 0.14248659E+04</pdfrwt>
<totfact> 0.27378508E+01</totfact>
</mgrwt>
</event>
<event>
12    6  0.1530720E-007  0.2439314E+04  0.7818608E-02  0.8424930E-01
          2   -1    0    0  501    0  0.00000000000E+00  0.00000000000E+00  0.28908760646E+04  0.28908760646E+04  0.00000000000E+00 0. -1.
         -1   -1    0    0    0  501 -0.00000000000E+00 -0.00000000000E+00 -0.51457156552E+03  0.51457156552E+03  0.00000000000E+00 0.  1.
         24    2    1    2    0    0 -0.16506111879E+03 -0.45204626277E+03 -0.27727681967E+03  0.56144482663E+03  0.82139284189E+02 0.  0.
        254    2    1    2    0    0  0.16506111879E+03  0.45204626277E+03  0.26535813187E+04  0.28440028035E+04  0.90292144423E+03 0.  0.
         23    2    4    4    0    0 -0.17604069831E+03  0.35110849246E+03  0.42796413775E+03  0.58844388308E+03  0.94049983485E+02 0.  0.
         23    2    4    4    0    0  0.34110181710E+03  0.10093777031E+03  0.22256171810E+04  0.22555589204E+04  0.87380341057E+02 0.  0.
          2    1    3    3  502    0 -0.46374630439E+01 -0.46788909779E+02 -0.44168044395E+01  0.47225165995E+02  0.00000000000E+00 0. -1.
         -1    1    3    3    0  502 -0.16042365575E+03 -0.40525735299E+03 -0.27286001523E+03  0.51421966063E+03  0.00000000000E+00 0.  1.
         11    1    5    5    0    0 -0.16890676806E+03  0.34951113448E+03  0.43142311406E+03  0.58035629812E+03  0.00000000000E+00 0.  1.
        -11    1    5    5    0    0 -0.71339302515E+01  0.15973579799E+01 -0.34589763106E+01  0.80875849588E+01  0.00000000000E+00 0. -1.
          3    1    6    6  503    0  0.23127219866E+02 -0.14560798241E+02  0.20576380908E+03  0.20757078376E+03  0.00000000000E+00 0. -1.
         -3    1    6    6    0  503  0.31797459724E+03  0.11549856855E+03  0.20198533719E+04  0.20479881366E+04  0.00000000000E+00 0.  1.
<mgrwt>
<rscale>  0 0.24393135E+04</rscale>
<asrwt>0</asrwt>
<pdfrwt beam="1">  1        2 0.44475016E+00 0.24393135E+04</pdfrwt>
<pdfrwt beam="2">  1       -1 0.79164858E-01 0.24393135E+04</pdfrwt>
<totfact> 0.33102863E+00</totfact>
</mgrwt>
</event>
<event>
12    6  0.1530720E-007  0.1380330E+04  0.7818608E-02  0.8968181E-01
         -1   -1    0    0    0  501 -0.00000000000E+00  0.00000000000E+00  0.35937709213E+03  0.35937709213E+03  0.00000000000E+00 0.  1.
          2   -1    0    0  501    0  0.00000000000E+00 -0.00000000000E+00 -0.13254254849E+04  0.13254254849E+04  0.00000000000E+00 0. -1.
         24    2    1    2    0    0 -0.31667705084E+03  0.48605627948E+02 -0.17389827811E+03  0.37458882029E+03  0.86193454297E+02 0.  0.
        254    2    1    2    0    0  0.31667705084E+03 -0.48605627948E+02 -0.79215011469E+03  0.13102137568E+04  0.99323281390E+03 0.  0.
         23    2    4    4    0    0  0.12142231873E+03  0.31522364069E+03 -0.81488589777E+03  0.88698077857E+03  0.92663650030E+02 0.  0.
         23    2    4    4    0    0  0.19525473211E+03 -0.36382926864E+03  0.22735783079E+02  0.42323297819E+03  0.90072697655E+02 0.  0.
          4    1    3    3  502    0 -0.18053506094E+03  0.57925681823E+02 -0.13480614238E+03  0.23263918171E+03  0.00000000000E+00 0. -1.
         -3    1    3    3    0  502 -0.13614198990E+03 -0.93200538748E+01 -0.39092135725E+02  0.14194963858E+03  0.00000000000E+00 0.  1.
         11    1    5    5    0    0  0.11514715068E+03  0.23432041742E+03 -0.53083301606E+03  0.59156454869E+03  0.00000000000E+00 0. -1.
        -11    1    5    5    0    0  0.62751680484E+01  0.80903223277E+02 -0.28405288171E+03  0.29541622988E+03  0.00000000000E+00 0.  1.
          3    1    6    6  503    0  0.19847060282E+03 -0.36014751384E+03  0.11945842366E+02  0.41138730542E+03  0.00000000000E+00 0. -1.
         -3    1    6    6    0  503 -0.32158707071E+01 -0.36817548010E+01  0.10789940714E+02  0.11845672772E+02  0.00000000000E+00 0.  1.
<mgrwt>
<rscale>  0 0.13803298E+04</rscale>
<asrwt>0</asrwt>
<pdfrwt beam="1">  1        2 0.20391161E+00 0.13803298E+04</pdfrwt>
<pdfrwt beam="2">  1       -1 0.55288784E-01 0.13803298E+04</pdfrwt>
<totfact> 0.58698607E+01</totfact>
</mgrwt>
</event>
<event>
12    6  0.1530720E-007  0.1245256E+04  0.7818608E-02  0.9074141E-01
          2   -1    0    0  501    0  0.00000000000E+00  0.00000000000E+00  0.13597632967E+04  0.13597632967E+04  0.00000000000E+00 0. -1.
         -1   -1    0    0    0  501 -0.00000000000E+00 -0.00000000000E+00 -0.28509797046E+03  0.28509797046E+03  0.00000000000E+00 0.  1.
         24    2    1    2    0    0  0.98785928470E+02  0.14534296487E+03  0.55899512892E+03  0.59130665641E+03  0.79276545395E+02 0.  0.
        254    2    1    2    0    0 -0.98785928470E+02 -0.14534296487E+03  0.51567019737E+03  0.10535546108E+04  0.90176400926E+03 0.  0.
         23    2    4    4    0    0  0.38339087975E+03  0.21513869747E+02  0.16190372489E+03  0.42668998526E+03  0.91652136471E+02 0.  0.
         23    2    4    4    0    0 -0.48217680823E+03 -0.16685683462E+03  0.35376647248E+03  0.62686462554E+03  0.86445728960E+02 0.  0.
          4    1    3    3  502    0  0.99197671708E+02  0.15055907647E+03  0.55740196451E+03  0.58583714769E+03  0.00000000000E+00 0. -1.
         -3    1    3    3    0  502 -0.41174323828E+00 -0.52161115986E+01  0.15931644136E+01  0.54695087121E+01  0.00000000000E+00 0.  1.
         11    1    5    5    0    0  0.38878987993E+03  0.21432089318E+02  0.15960418592E+03  0.42082110374E+03  0.00000000000E+00 0. -1.
        -11    1    5    5    0    0 -0.53990001725E+01  0.81780429407E-01  0.22995389673E+01  0.58688815258E+01  0.00000000000E+00 0.  1.
          4    1    6    6  503    0 -0.42902403874E+03 -0.14625104764E+03  0.34400937469E+03  0.56902850950E+03  0.00000000000E+00 0. -1.
         -4    1    6    6    0  503 -0.53152769488E+02 -0.20605786984E+02  0.97570977879E+01  0.57836116041E+02  0.00000000000E+00 0.  1.
<mgrwt>
<rscale>  0 0.12452562E+04</rscale>
<asrwt>0</asrwt>
<pdfrwt beam="1">  1        2 0.20919435E+00 0.12452562E+04</pdfrwt>
<pdfrwt beam="2">  1       -1 0.43861227E-01 0.12452562E+04</pdfrwt>
<totfact> 0.87877713E+01</totfact>
</mgrwt>
</event>
<event>
12    6  0.1530720E-007  0.1654740E+04  0.7818608E-02  0.8787607E-01
         -1   -1    0    0    0  501 -0.00000000000E+00  0.00000000000E+00  0.20131169532E+03  0.20131169532E+03  0.00000000000E+00 0.  1.
          2   -1    0    0  501    0  0.00000000000E+00 -0.00000000000E+00 -0.34004058142E+04  0.34004058142E+04  0.00000000000E+00 0. -1.
         24    2    1    2    0    0 -0.39881768126E+03 -0.42760534729E+03 -0.94891701167E+03  0.11174592571E+04  0.79811153901E+02 0.  0.
        254    2    1    2    0    0  0.39881768126E+03  0.42760534729E+03 -0.22501771072E+04  0.24842582525E+04  0.87540857607E+03 0.  0.
         23    2    4    4    0    0  0.16549056506E+03  0.40615061936E+03 -0.35280076671E+03  0.57022168765E+03  0.91317793129E+02 0.  0.
         23    2    4    4    0    0  0.23332711620E+03  0.21454727933E+02 -0.18973763405E+04  0.19140365648E+04  0.92720792359E+02 0.  0.
          2    1    3    3  502    0 -0.22204212407E+03 -0.19052194867E+03 -0.51595800674E+03  0.59313909204E+03  0.00000000000E+00 0. -1.
         -1    1    3    3    0  502 -0.17677555719E+03 -0.23708339862E+03 -0.43295900493E+03  0.52432016504E+03  0.00000000000E+00 0.  1.
         11    1    5    5    0    0  0.14912285731E+03  0.27953925220E+03 -0.21813111335E+03  0.38465699358E+03  0.00000000000E+00 0. -1.
        -11    1    5    5    0    0  0.16367707748E+02  0.12661136716E+03 -0.13466965335E+03  0.18556469407E+03  0.00000000000E+00 0.  1.
          1    1    6    6  503    0  0.21969055334E+03 -0.70199282755E+01 -0.17000626441E+04  0.17142130009E+04  0.00000000000E+00 0.  1.
         -1    1    6    6    0  503  0.13636562858E+02  0.28474656208E+02 -0.19731369644E+03  0.19982356392E+03  0.00000000000E+00 0. -1.
<mgrwt>
<rscale>  0 0.16547404E+04</rscale>
<asrwt>0</asrwt>
<pdfrwt beam="1">  1        2 0.52313939E+00 0.16547404E+04</pdfrwt>
<pdfrwt beam="2">  1       -1 0.30971028E-01 0.16547404E+04</pdfrwt>
<totfact> 0.10089312E+01</totfact>
</mgrwt>
</event>
<event>
12    6  0.1530720E-007  0.1637258E+04  0.7818608E-02  0.8797980E-01
         -1   -1    0    0    0  501 -0.00000000000E+00  0.00000000000E+00  0.77663927473E+03  0.77663927473E+03  0.00000000000E+00 0.  1.
          2   -1    0    0  501    0  0.00000000000E+00 -0.00000000000E+00 -0.86288903019E+03  0.86288903019E+03  0.00000000000E+00 0. -1.
         24    2    1    2    0    0 -0.23355091031E+03  0.10259730406E+03 -0.55198299545E+03  0.61316157071E+03  0.78801332629E+02 0.  0.
        254    2    1    2    0    0  0.23355091031E+03 -0.10259730406E+03  0.46573324000E+03  0.10263667342E+04  0.87832168807E+03 0.  0.
         23    2    4    4    0    0  0.37712283877E+03  0.28701604788E+03  0.18266804014E+03  0.51552640299E+03  0.88317676762E+02 0.  0.
         23    2    4    4    0    0 -0.14357192845E+03 -0.38961335194E+03  0.28306519986E+03  0.51084033122E+03  0.91763140645E+02 0.  0.
          4    1    3    3  502    0 -0.14035996585E+03  0.50674863441E+02 -0.40443548881E+03  0.43108807268E+03  0.00000000000E+00 0. -1.
         -3    1    3    3    0  502 -0.93190944465E+02  0.51922440620E+02 -0.14754750664E+03  0.18207349803E+03  0.00000000000E+00 0.  1.
         11    1    5    5    0    0  0.37142210619E+03  0.26288230409E+03  0.18366618517E+03  0.49070842091E+03  0.00000000000E+00 0. -1.
        -11    1    5    5    0    0  0.57007325742E+01  0.24133743784E+02 -0.99814503325E+00  0.24817982078E+02  0.00000000000E+00 0.  1.
          4    1    6    6  503    0 -0.78881131609E+02 -0.26070663299E+03  0.13448430017E+03  0.30376999259E+03  0.00000000000E+00 0. -1.
         -4    1    6    6    0  503 -0.64690796846E+02 -0.12890671895E+03  0.14858089968E+03  0.20707033862E+03  0.00000000000E+00 0.  1.
<mgrwt>
<rscale>  0 0.16372581E+04</rscale>
<asrwt>0</asrwt>
<pdfrwt beam="1">  1        2 0.13275216E+00 0.16372581E+04</pdfrwt>
<pdfrwt beam="2">  1       -1 0.11948296E+00 0.16372581E+04</pdfrwt>
<totfact> 0.21234829E+01</totfact>
</mgrwt>
</event>
<event>
12    6  0.1530720E-007  0.1618061E+04  0.7818608E-02  0.8809528E-01
          2   -1    0    0  501    0  0.00000000000E+00  0.00000000000E+00  0.35538837973E+03  0.35538837973E+03  0.00000000000E+00 0. -1.
         -1   -1    0    0    0  501 -0.00000000000E+00 -0.00000000000E+00 -0.18417336554E+04  0.18417336554E+04  0.00000000000E+00 0.  1.
         24    2    1    2    0    0 -0.44154999538E+03 -0.29940318470E+03 -0.72635833256E+03  0.90469368771E+03  0.79155390679E+02 0.  0.
        254    2    1    2    0    0  0.44154999538E+03  0.29940318470E+03 -0.75998694312E+03  0.12924283474E+04  0.89898955172E+03 0.  0.
         23    2    4    4    0    0  0.66499079855E+03  0.15039370704E+02 -0.51996447970E+03  0.84903988105E+03  0.89814890983E+02 0.  0.
         23    2    4    4    0    0 -0.22344080317E+03  0.28436381399E+03 -0.24002246342E+03  0.44338846638E+03  0.90520594014E+02 0.  0.
          2    1    3    3  502    0 -0.40714583080E+03 -0.25451161377E+03 -0.61947771303E+03  0.78377071011E+03  0.00000000000E+00 0. -1.
         -1    1    3    3    0  502 -0.34404164578E+02 -0.44891570921E+02 -0.10688061953E+03  0.12092297760E+03  0.00000000000E+00 0.  1.
         11    1    5    5    0    0  0.58934004347E+03 -0.47286188865E+01 -0.48554510711E+03  0.76360860243E+03  0.00000000000E+00 0. -1.
        -11    1    5    5    0    0  0.75650755085E+02  0.19767989591E+02 -0.34419372584E+02  0.85431278619E+02  0.00000000000E+00 0.  1.
          4    1    6    6  503    0 -0.16673086882E+03  0.16787258094E+03 -0.11395323679E+03  0.26261326361E+03  0.00000000000E+00 0. -1.
         -4    1    6    6    0  503 -0.56709934349E+02  0.11649123305E+03 -0.12606922663E+03  0.18077520277E+03  0.00000000000E+00 0.  1.
<mgrwt>
<rscale>  0 0.16180615E+04</rscale>
<asrwt>0</asrwt>
<pdfrwt beam="1">  1        2 0.54675136E-01 0.16180615E+04</pdfrwt>
<pdfrwt beam="2">  1       -1 0.28334363E+00 0.16180615E+04</pdfrwt>
<totfact> 0.42199246E+00</totfact>
</mgrwt>
</event>
<event>
12    6  0.1530720E-007  0.1378216E+04  0.7818608E-02  0.8969739E-01
          2   -1    0    0  501    0  0.00000000000E+00  0.00000000000E+00  0.10961635559E+04  0.10961635559E+04  0.00000000000E+00 0. -1.
         -1   -1    0    0    0  501 -0.00000000000E+00 -0.00000000000E+00 -0.43321085537E+03  0.43321085537E+03  0.00000000000E+00 0.  1.
         24    2    1    2    0    0 -0.19538865521E+03 -0.27917460682E+03 -0.81979228763E+01  0.35002717376E+03  0.79602944359E+02 0.  0.
        254    2    1    2    0    0  0.19538865521E+03  0.27917460682E+03  0.67115062338E+03  0.11793472375E+04  0.90791054604E+03 0.  0.
         23    2    4    4    0    0  0.16253985698E+03 -0.24779407765E+03  0.54869988832E+03  0.63017781967E+03  0.90727101443E+02 0.  0.
         23    2    4    4    0    0  0.32848798235E+02  0.52696868447E+03  0.12245073505E+03  0.54916941781E+03  0.88418487764E+02 0.  0.
          4    1    3    3  502    0 -0.10769056994E+03 -0.92142216500E+02  0.13231284709E+02  0.14234645697E+03  0.00000000000E+00 0. -1.
         -3    1    3    3    0  502 -0.87698085269E+02 -0.18703239032E+03 -0.21429207586E+02  0.20768071679E+03  0.00000000000E+00 0.  1.
         11    1    5    5    0    0  0.86946076228E+02 -0.75074038473E+02  0.14809707461E+03  0.18742591852E+03  0.00000000000E+00 0.  1.
        -11    1    5    5    0    0  0.75593780748E+02 -0.17272003918E+03  0.40060281371E+03  0.44275190115E+03  0.00000000000E+00 0. -1.
          4    1    6    6  503    0  0.26794173900E+02  0.26535404979E+03  0.17674647360E+02  0.26728840726E+03  0.00000000000E+00 0. -1.
         -4    1    6    6    0  503  0.60546243355E+01  0.26161463469E+03  0.10477608769E+03  0.28188101055E+03  0.00000000000E+00 0.  1.
<mgrwt>
<rscale>  0 0.13782162E+04</rscale>
<asrwt>0</asrwt>
<pdfrwt beam="1">  1        2 0.16864055E+00 0.13782162E+04</pdfrwt>
<pdfrwt beam="2">  1       -1 0.66647824E-01 0.13782162E+04</pdfrwt>
<totfact> 0.55558551E+01</totfact>
</mgrwt>
</event>
<event>
12    6  0.1530720E-007  0.2215548E+04  0.7818608E-02  0.8511985E-01
          2   -1    0    0  501    0  0.00000000000E+00  0.00000000000E+00  0.15796676774E+04  0.15796676774E+04  0.00000000000E+00 0. -1.
         -1   -1    0    0    0  501 -0.00000000000E+00 -0.00000000000E+00 -0.77684883213E+03  0.77684883213E+03  0.00000000000E+00 0.  1.
         24    2    1    2    0    0  0.35459055410E+03 -0.17362027457E+03 -0.56938135044E+03  0.69736413879E+03  0.79013663705E+02 0.  0.
        254    2    1    2    0    0 -0.35459055410E+03  0.17362027457E+03  0.13722001957E+04  0.16591523707E+04  0.84497026659E+03 0.  0.
         23    2    4    4    0    0  0.28404573330E+01  0.22999207712E+03  0.15555330936E+02  0.25203917661E+03  0.10186930100E+03 0.  0.
         23    2    4    4    0    0 -0.35743101143E+03 -0.56371802552E+02  0.13566448648E+04  0.14071131941E+04  0.92452928173E+02 0.  0.
          4    1    3    3  502    0  0.53436170652E+02 -0.48614996795E+02 -0.67547324789E+02  0.98901381858E+02  0.00000000000E+00 0. -1.
         -3    1    3    3    0  502  0.30115438345E+03 -0.12500527778E+03 -0.50183402565E+03  0.59846275694E+03  0.00000000000E+00 0.  1.
         11    1    5    5    0    0  0.42718398977E+02  0.16883494479E+03  0.32320581360E+02  0.17712910594E+03  0.00000000000E+00 0.  1.
        -11    1    5    5    0    0 -0.39877941644E+02  0.61157132338E+02 -0.16765250425E+02  0.74910070667E+02  0.00000000000E+00 0. -1.
          4    1    6    6  503    0 -0.13389091280E+03 -0.37084720091E+02  0.68611927074E+03  0.70004407481E+03  0.00000000000E+00 0. -1.
         -4    1    6    6    0  503 -0.22354009863E+03 -0.19287082461E+02  0.67052559403E+03  0.70706911932E+03  0.00000000000E+00 0.  1.
<mgrwt>
<rscale>  0 0.22155478E+04</rscale>
<asrwt>0</asrwt>
<pdfrwt beam="1">  1        2 0.24302580E+00 0.22155478E+04</pdfrwt>
<pdfrwt beam="2">  1       -1 0.11951521E+00 0.22155478E+04</pdfrwt>
<totfact> 0.74430764E+00</totfact>
</mgrwt>
</event>
<event>
12    6  0.1530720E-007  0.2259551E+04  0.7818608E-02  0.8494042E-01
          2   -1    0    0  501    0  0.00000000000E+00  0.00000000000E+00  0.14796904351E+04  0.14796904351E+04  0.00000000000E+00 0. -1.
         -1   -1    0    0    0  501 -0.00000000000E+00 -0.00000000000E+00 -0.86260800855E+03  0.86260800855E+03  0.00000000000E+00 0.  1.
         24    2    1    2    0    0 -0.51875344289E+03  0.64952255009E+03 -0.21059936818E+03  0.86125429066E+03  0.80138515866E+02 0.  0.
        254    2    1    2    0    0  0.51875344289E+03 -0.64952255009E+03  0.82768179469E+03  0.14810441529E+04  0.90412938903E+03 0.  0.
         23    2    4    4    0    0  0.13273923385E+03 -0.71591631223E+03  0.78824997689E+03  0.10770718362E+04  0.92681410795E+02 0.  0.
         23    2    4    4    0    0  0.38601420905E+03  0.66393762143E+02  0.39431817806E+02  0.40397231676E+03  0.90684415520E+02 0.  0.
          4    1    3    3  502    0 -0.19143025687E+03  0.29213592818E+03 -0.11112623012E+03  0.36652146295E+03  0.00000000000E+00 0. -1.
         -3    1    3    3    0  502 -0.32732318603E+03  0.35738662190E+03 -0.99473138058E+02  0.49473282772E+03  0.00000000000E+00 0.  1.
         11    1    5    5    0    0  0.21723121117E+02 -0.27480064292E+03  0.24767100698E+03  0.37057821717E+03  0.00000000000E+00 0. -1.
        -11    1    5    5    0    0  0.11101611273E+03 -0.44111566931E+03  0.54057896991E+03  0.70649361901E+03  0.00000000000E+00 0.  1.
          1    1    6    6  503    0  0.30669321830E+03  0.66249847136E+02  0.65396518797E+02  0.32050971447E+03  0.00000000000E+00 0. -1.
         -1    1    6    6    0  503  0.79320990745E+02  0.14391500639E+00 -0.25964700991E+02  0.83462602295E+02  0.00000000000E+00 0.  1.
<mgrwt>
<rscale>  0 0.22595511E+04</rscale>
<asrwt>0</asrwt>
<pdfrwt beam="1">  1        2 0.22764468E+00 0.22595511E+04</pdfrwt>
<pdfrwt beam="2">  1       -1 0.13270892E+00 0.22595511E+04</pdfrwt>
<totfact> 0.65005753E+00</totfact>
</mgrwt>
</event>
<event>
12    6  0.1530720E-007  0.1973232E+04  0.7818608E-02  0.8619239E-01
          2   -1    0    0  501    0  0.00000000000E+00  0.00000000000E+00  0.10257990291E+04  0.10257990291E+04  0.00000000000E+00 0. -1.
         -1   -1    0    0    0  501 -0.00000000000E+00 -0.00000000000E+00 -0.94892953888E+03  0.94892953888E+03  0.00000000000E+00 0.  1.
         24    2    1    2    0    0 -0.22437905922E+03 -0.43629667928E+02 -0.72450779283E+03  0.76393892337E+03  0.80259744752E+02 0.  0.
        254    2    1    2    0    0  0.22437905922E+03  0.43629667928E+02  0.80137728302E+03  0.12107896446E+04  0.87838289121E+03 0.  0.
         23    2    4    4    0    0 -0.12801891409E+02  0.41768150189E+03  0.53896019574E+03  0.68786956788E+03  0.89803810500E+02 0.  0.
         23    2    4    4    0    0  0.23718095063E+03 -0.37405183396E+03  0.26241708729E+03  0.52292007672E+03  0.91722958416E+02 0.  0.
          2    1    3    3  502    0 -0.12574951570E+03  0.16175940008E+02 -0.39193353374E+03  0.41193020842E+03  0.00000000000E+00 0. -1.
         -1    1    3    3    0  502 -0.98629543524E+02 -0.59805607936E+02 -0.33257425908E+03  0.35200871495E+03  0.00000000000E+00 0.  1.
         11    1    5    5    0    0 -0.27100357301E+02  0.36552803769E+03  0.42161490278E+03  0.55866295917E+03  0.00000000000E+00 0.  1.
        -11    1    5    5    0    0  0.14298465892E+02  0.52153464204E+02  0.11734529296E+03  0.12920660871E+03  0.00000000000E+00 0. -1.
          2    1    6    6  503    0  0.52795291602E+01 -0.30885965957E+01  0.23839507927E+02  0.24611684122E+02  0.00000000000E+00 0. -1.
         -2    1    6    6    0  503  0.23190142147E+03 -0.37096323737E+03  0.23857757936E+03  0.49830839259E+03  0.00000000000E+00 0.  1.
<mgrwt>
<rscale>  0 0.19732319E+04</rscale>
<asrwt>0</asrwt>
<pdfrwt beam="1">  1        2 0.15781523E+00 0.19732319E+04</pdfrwt>
<pdfrwt beam="2">  1       -1 0.14598916E+00 0.19732319E+04</pdfrwt>
<totfact> 0.96638417E+00</totfact>
</mgrwt>
</event>
<event>
12    6  0.1530720E-007  0.1754091E+04  0.7818608E-02  0.8731102E-01
          2   -1    0    0  501    0  0.00000000000E+00  0.00000000000E+00  0.21371433752E+04  0.21371433752E+04  0.00000000000E+00 0. -1.
         -1   -1    0    0    0  501 -0.00000000000E+00 -0.00000000000E+00 -0.35992384301E+03  0.35992384301E+03  0.00000000000E+00 0.  1.
         24    2    1    2    0    0  0.22945394253E+03  0.41938751839E+03  0.42156941348E+02  0.48674515263E+03  0.81293502717E+02 0.  0.
        254    2    1    2    0    0 -0.22945394253E+03 -0.41938751839E+03  0.17350625908E+04  0.20103220655E+04  0.89577765704E+03 0.  0.
         23    2    4    4    0    0 -0.37869724466E+03 -0.61154031600E+03  0.14756833886E+04  0.16442097797E+04  0.91603358322E+02 0.  0.
         23    2    4    4    0    0  0.14924330213E+03  0.19215279761E+03  0.25937920224E+03  0.36611228582E+03  0.86973412082E+02 0.  0.
          2    1    3    3  502    0 -0.41300265779E+01  0.70019718609E+01 -0.63632866581E+01  0.10323572374E+02  0.00000000000E+00 0. -1.
         -1    1    3    3    0  502  0.23358396911E+03  0.41238554652E+03  0.48520228006E+02  0.47642158026E+03  0.00000000000E+00 0.  1.
         11    1    5    5    0    0 -0.14040228369E+03 -0.29526690782E+03  0.60460298184E+03  0.68734279204E+03  0.00000000000E+00 0.  1.
        -11    1    5    5    0    0 -0.23829496097E+03 -0.31627340818E+03  0.87108040671E+03  0.95686698767E+03  0.00000000000E+00 0. -1.
          2    1    6    6  503    0  0.72601882513E+02  0.29136310075E+02  0.76639123690E+02  0.10951489939E+03  0.00000000000E+00 0. -1.
         -2    1    6    6    0  503  0.76641419615E+02  0.16301648754E+03  0.18274007855E+03  0.25659738642E+03  0.00000000000E+00 0.  1.
<mgrwt>
<rscale>  0 0.17540911E+04</rscale>
<asrwt>0</asrwt>
<pdfrwt beam="1">  1        2 0.32879128E+00 0.17540911E+04</pdfrwt>
<pdfrwt beam="2">  1       -1 0.55372900E-01 0.17540911E+04</pdfrwt>
<totfact> 0.19934617E+01</totfact>
</mgrwt>
</event>
<event>
12    6  0.1530720E-007  0.1226644E+04  0.7818608E-02  0.9089850E-01
          2   -1    0    0  501    0  0.00000000000E+00  0.00000000000E+00  0.44117069867E+03  0.44117069867E+03  0.00000000000E+00 0. -1.
         -1   -1    0    0    0  501 -0.00000000000E+00 -0.00000000000E+00 -0.85264863091E+03  0.85264863091E+03  0.00000000000E+00 0.  1.
         24    2    1    2    0    0  0.22367665065E+03  0.10019905809E+03 -0.21657039379E+03  0.33608186454E+03  0.77312281799E+02 0.  0.
        254    2    1    2    0    0 -0.22367665065E+03 -0.10019905809E+03 -0.19490753846E+03  0.95773746504E+03  0.90509723682E+03 0.  0.
         23    2    4    4    0    0  0.15367498774E+03  0.25583923479E+03 -0.28561062062E+03  0.42309861067E+03  0.91483833722E+02 0.  0.
         23    2    4    4    0    0 -0.37735163839E+03 -0.35603829288E+03  0.90703082163E+02  0.53463885436E+03  0.91946345698E+02 0.  0.
          2    1    3    3  502    0  0.75758114525E+02  0.26593236947E+02 -0.27210703975E+02  0.84775672091E+02  0.00000000000E+00 0. -1.
         -1    1    3    3    0  502  0.14791853613E+03  0.73605821147E+02 -0.18935968982E+03  0.25130619245E+03  0.00000000000E+00 0.  1.
         11    1    5    5    0    0  0.14971335044E+03  0.26055292288E+03 -0.28824830261E+03  0.41640004428E+03  0.00000000000E+00 0.  1.
        -11    1    5    5    0    0  0.39616372967E+01 -0.47136880894E+01  0.26376819895E+01  0.66985663953E+01  0.00000000000E+00 0. -1.
          4    1    6    6  503    0 -0.27182838526E+03 -0.26986648963E+03  0.10628960651E+03  0.39751235668E+03  0.00000000000E+00 0.  1.
         -4    1    6    6    0  503 -0.10552325313E+03 -0.86171803247E+02 -0.15586524345E+02  0.13712649769E+03  0.00000000000E+00 0. -1.
<mgrwt>
<rscale>  0 0.12266435E+04</rscale>
<asrwt>0</asrwt>
<pdfrwt beam="1">  1        2 0.67872416E-01 0.12266435E+04</pdfrwt>
<pdfrwt beam="2">  1       -1 0.13117671E+00 0.12266435E+04</pdfrwt>
<totfact> 0.39753884E+01</totfact>
</mgrwt>
</event>
<event>
12    6  0.1530720E-007  0.1390647E+04  0.7818608E-02  0.8960617E-01
         -1   -1    0    0    0  501 -0.00000000000E+00  0.00000000000E+00  0.15133802090E+04  0.15133802090E+04  0.00000000000E+00 0.  1.
          2   -1    0    0  501    0  0.00000000000E+00 -0.00000000000E+00 -0.31946670510E+03  0.31946670510E+03  0.00000000000E+00 0. -1.
         24    2    1    2    0    0 -0.16469619694E+03  0.32278069456E+03  0.52568233571E+03  0.64319023696E+03  0.77714533893E+02 0.  0.
        254    2    1    2    0    0  0.16469619694E+03 -0.32278069456E+03  0.66823116820E+03  0.11896566771E+04  0.91511633209E+03 0.  0.
         23    2    4    4    0    0  0.36137242917E+03 -0.48648629829E+03  0.68352181245E+03  0.91797039979E+03  0.90601522074E+02 0.  0.
         23    2    4    4    0    0 -0.19667623223E+03  0.16370560372E+03 -0.15290644251E+02  0.27168627736E+03  0.89992024594E+02 0.  0.
          4    1    3    3  502    0 -0.13663424798E+03  0.19038555309E+03  0.31090500427E+03  0.38932954964E+03  0.00000000000E+00 0. -1.
         -3    1    3    3    0  502 -0.28061948957E+02  0.13239514147E+03  0.21477733144E+03  0.25386068732E+03  0.00000000000E+00 0.  1.
         11    1    5    5    0    0  0.31239056174E+03 -0.38125284377E+03  0.51044399162E+03  0.70957357795E+03  0.00000000000E+00 0.  1.
        -11    1    5    5    0    0  0.48981867424E+02 -0.10523345452E+03  0.17307782083E+03  0.20839682183E+03  0.00000000000E+00 0. -1.
          1    1    6    6  503    0 -0.16912155882E+03  0.16972478250E+03  0.57365801237E-02  0.23960092547E+03  0.00000000000E+00 0. -1.
         -1    1    6    6    0  503 -0.27554673409E+02 -0.60191787719E+01 -0.15296380831E+02  0.32085351897E+02  0.00000000000E+00 0.  1.
<mgrwt>
<rscale>  0 0.13906467E+04</rscale>
<asrwt>0</asrwt>
<pdfrwt beam="1">  1        2 0.49148725E-01 0.13906467E+04</pdfrwt>
<pdfrwt beam="2">  1       -1 0.23282772E+00 0.13906467E+04</pdfrwt>
<totfact> 0.10324865E+01</totfact>
</mgrwt>
</event>
<event>
12    6  0.1530720E-007  0.1487217E+04  0.7818608E-02  0.8892998E-01
          2   -1    0    0  501    0  0.00000000000E+00  0.00000000000E+00  0.94267819921E+03  0.94267819921E+03  0.00000000000E+00 0. -1.
         -1   -1    0    0    0  501 -0.00000000000E+00 -0.00000000000E+00 -0.58657742449E+03  0.58657742449E+03  0.00000000000E+00 0.  1.
         24    2    1    2    0    0  0.45240836958E+03 -0.11390240858E+03  0.61957008711E+02  0.47751244032E+03  0.80823067156E+02 0.  0.
        254    2    1    2    0    0 -0.45240836958E+03  0.11390240858E+03  0.29414376600E+03  0.10517431834E+04  0.89554233689E+03 0.  0.
         23    2    4    4    0    0  0.20328823198E+03  0.21784893180E+03  0.21055211854E+03  0.37619114919E+03  0.91669644689E+02 0.  0.
         23    2    4    4    0    0 -0.65569660156E+03 -0.10394652322E+03  0.83591647457E+02  0.67555203420E+03  0.92952000524E+02 0.  0.
          2    1    3    3  502    0  0.80315775892E+01  0.87880488014E+01  0.53325067238E+01  0.13044986327E+02  0.00000000000E+00 0. -1.
         -1    1    3    3    0  502  0.44437679199E+03 -0.12269045738E+03  0.56624501987E+02  0.46446745399E+03  0.00000000000E+00 0.  1.
         11    1    5    5    0    0  0.37131614666E+02  0.62014285839E+02  0.98908610935E+02  0.12250486428E+03  0.00000000000E+00 0. -1.
        -11    1    5    5    0    0  0.16615661731E+03  0.15583464596E+03  0.11164350761E+03  0.25368628490E+03  0.00000000000E+00 0.  1.
          3    1    6    6  503    0 -0.51748675767E+02 -0.14977168273E+02  0.32581390108E+02  0.62958621288E+02  0.00000000000E+00 0. -1.
         -3    1    6    6    0  503 -0.60394792579E+03 -0.88969354943E+02  0.51010257349E+02  0.61259341291E+03  0.00000000000E+00 0.  1.
<mgrwt>
<rscale>  0 0.14872172E+04</rscale>
<asrwt>0</asrwt>
<pdfrwt beam="1">  1        2 0.14502742E+00 0.14872172E+04</pdfrwt>
<pdfrwt beam="2">  1       -1 0.90242680E-01 0.14872172E+04</pdfrwt>
<totfact> 0.36392013E+01</totfact>
</mgrwt>
</event>
<event>
12    6  0.1530720E-007  0.1252153E+04  0.7818608E-02  0.9068394E-01
          2   -1    0    0  501    0  0.00000000000E+00  0.00000000000E+00  0.11212544746E+04  0.11212544746E+04  0.00000000000E+00 0. -1.
         -1   -1    0    0    0  501 -0.00000000000E+00 -0.00000000000E+00 -0.34958304048E+03  0.34958304048E+03  0.00000000000E+00 0.  1.
         24    2    1    2    0    0 -0.31100594192E+02 -0.13900834868E+03  0.51615980354E+03  0.54131669929E+03  0.79449721053E+02 0.  0.
        254    2    1    2    0    0  0.31100594192E+02  0.13900834868E+03  0.25551163053E+03  0.92952081575E+03  0.88228804005E+03 0.  0.
         23    2    4    4    0    0  0.18744437359E+03 -0.31754595171E+03  0.21375750688E+03  0.43657790364E+03  0.94536604356E+02 0.  0.
         23    2    4    4    0    0 -0.15634377940E+03  0.45655430039E+03  0.41754123651E+02  0.49294291211E+03  0.91455460197E+02 0.  0.
          4    1    3    3  502    0 -0.39067151706E+02 -0.40535369972E+02  0.11324638640E+03  0.12646779271E+03  0.00000000000E+00 0. -1.
         -3    1    3    3    0  502  0.79665575144E+01 -0.98472978711E+02  0.40291341714E+03  0.41484890658E+03  0.00000000000E+00 0.  1.
         11    1    5    5    0    0  0.18001943153E+03 -0.31954793781E+03  0.21908836821E+03  0.42722077825E+03  0.00000000000E+00 0. -1.
        -11    1    5    5    0    0  0.74249420580E+01  0.20019861018E+01 -0.53308613329E+01  0.93571253848E+01  0.00000000000E+00 0.  1.
          3    1    6    6  503    0 -0.10883205876E+03  0.24553891484E+03  0.62184143374E+02  0.27568214197E+03  0.00000000000E+00 0. -1.
         -3    1    6    6    0  503 -0.47511720639E+02  0.21101538555E+03 -0.20430019723E+02  0.21726077014E+03  0.00000000000E+00 0.  1.
<mgrwt>
<rscale>  0 0.12521526E+04</rscale>
<asrwt>0</asrwt>
<pdfrwt beam="1">  1        2 0.17250069E+00 0.12521526E+04</pdfrwt>
<pdfrwt beam="2">  1       -1 0.53782007E-01 0.12521526E+04</pdfrwt>
<totfact> 0.82699511E+01</totfact>
</mgrwt>
</event>
<event>
12    6  0.1530720E-007  0.2348312E+04  0.7818608E-02  0.8459112E-01
          2   -1    0    0  501    0  0.00000000000E+00  0.00000000000E+00  0.34004811034E+04  0.34004811034E+04  0.00000000000E+00 0. -1.
         -1   -1    0    0    0  501 -0.00000000000E+00 -0.00000000000E+00 -0.40542563632E+03  0.40542563632E+03  0.00000000000E+00 0.  1.
         24    2    1    2    0    0 -0.17532433265E+03 -0.50259049606E+03 -0.91785052250E+02  0.54607703010E+03  0.80248356011E+02 0.  0.
        254    2    1    2    0    0  0.17532433265E+03  0.50259049606E+03  0.30868405193E+04  0.32598297096E+04  0.90253504951E+03 0.  0.
         23    2    4    4    0    0  0.11995383903E+03  0.19707489965E+03  0.28446516742E+04  0.28553442924E+04  0.87866041752E+02 0.  0.
         23    2    4    4    0    0  0.55370493624E+02  0.30551559641E+03  0.24218884509E+03  0.40448541714E+03  0.92451851147E+02 0.  0.
          2    1    3    3  502    0 -0.22485306011E+01 -0.59172863840E+02 -0.29065752751E+02  0.65964397124E+02  0.00000000000E+00 0. -1.
         -1    1    3    3    0  502 -0.17307580205E+03 -0.44341763222E+03 -0.62719299499E+02  0.48011263298E+03  0.00000000000E+00 0.  1.
         11    1    5    5    0    0 -0.10997541516E+02  0.24774733472E+02  0.49703984107E+03  0.49777840145E+03  0.00000000000E+00 0. -1.
        -11    1    5    5    0    0  0.13095138054E+03  0.17230016618E+03  0.23476118331E+04  0.23575658910E+04  0.00000000000E+00 0.  1.
          3    1    6    6  503    0 -0.22801900366E+02  0.30834659825E+02  0.27008429392E+02  0.46905843613E+02  0.00000000000E+00 0. -1.
         -3    1    6    6    0  503  0.78172393989E+02  0.27468093658E+03  0.21518041570E+03  0.35757957353E+03  0.00000000000E+00 0.  1.
<mgrwt>
<rscale>  0 0.23483119E+04</rscale>
<asrwt>0</asrwt>
<pdfrwt beam="1">  1        2 0.52315092E+00 0.23483119E+04</pdfrwt>
<pdfrwt beam="2">  1       -1 0.62373177E-01 0.23483119E+04</pdfrwt>
<totfact> 0.25563624E+00</totfact>
</mgrwt>
</event>
<event>
12    6  0.1530720E-007  0.2155398E+04  0.7818608E-02  0.8537225E-01
          2   -1    0    0  501    0  0.00000000000E+00  0.00000000000E+00  0.98356992860E+03  0.98356992860E+03  0.00000000000E+00 0. -1.
         -1   -1    0    0    0  501 -0.00000000000E+00 -0.00000000000E+00 -0.11808367000E+04  0.11808367000E+04  0.00000000000E+00 0.  1.
         24    2    1    2    0    0 -0.70405376370E+03  0.28282385712E+03  0.37483266321E+03  0.84977958938E+03  0.77102456419E+02 0.  0.
        254    2    1    2    0    0  0.70405376370E+03 -0.28282385712E+03 -0.57209943458E+03  0.13146270392E+04  0.90844122141E+03 0.  0.
         23    2    4    4    0    0  0.84642543274E+03 -0.31644448903E+03 -0.65782889438E+03  0.11213163413E+04  0.89656874641E+02 0.  0.
         23    2    4    4    0    0 -0.14237166904E+03  0.33620631912E+02  0.85729459798E+02  0.19331069788E+03  0.92840974787E+02 0.  0.
          2    1    3    3  502    0 -0.50702046471E+03  0.19745964970E+03  0.22975250801E+03  0.59063210193E+03  0.00000000000E+00 0. -1.
         -1    1    3    3    0  502 -0.19703329899E+03  0.85364207423E+02  0.14508015520E+03  0.25914748745E+03  0.00000000000E+00 0.  1.
         11    1    5    5    0    0  0.16001268885E+03 -0.92973394471E+02 -0.15742316370E+03  0.24296124206E+03  0.00000000000E+00 0.  1.
        -11    1    5    5    0    0  0.68641274389E+03 -0.22347109456E+03 -0.50040573068E+03  0.87835509925E+03  0.00000000000E+00 0. -1.
          2    1    6    6  503    0 -0.14807189054E+03  0.16822379937E+02  0.57014954335E+02  0.15955871099E+03  0.00000000000E+00 0. -1.
         -2    1    6    6    0  503  0.57002214999E+01  0.16798251975E+02  0.28714505463E+02  0.33751986883E+02  0.00000000000E+00 0.  1.
<mgrwt>
<rscale>  0 0.21553983E+04</rscale>
<asrwt>0</asrwt>
<pdfrwt beam="1">  1        2 0.15131845E+00 0.21553983E+04</pdfrwt>
<pdfrwt beam="2">  1       -1 0.18166718E+00 0.21553983E+04</pdfrwt>
<totfact> 0.54678188E+00</totfact>
</mgrwt>
</event>
<event>
12    6  0.1530720E-007  0.2462527E+04  0.7818608E-02  0.8416458E-01
          2   -1    0    0  501    0  0.00000000000E+00  0.00000000000E+00  0.29156452870E+04  0.29156452870E+04  0.00000000000E+00 0. -1.
         -1   -1    0    0    0  501 -0.00000000000E+00 -0.00000000000E+00 -0.51995696433E+03  0.51995696433E+03  0.00000000000E+00 0.  1.
         24    2    1    2    0    0  0.73969933191E+02  0.10765796942E+04  0.85856674093E+03  0.13812609352E+04  0.79053990947E+02 0.  0.
        254    2    1    2    0    0 -0.73969933191E+02 -0.10765796942E+04  0.15371215817E+04  0.20543413161E+04  0.83251432230E+03 0.  0.
         23    2    4    4    0    0  0.30113472282E+03 -0.42096010947E+03  0.30881172036E+03  0.60953332691E+03  0.90976166866E+02 0.  0.
         23    2    4    4    0    0 -0.37510465601E+03 -0.65561958478E+03  0.12283098613E+04  0.14448079891E+04  0.90468044683E+02 0.  0.
          2    1    3    3  502    0  0.44997432564E+02  0.27939298733E+03  0.19550825297E+03  0.34396029900E+03  0.00000000000E+00 0. -1.
         -1    1    3    3    0  502  0.28972500628E+02  0.79718670691E+03  0.66305848796E+03  0.10373006362E+04  0.00000000000E+00 0.  1.
         11    1    5    5    0    0  0.93975480304E+02 -0.20199047954E+03  0.11017536951E+03  0.24853602710E+03  0.00000000000E+00 0.  1.
        -11    1    5    5    0    0  0.20715924251E+03 -0.21896962993E+03  0.19863635085E+03  0.36099729981E+03  0.00000000000E+00 0. -1.
          1    1    6    6  503    0 -0.89175368990E+02 -0.20687884162E+03  0.30544074655E+03  0.37953280648E+03  0.00000000000E+00 0. -1.
         -1    1    6    6    0  503 -0.28592928702E+03 -0.44874074316E+03  0.92286911480E+03  0.10652751827E+04  0.00000000000E+00 0.  1.
<mgrwt>
<rscale>  0 0.24625272E+04</rscale>
<asrwt>0</asrwt>
<pdfrwt beam="1">  1        2 0.44856080E+00 0.24625272E+04</pdfrwt>
<pdfrwt beam="2">  1       -1 0.79993381E-01 0.24625272E+04</pdfrwt>
<totfact> 0.31196808E+00</totfact>
</mgrwt>
</event>
<event>
12    6  0.1530720E-007  0.2151456E+04  0.7818608E-02  0.8538909E-01
          2   -1    0    0  501    0  0.00000000000E+00  0.00000000000E+00  0.14634334088E+04  0.14634334088E+04  0.00000000000E+00 0. -1.
         -1   -1    0    0    0  501 -0.00000000000E+00 -0.00000000000E+00 -0.79073676880E+03  0.79073676880E+03  0.00000000000E+00 0.  1.
         24    2    1    2    0    0 -0.72982465119E+03 -0.50622049285E+03  0.43512486397E+03  0.99226471793E+03  0.79702034727E+02 0.  0.
        254    2    1    2    0    0  0.72982465119E+03  0.50622049285E+03  0.23757177604E+03  0.12619054597E+04  0.86432738676E+03 0.  0.
         23    2    4    4    0    0  0.38034008107E+03 -0.12986940387E+03 -0.14518959671E+03  0.43638421397E+03  0.88467643125E+02 0.  0.
         23    2    4    4    0    0  0.34948457012E+03  0.63608989673E+03  0.38276137275E+03  0.82552124570E+03  0.90715143004E+02 0.  0.
          4    1    3    3  502    0 -0.24391619609E+03 -0.14386195280E+03  0.17321526110E+03  0.33195617008E+03  0.00000000000E+00 0. -1.
         -3    1    3    3    0  502 -0.48590845510E+03 -0.36235854005E+03  0.26190960287E+03  0.66030854785E+03  0.00000000000E+00 0.  1.
         11    1    5    5    0    0  0.16956254377E+03 -0.10127763080E+03 -0.52543754392E+02  0.20437578349E+03  0.00000000000E+00 0.  1.
        -11    1    5    5    0    0  0.21077753729E+03 -0.28591773075E+02 -0.92645842315E+02  0.23200843048E+03  0.00000000000E+00 0. -1.
          2    1    6    6  503    0  0.10827771454E+03  0.26054004830E+03  0.11256428267E+03  0.30376948162E+03  0.00000000000E+00 0.  1.
         -2    1    6    6    0  503  0.24120685558E+03  0.37554984843E+03  0.27019709007E+03  0.52175176408E+03  0.00000000000E+00 0. -1.
<mgrwt>
<rscale>  0 0.21514559E+04</rscale>
<asrwt>0</asrwt>
<pdfrwt beam="1">  1        2 0.22514360E+00 0.21514559E+04</pdfrwt>
<pdfrwt beam="2">  1       -1 0.12165181E+00 0.21514559E+04</pdfrwt>
<totfact> 0.83332891E+00</totfact>
</mgrwt>
</event>
<event>
12    6  0.1530720E-007  0.1878691E+04  0.7818608E-02  0.8665536E-01
          2   -1    0    0  501    0  0.00000000000E+00  0.00000000000E+00  0.13373660751E+04  0.13373660751E+04  0.00000000000E+00 0. -1.
         -1   -1    0    0    0  501 -0.00000000000E+00 -0.00000000000E+00 -0.65978227938E+03  0.65978227938E+03  0.00000000000E+00 0.  1.
         24    2    1    2    0    0  0.15903107035E+03  0.11797355620E+03 -0.47590343907E+03  0.52169916915E+03  0.80481665510E+02 0.  0.
        254    2    1    2    0    0 -0.15903107035E+03 -0.11797355620E+03  0.11534872348E+04  0.14754491853E+04  0.89844802653E+03 0.  0.
         23    2    4    4    0    0  0.27245977925E+03  0.22205188492E+03  0.43928563341E+03  0.56968096268E+03  0.89572097350E+02 0.  0.
         23    2    4    4    0    0 -0.43149084959E+03 -0.34002544113E+03  0.71420160139E+03  0.90576822265E+03  0.92360661795E+02 0.  0.
          4    1    3    3  502    0  0.17254525802E+02  0.26761740602E+02 -0.16487046983E+03  0.16791718567E+03  0.00000000000E+00 0. -1.
         -3    1    3    3    0  502  0.14177654454E+03  0.91211815602E+02 -0.31103296924E+03  0.35378198349E+03  0.00000000000E+00 0.  1.
         11    1    5    5    0    0  0.80874823103E+02  0.77799633576E+02  0.20886930811E+03  0.23710737624E+03  0.00000000000E+00 0. -1.
        -11    1    5    5    0    0  0.19158495614E+03  0.14425225134E+03  0.23041632530E+03  0.33257358645E+03  0.00000000000E+00 0.  1.
          1    1    6    6  503    0 -0.36498229818E+02 -0.68939963429E+02  0.10056671766E+03  0.12727334379E+03  0.00000000000E+00 0. -1.
         -1    1    6    6    0  503 -0.39499261977E+03 -0.27108547770E+03  0.61363488373E+03  0.77849487887E+03  0.00000000000E+00 0.  1.
<mgrwt>
<rscale>  0 0.18786915E+04</rscale>
<asrwt>0</asrwt>
<pdfrwt beam="1">  1        2 0.20574863E+00 0.18786915E+04</pdfrwt>
<pdfrwt beam="2">  1       -1 0.10150497E+00 0.18786915E+04</pdfrwt>
<totfact> 0.15486240E+01</totfact>
</mgrwt>
</event>
<event>
12    6  0.1530720E-007  0.1375686E+04  0.7818608E-02  0.8971608E-01
          2   -1    0    0  501    0  0.00000000000E+00  0.00000000000E+00  0.13669126398E+04  0.13669126398E+04  0.00000000000E+00 0. -1.
         -1   -1    0    0    0  501 -0.00000000000E+00 -0.00000000000E+00 -0.34612910040E+03  0.34612910040E+03  0.00000000000E+00 0.  1.
         24    2    1    2    0    0  0.25210626090E+03 -0.10625675509E+03 -0.46832480026E+02  0.28885314242E+03  0.79967442828E+02 0.  0.
        254    2    1    2    0    0 -0.25210626090E+03  0.10625675509E+03  0.10676160195E+04  0.14241885978E+04  0.90203166925E+03 0.  0.
         23    2    4    4    0    0 -0.13695194065E+02  0.47527591523E+02 -0.14731504356E+03  0.18130778182E+03  0.93404279304E+02 0.  0.
         23    2    4    4    0    0 -0.23841106684E+03  0.58729163565E+02  0.12149310630E+04  0.12428808160E+04  0.91685786290E+02 0.  0.
          2    1    3    3  502    0  0.66886457281E+02 -0.57629710935E+02  0.10615456956E+02  0.88925079007E+02  0.00000000000E+00 0. -1.
         -1    1    3    3    0  502  0.18521980362E+03 -0.48627044154E+02 -0.57447936982E+02  0.19992806341E+03  0.00000000000E+00 0.  1.
         11    1    5    5    0    0 -0.31437162435E+02 -0.19033395978E+02 -0.48440465465E+02  0.60803322597E+02  0.00000000000E+00 0. -1.
        -11    1    5    5    0    0  0.17741968370E+02  0.66560987501E+02 -0.98874578099E+02  0.12050445922E+03  0.00000000000E+00 0.  1.
          3    1    6    6  503    0 -0.12545323919E+03  0.71101833575E+02  0.78802684544E+03  0.80111191171E+03  0.00000000000E+00 0. -1.
         -3    1    6    6    0  503 -0.11295782765E+03 -0.12372670010E+02  0.42690421759E+03  0.44176890428E+03  0.00000000000E+00 0.  1.
<mgrwt>
<rscale>  0 0.13756864E+04</rscale>
<asrwt>0</asrwt>
<pdfrwt beam="1">  1        2 0.21029425E+00 0.13756864E+04</pdfrwt>
<pdfrwt beam="2">  1       -1 0.53250631E-01 0.13756864E+04</pdfrwt>
<totfact> 0.59749515E+01</totfact>
</mgrwt>
</event>
<event>
12    6  0.1567739E-007  0.2854150E+04  0.7818608E-02  0.8286651E-01
         -1   -1    0    0    0  501 -0.00000000000E+00  0.00000000000E+00  0.80577205890E+03  0.80577205890E+03  0.00000000000E+00 0.  1.
          2   -1    0    0  501    0  0.00000000000E+00 -0.00000000000E+00 -0.25274438564E+04  0.25274438564E+04  0.00000000000E+00 0. -1.
         24    2    1    2    0    0  0.45033553242E+03 -0.18545917088E+03  0.56945162893E+03  0.75355752858E+03  0.79853587083E+02 0.  0.
        254    2    1    2    0    0 -0.45033553242E+03  0.18545917088E+03 -0.22911234264E+04  0.25796583867E+04  0.10808300705E+04 0.  0.
         23    2    4    4    0    0  0.30400577852E+03 -0.47698895134E+02 -0.31437737960E+03  0.44904501414E+03  0.90075468051E+02 0.  0.
         23    2    4    4    0    0 -0.75434131094E+03  0.23315806601E+03 -0.19767460468E+04  0.21306133726E+04  0.92708751595E+02 0.  0.
          4    1    3    3  502    0  0.34261134332E+01 -0.14149587157E+02  0.22064461107E+02  0.26434627175E+02  0.00000000000E+00 0. -1.
         -3    1    3    3    0  502  0.44690941898E+03 -0.17130958372E+03  0.54738716782E+03  0.72712290140E+03  0.00000000000E+00 0.  1.
         11    1    5    5    0    0 -0.95658577971E+00  0.21658146890E+01 -0.26850517710E+02  0.26954704801E+02  0.00000000000E+00 0.  1.
        -11    1    5    5    0    0  0.30496236430E+03 -0.49864709823E+02 -0.28752686189E+03  0.42209030934E+03  0.00000000000E+00 0. -1.
          4    1    6    6  503    0 -0.26671940198E+03  0.54292153266E+02 -0.58886054964E+03  0.64872461355E+03  0.00000000000E+00 0. -1.
         -4    1    6    6    0  503 -0.48762190896E+03  0.17886591275E+03 -0.13878854972E+04  0.14818887590E+04  0.00000000000E+00 0.  1.
<mgrwt>
<rscale>  0 0.28541504E+04</rscale>
<asrwt>0</asrwt>
<pdfrwt beam="1">  1        2 0.38883751E+00 0.28541504E+04</pdfrwt>
<pdfrwt beam="2">  1       -1 0.12396494E+00 0.28541504E+04</pdfrwt>
<totfact> 0.18874988E+00</totfact>
</mgrwt>
</event>
<event>
12    6  0.1530720E-007  0.1211420E+04  0.7818608E-02  0.9102919E-01
          2   -1    0    0  501    0  0.00000000000E+00  0.00000000000E+00  0.81475362944E+03  0.81475362944E+03  0.00000000000E+00 0. -1.
         -1   -1    0    0    0  501 -0.00000000000E+00 -0.00000000000E+00 -0.45030143129E+03  0.45030143129E+03  0.00000000000E+00 0.  1.
         24    2    1    2    0    0  0.25941449181E+02 -0.76668012760E+02 -0.17329326647E+03  0.20617816430E+03  0.76993092301E+02 0.  0.
        254    2    1    2    0    0 -0.25941449181E+02  0.76668012760E+02  0.53774546462E+03  0.10588768964E+04  0.90856983998E+03 0.  0.
         23    2    4    4    0    0  0.29315937018E+03  0.97903789063E+02  0.63495723627E+03  0.71240649651E+03  0.93940173203E+02 0.  0.
         23    2    4    4    0    0 -0.31910081936E+03 -0.21235776303E+02 -0.97211771651E+02  0.34647039992E+03  0.91188367476E+02 0.  0.
          4    1    3    3  502    0  0.47470563951E+01  0.42857995348E+01 -0.82329296724E+02  0.82577331764E+02  0.00000000000E+00 0. -1.
         -1    1    3    3    0  502  0.21194392786E+02 -0.80953812295E+02 -0.90963969747E+02  0.12360083253E+03  0.00000000000E+00 0.  1.
         11    1    5    5    0    0  0.29420050261E+03  0.80903669088E+02  0.61174065448E+03  0.68361243973E+03  0.00000000000E+00 0. -1.
        -11    1    5    5    0    0 -0.10411324324E+01  0.17000119975E+02  0.23216581794E+02  0.28794056785E+02  0.00000000000E+00 0.  1.
          1    1    6    6  503    0 -0.31042967282E+03 -0.14675491852E+01 -0.95617427951E+02  0.32482522685E+03  0.00000000000E+00 0. -1.
         -1    1    6    6    0  503 -0.86711465428E+01 -0.19768227118E+02 -0.15943436996E+01  0.21645173078E+02  0.00000000000E+00 0.  1.
<mgrwt>
<rscale>  0 0.12114202E+04</rscale>
<asrwt>0</asrwt>
<pdfrwt beam="1">  1        2 0.12534671E+00 0.12114202E+04</pdfrwt>
<pdfrwt beam="2">  1       -1 0.69277143E-01 0.12114202E+04</pdfrwt>
<totfact> 0.79769495E+01</totfact>
</mgrwt>
</event>
<event>
12    6  0.1530720E-007  0.1283958E+04  0.7818608E-02  0.9042384E-01
         -1   -1    0    0    0  501 -0.00000000000E+00  0.00000000000E+00  0.26189234160E+04  0.26189234160E+04  0.00000000000E+00 0.  1.
          2   -1    0    0  501    0  0.00000000000E+00 -0.00000000000E+00 -0.15736896548E+03  0.15736896548E+03  0.00000000000E+00 0. -1.
         24    2    1    2    0    0  0.16940074537E+02 -0.15459886041E+02 -0.58192317139E+02  0.10439566700E+03  0.83583104232E+02 0.  0.
        254    2    1    2    0    0 -0.16940074537E+02  0.15459886041E+02  0.25197467677E+04  0.26718967145E+04  0.88847189346E+03 0.  0.
         23    2    4    4    0    0 -0.35598106523E+03  0.21274237482E+02  0.20620654667E+04  0.20946947683E+04  0.91962338361E+02 0.  0.
         23    2    4    4    0    0  0.33904099069E+03 -0.58143514404E+01  0.45768130097E+03  0.57720194612E+03  0.93312985664E+02 0.  0.
          2    1    3    3  502    0 -0.25431384142E+02 -0.31511686600E+02 -0.34855665744E+02  0.53429010155E+02  0.00000000000E+00 0. -1.
         -1    1    3    3    0  502  0.42371458679E+02  0.16051800559E+02 -0.23336651395E+02  0.50966656846E+02  0.00000000000E+00 0.  1.
         11    1    5    5    0    0 -0.37216321665E+02 -0.19408059990E+02  0.14781405910E+03  0.15365781287E+03  0.00000000000E+00 0. -1.
        -11    1    5    5    0    0 -0.31876474356E+03  0.40682297472E+02  0.19142514076E+04  0.19410369555E+04  0.00000000000E+00 0.  1.
          2    1    6    6  503    0  0.12568907171E+03 -0.42944555102E+02  0.14261347826E+03  0.19488607375E+03  0.00000000000E+00 0. -1.
         -2    1    6    6    0  503  0.21335191898E+03  0.37130203662E+02  0.31506782272E+03  0.38231587237E+03  0.00000000000E+00 0.  1.
<mgrwt>
<rscale>  0 0.12839584E+04</rscale>
<asrwt>0</asrwt>
<pdfrwt beam="1">  1        2 0.24210612E-01 0.12839584E+04</pdfrwt>
<pdfrwt beam="2">  1       -1 0.40291126E+00 0.12839584E+04</pdfrwt>
<totfact> 0.17739117E+00</totfact>
</mgrwt>
</event>
<event>
12    6  0.1530720E-007  0.2777074E+04  0.7818608E-02  0.8310421E-01
         -3   -1    0    0    0  501 -0.00000000000E+00  0.00000000000E+00  0.12942056793E+04  0.12942056793E+04  0.00000000000E+00 0.  1.
          2   -1    0    0  501    0  0.00000000000E+00 -0.00000000000E+00 -0.14897439911E+04  0.14897439911E+04  0.00000000000E+00 0. -1.
         24    2    1    2    0    0 -0.53948639365E+03  0.82432306726E+03 -0.84972619022E+03  0.13038782520E+04  0.86659157674E+02 0.  0.
        254    2    1    2    0    0  0.53948639365E+03 -0.82432306726E+03  0.65418787833E+03  0.14800714184E+04  0.88999749169E+03 0.  0.
         23    2    4    4    0    0  0.29232801437E+03 -0.76720920053E+03  0.82017070130E+03  0.11640455277E+04  0.90864656889E+02 0.  0.
         23    2    4    4    0    0  0.24715837928E+03 -0.57113866723E+02 -0.16598282298E+03  0.31602589070E+03  0.89290580977E+02 0.  0.
          2    1    3    3  502    0 -0.41964883946E+03  0.67114606021E+03 -0.72065877041E+03  0.10704630988E+04  0.00000000000E+00 0. -1.
         -1    1    3    3    0  502 -0.11983755419E+03  0.15317700705E+03 -0.12906741981E+03  0.23341515319E+03  0.00000000000E+00 0.  1.
         11    1    5    5    0    0 -0.33922245073E+01 -0.46302960479E+02  0.54814400916E+02  0.71833765626E+02  0.00000000000E+00 0. -1.
        -11    1    5    5    0    0  0.29572023888E+03 -0.72090624006E+03  0.76535630039E+03  0.10922117621E+04  0.00000000000E+00 0.  1.
          1    1    6    6  503    0  0.48577726877E+02 -0.49455428573E+02 -0.54362199146E+02  0.88095877656E+02  0.00000000000E+00 0. -1.
         -1    1    6    6    0  503  0.19858065240E+03 -0.76584381496E+01 -0.11162062383E+03  0.22793001305E+03  0.00000000000E+00 0.  1.
<mgrwt>
<rscale>  0 0.27770741E+04</rscale>
<asrwt>0</asrwt>
<pdfrwt beam="1">  1        2 0.22919138E+00 0.27770741E+04</pdfrwt>
<pdfrwt beam="2">  1       -3 0.19910857E+00 0.27770741E+04</pdfrwt>
<totfact> 0.10504510E+00</totfact>
</mgrwt>
</event>
<event>
12    6  0.1530720E-007  0.1545807E+04  0.7818608E-02  0.8854550E-01
         -1   -1    0    0    0  501 -0.00000000000E+00  0.00000000000E+00  0.45584423917E+03  0.45584423917E+03  0.00000000000E+00 0.  1.
          2   -1    0    0  501    0  0.00000000000E+00 -0.00000000000E+00 -0.13104916856E+04  0.13104916856E+04  0.00000000000E+00 0. -1.
         24    2    1    2    0    0  0.37673937863E+03  0.26800369012E+03 -0.42510451418E+03  0.63317511012E+03  0.80239234605E+02 0.  0.
        254    2    1    2    0    0 -0.37673937863E+03 -0.26800369012E+03 -0.42954293225E+03  0.11331608146E+04  0.94116298475E+03 0.  0.
         23    2    4    4    0    0 -0.56293264396E+03 -0.40779620247E+03 -0.83312910163E+02  0.70605201158E+03  0.91528671292E+02 0.  0.
         23    2    4    4    0    0  0.18619326532E+03  0.13979251235E+03 -0.34623002209E+03  0.42710880306E+03  0.91306204044E+02 0.  0.
          2    1    3    3  502    0  0.20940702314E+03  0.11851981476E+03 -0.26234311936E+03  0.35598056141E+03  0.00000000000E+00 0. -1.
         -1    1    3    3    0  502  0.16733235550E+03  0.14948387536E+03 -0.16276139482E+03  0.27719454871E+03  0.00000000000E+00 0.  1.
         11    1    5    5    0    0 -0.48082773517E+01 -0.16355335104E+02  0.69152451978E+01  0.18396660936E+02  0.00000000000E+00 0. -1.
        -11    1    5    5    0    0 -0.55812436661E+03 -0.39144086737E+03 -0.90228155360E+02  0.68765535064E+03  0.00000000000E+00 0.  1.
          1    1    6    6  503    0 -0.31975457873E+01 -0.79783831223E+01 -0.54688699150E+01  0.10187611813E+02  0.00000000000E+00 0. -1.
         -1    1    6    6    0  503  0.18939081111E+03  0.14777089548E+03 -0.34076115217E+03  0.41692119125E+03  0.00000000000E+00 0.  1.
<mgrwt>
<rscale>  0 0.15458073E+04</rscale>
<asrwt>0</asrwt>
<pdfrwt beam="1">  1        2 0.20161410E+00 0.15458073E+04</pdfrwt>
<pdfrwt beam="2">  1       -1 0.70129885E-01 0.15458073E+04</pdfrwt>
<totfact> 0.36774878E+01</totfact>
</mgrwt>
</event>
<event>
12    6  0.1530720E-007  0.3105622E+04  0.7818608E-02  0.8214197E-01
          2   -1    0    0  501    0  0.00000000000E+00  0.00000000000E+00  0.27440693280E+04  0.27440693280E+04  0.00000000000E+00 0. -1.
         -1   -1    0    0    0  501 -0.00000000000E+00 -0.00000000000E+00 -0.87870286416E+03  0.87870286416E+03  0.00000000000E+00 0.  1.
         24    2    1    2    0    0  0.13938509641E+04 -0.27854975110E+03  0.89387296369E+03  0.16805153131E+04  0.68646692148E+02 0.  0.
        254    2    1    2    0    0 -0.13938509641E+04  0.27854975110E+03  0.97149350015E+03  0.19422568791E+04  0.89897257442E+03 0.  0.
         23    2    4    4    0    0 -0.94630278911E+03  0.54519249543E+03  0.40941220518E+03  0.11698116548E+04  0.90095106495E+02 0.  0.
         23    2    4    4    0    0 -0.44754817499E+03 -0.26664274433E+03  0.56208129497E+03  0.77244522428E+03  0.96636019754E+02 0.  0.
          2    1    3    3  502    0  0.83526245892E+02 -0.33558195466E+02  0.54300218306E+02  0.10512516323E+03  0.00000000000E+00 0. -1.
         -1    1    3    3    0  502  0.13103247182E+04 -0.24499155563E+03  0.83957274538E+03  0.15753901499E+04  0.00000000000E+00 0.  1.
         11    1    5    5    0    0 -0.65230638557E+03  0.35906189399E+03  0.23651634744E+03  0.78126118999E+03  0.00000000000E+00 0. -1.
        -11    1    5    5    0    0 -0.29399640354E+03  0.18613060144E+03  0.17289585774E+03  0.38855046482E+03  0.00000000000E+00 0.  1.
          4    1    6    6  503    0 -0.31256619262E+03 -0.13234187629E+03  0.35860167816E+03  0.49376832682E+03  0.00000000000E+00 0. -1.
         -4    1    6    6    0  503 -0.13498198237E+03 -0.13430086804E+03  0.20347961681E+03  0.27867689746E+03  0.00000000000E+00 0.  1.
<mgrwt>
<rscale>  0 0.31056217E+04</rscale>
<asrwt>0</asrwt>
<pdfrwt beam="1">  1        2 0.42216451E+00 0.31056217E+04</pdfrwt>
<pdfrwt beam="2">  1       -1 0.13518506E+00 0.31056217E+04</pdfrwt>
<totfact> 0.11056539E+00</totfact>
</mgrwt>
</event>
<event>
12    6  0.1530720E-007  0.1169987E+04  0.7818608E-02  0.9139541E-01
         -1   -1    0    0    0  501 -0.00000000000E+00  0.00000000000E+00  0.12325812051E+04  0.12325812051E+04  0.00000000000E+00 0.  1.
          2   -1    0    0  501    0  0.00000000000E+00 -0.00000000000E+00 -0.27764265560E+03  0.27764265560E+03  0.00000000000E+00 0. -1.
         24    2    1    2    0    0  0.10240984568E+03 -0.14162316916E+03  0.30207669245E+01  0.19248687773E+03  0.80605052771E+02 0.  0.
        254    2    1    2    0    0 -0.10240984568E+03  0.14162316916E+03  0.95191778256E+03  0.13177369829E+04  0.89428093624E+03 0.  0.
         23    2    4    4    0    0 -0.37065264545E+03 -0.17898423507E+03  0.71084970606E+03  0.82657968191E+03  0.92238419137E+02 0.  0.
         23    2    4    4    0    0  0.26824279977E+03  0.32060740422E+03  0.24106807650E+03  0.49115730103E+03  0.91533434187E+02 0.  0.
          4    1    3    3  502    0  0.81257165448E+02 -0.14064145237E+03 -0.17038466144E+02  0.16331887334E+03  0.00000000000E+00 0. -1.
         -3    1    3    3    0  502  0.21152680237E+02 -0.98171678861E+00  0.20059233068E+02  0.29168004394E+02  0.00000000000E+00 0.  1.
         11    1    5    5    0    0 -0.69443684908E+02  0.10174575011E+01  0.14475540616E+03  0.16055400402E+03  0.00000000000E+00 0.  1.
        -11    1    5    5    0    0 -0.30120896055E+03 -0.18000169257E+03  0.56609429990E+03  0.66602567790E+03  0.00000000000E+00 0. -1.
          1    1    6    6  503    0  0.14524079767E+03  0.23377716886E+03  0.17895723893E+03  0.32828698931E+03  0.00000000000E+00 0. -1.
         -1    1    6    6    0  503  0.12300200210E+03  0.86830235363E+02  0.62110837574E+02  0.16287031171E+03  0.00000000000E+00 0.  1.
<mgrwt>
<rscale>  0 0.11699865E+04</rscale>
<asrwt>0</asrwt>
<pdfrwt beam="1">  1        2 0.42714255E-01 0.11699865E+04</pdfrwt>
<pdfrwt beam="2">  1       -1 0.18962788E+00 0.11699865E+04</pdfrwt>
<totfact> 0.24118438E+01</totfact>
</mgrwt>
</event>
<event>
12    6  0.1530720E-007  0.1989038E+04  0.7818608E-02  0.8611763E-01
          2   -1    0    0  501    0  0.00000000000E+00  0.00000000000E+00  0.17921660802E+04  0.17921660802E+04  0.00000000000E+00 0. -1.
         -1   -1    0    0    0  501 -0.00000000000E+00 -0.00000000000E+00 -0.55188399652E+03  0.55188399652E+03  0.00000000000E+00 0.  1.
         24    2    1    2    0    0  0.47778386611E+03  0.57200013600E+03  0.20105067188E+03  0.77790980895E+03  0.96232634234E+02 0.  0.
        254    2    1    2    0    0 -0.47778386611E+03 -0.57200013600E+03  0.10392314118E+04  0.15661402678E+04  0.90406406451E+03 0.  0.
         23    2    4    4    0    0 -0.15226793925E+01 -0.46641563678E+03  0.74205265299E+02  0.48113302652E+03  0.91851527056E+02 0.  0.
         23    2    4    4    0    0 -0.47626118672E+03 -0.10558449922E+03  0.96502614649E+03  0.10850072412E+04  0.89400479228E+02 0.  0.
          4    1    3    3  502    0  0.36000562899E+03  0.42452479141E+03  0.19255399812E+03  0.58898420490E+03  0.00000000000E+00 0. -1.
         -3    1    3    3    0  502  0.11777823712E+03  0.14747534459E+03  0.84966737684E+01  0.18892560405E+03  0.00000000000E+00 0.  1.
         11    1    5    5    0    0 -0.42605141026E+02 -0.23505478158E+03  0.18239074294E+02  0.23958007475E+03  0.00000000000E+00 0. -1.
        -11    1    5    5    0    0  0.41082461633E+02 -0.23136085519E+03  0.55966191004E+02  0.24155295176E+03  0.00000000000E+00 0.  1.
          1    1    6    6  503    0 -0.19801366138E+03 -0.22421866446E+01  0.42206092131E+03  0.46620795659E+03  0.00000000000E+00 0. -1.
         -1    1    6    6    0  503 -0.27824752534E+03 -0.10334231258E+03  0.54296522519E+03  0.61879928465E+03  0.00000000000E+00 0.  1.
<mgrwt>
<rscale>  0 0.19890377E+04</rscale>
<asrwt>0</asrwt>
<pdfrwt beam="1">  1        2 0.27571786E+00 0.19890377E+04</pdfrwt>
<pdfrwt beam="2">  1       -1 0.84905231E-01 0.19890377E+04</pdfrwt>
<totfact> 0.12666090E+01</totfact>
</mgrwt>
</event>
<event>
12    6  0.1530720E-007  0.1733661E+04  0.7818608E-02  0.8742396E-01
          2   -1    0    0  501    0  0.00000000000E+00  0.00000000000E+00  0.19449552485E+04  0.19449552485E+04  0.00000000000E+00 0. -1.
         -1   -1    0    0    0  501 -0.00000000000E+00 -0.00000000000E+00 -0.38633016919E+03  0.38633016919E+03  0.00000000000E+00 0.  1.
         24    2    1    2    0    0 -0.15072746010E+03  0.48075720919E+03  0.10667067227E+04  0.11824909328E+04  0.81088301371E+02 0.  0.
        254    2    1    2    0    0  0.15072746010E+03 -0.48075720919E+03  0.49191835659E+03  0.11487944848E+04  0.90768873376E+03 0.  0.
         23    2    4    4    0    0  0.27280309159E+03 -0.41261698351E+03 -0.11836639159E+03  0.51614621435E+03  0.87874968421E+02 0.  0.
         23    2    4    4    0    0 -0.12207563149E+03 -0.68140225679E+02  0.61028474818E+03  0.63264827046E+03  0.90833969995E+02 0.  0.
          2    1    3    3  502    0 -0.11445581452E+03  0.29459267980E+03  0.74102181679E+03  0.80560431567E+03  0.00000000000E+00 0. -1.
         -1    1    3    3    0  502 -0.36271645578E+02  0.18616452939E+03  0.32568490590E+03  0.37688661718E+03  0.00000000000E+00 0.  1.
         11    1    5    5    0    0  0.21392198805E+03 -0.35714761695E+03 -0.12581586765E+03  0.43490995599E+03  0.00000000000E+00 0. -1.
        -11    1    5    5    0    0  0.58881103535E+02 -0.55469366558E+02  0.74494760575E+01  0.81236258366E+02  0.00000000000E+00 0.  1.
          4    1    6    6  503    0 -0.29102646982E+02  0.91445082905E+01  0.43613252749E+02  0.53223133209E+02  0.00000000000E+00 0.  1.
         -4    1    6    6    0  503 -0.92972984507E+02 -0.77284733969E+02  0.56667149543E+03  0.57942513725E+03  0.00000000000E+00 0. -1.
<mgrwt>
<rscale>  0 0.17336607E+04</rscale>
<asrwt>0</asrwt>
<pdfrwt beam="1">  1        2 0.29922388E+00 0.17336607E+04</pdfrwt>
<pdfrwt beam="2">  1       -1 0.59435412E-01 0.17336607E+04</pdfrwt>
<totfact> 0.22238870E+01</totfact>
</mgrwt>
</event>
<event>
12    6  0.1530720E-007  0.1246232E+04  0.7818608E-02  0.9073325E-01
         -1   -1    0    0    0  501 -0.00000000000E+00  0.00000000000E+00  0.16080563762E+03  0.16080563762E+03  0.00000000000E+00 0.  1.
          2   -1    0    0  501    0  0.00000000000E+00 -0.00000000000E+00 -0.24145515600E+04  0.24145515600E+04  0.00000000000E+00 0. -1.
         24    2    1    2    0    0  0.40152777334E+02  0.28030645111E+03 -0.19436592597E+03  0.35137314858E+03  0.74168890413E+02 0.  0.
        254    2    1    2    0    0 -0.40152777334E+02 -0.28030645111E+03 -0.20593799965E+04  0.22239840491E+04  0.79049043558E+03 0.  0.
         23    2    4    4    0    0  0.10338510198E+03 -0.52100783292E+03 -0.12144786418E+04  0.13285049516E+04  0.88483862179E+02 0.  0.
         23    2    4    4    0    0 -0.14353787932E+03  0.24070138181E+03 -0.84490135466E+03  0.89547909746E+03  0.97387046729E+02 0.  0.
          4    1    3    3  502    0  0.32966606078E+02  0.38943243492E+02 -0.28755605443E+02  0.58568405940E+02  0.00000000000E+00 0. -1.
         -3    1    3    3    0  502  0.71861712569E+01  0.24136320762E+03 -0.16561032053E+03  0.29280474264E+03  0.00000000000E+00 0.  1.
         11    1    5    5    0    0  0.49397518809E+02 -0.95893316942E+02 -0.29399178358E+03  0.31315621008E+03  0.00000000000E+00 0.  1.
        -11    1    5    5    0    0  0.53987583176E+02 -0.42511451597E+03 -0.92048685821E+03  0.10153487415E+04  0.00000000000E+00 0. -1.
          3    1    6    6  503    0 -0.93977963745E+02  0.22373657886E+03 -0.72790833017E+03  0.76729424051E+03  0.00000000000E+00 0. -1.
         -3    1    6    6    0  503 -0.49559915573E+02  0.16964802945E+02 -0.11699302449E+03  0.12818485695E+03  0.00000000000E+00 0.  1.
<mgrwt>
<rscale>  0 0.12462319E+04</rscale>
<asrwt>0</asrwt>
<pdfrwt beam="1">  1        2 0.37146945E+00 0.12462319E+04</pdfrwt>
<pdfrwt beam="2">  1       -1 0.24739330E-01 0.12462319E+04</pdfrwt>
<totfact> 0.62605061E+01</totfact>
</mgrwt>
</event>
<event>
12    6  0.1530720E-007  0.2262580E+04  0.7818608E-02  0.8492823E-01
          2   -1    0    0  501    0  0.00000000000E+00  0.00000000000E+00  0.16759015003E+04  0.16759015003E+04  0.00000000000E+00 0. -1.
         -1   -1    0    0    0  501 -0.00000000000E+00 -0.00000000000E+00 -0.76365859393E+03  0.76365859393E+03  0.00000000000E+00 0.  1.
         24    2    1    2    0    0  0.15359675353E+02  0.23142477123E+02 -0.64195773853E+03  0.64705901387E+03  0.76184877127E+02 0.  0.
        254    2    1    2    0    0 -0.15359675353E+02 -0.23142477123E+02  0.15542006449E+04  0.17925010804E+04  0.89260796804E+03 0.  0.
         23    2    4    4    0    0  0.33028491860E+03 -0.26639910281E+03  0.56241452076E+03  0.71044308118E+03  0.91447629844E+02 0.  0.
         23    2    4    4    0    0 -0.34564459396E+03  0.24325662569E+03  0.99178612413E+03  0.10820579992E+04  0.92551749198E+02 0.  0.
          2    1    3    3  502    0 -0.26821417153E+02  0.21573161005E+01 -0.37592416004E+03  0.37688594632E+03  0.00000000000E+00 0. -1.
         -1    1    3    3    0  502  0.42181092505E+02  0.20985161022E+02 -0.26603357849E+03  0.27017306756E+03  0.00000000000E+00 0.  1.
         11    1    5    5    0    0  0.24409451490E+03 -0.21519743677E+03  0.36475265364E+03  0.48881138217E+03  0.00000000000E+00 0. -1.
        -11    1    5    5    0    0  0.86190403698E+02 -0.51201666039E+02  0.19766186712E+03  0.22163169902E+03  0.00000000000E+00 0.  1.
          2    1    6    6  503    0 -0.27919359311E+03  0.22632689979E+03  0.88446477949E+03  0.95469936324E+03  0.00000000000E+00 0. -1.
         -2    1    6    6    0  503 -0.66451000842E+02  0.16929725899E+02  0.10732134464E+03  0.12735863594E+03  0.00000000000E+00 0.  1.
<mgrwt>
<rscale>  0 0.22625796E+04</rscale>
<asrwt>0</asrwt>
<pdfrwt beam="1">  1        2 0.25783100E+00 0.22625796E+04</pdfrwt>
<pdfrwt beam="2">  1       -1 0.11748594E+00 0.22625796E+04</pdfrwt>
<totfact> 0.68283049E+00</totfact>
</mgrwt>
</event>
<event>
12    6  0.1530720E-007  0.1200129E+04  0.7818608E-02  0.9112744E-01
          2   -1    0    0  501    0  0.00000000000E+00  0.00000000000E+00  0.24061397409E+04  0.24061397409E+04  0.00000000000E+00 0. -1.
         -1   -1    0    0    0  501 -0.00000000000E+00 -0.00000000000E+00 -0.14964942587E+03  0.14964942587E+03  0.00000000000E+00 0.  1.
         24    2    1    2    0    0  0.12932287942E+03 -0.21778793936E+03  0.52699059174E+03  0.58983789222E+03  0.77676647950E+02 0.  0.
        254    2    1    2    0    0 -0.12932287942E+03  0.21778793936E+03  0.17294997233E+04  0.19659512746E+04  0.89979949286E+03 0.  0.
         23    2    4    4    0    0  0.13817565312E+03 -0.29742947239E+03  0.75368292628E+03  0.82687346574E+03  0.90138631089E+02 0.  0.
         23    2    4    4    0    0 -0.26749853254E+03  0.51521741176E+03  0.97581679701E+03  0.11390778088E+04  0.90969153563E+02 0.  0.
          2    1    3    3  502    0  0.61252845663E+02 -0.16447301480E+03  0.39247674740E+03  0.42993171661E+03  0.00000000000E+00 0. -1.
         -1    1    3    3    0  502  0.68070033758E+02 -0.53314924568E+02  0.13451384434E+03  0.15990617560E+03  0.00000000000E+00 0.  1.
         11    1    5    5    0    0  0.13254354013E+03 -0.30386495573E+03  0.73230507571E+03  0.80384850890E+03  0.00000000000E+00 0. -1.
        -11    1    5    5    0    0  0.56321129972E+01  0.64354833336E+01  0.21377850568E+02  0.23024956839E+02  0.00000000000E+00 0.  1.
          1    1    6    6  503    0 -0.17210529688E+03  0.39111217557E+03  0.65413388573E+03  0.78133226450E+03  0.00000000000E+00 0. -1.
         -1    1    6    6    0  503 -0.95393235665E+02  0.12410523618E+03  0.32168291129E+03  0.35774554431E+03  0.00000000000E+00 0.  1.
<mgrwt>
<rscale>  0 0.12001290E+04</rscale>
<asrwt>0</asrwt>
<pdfrwt beam="1">  1        2 0.37017532E+00 0.12001290E+04</pdfrwt>
<pdfrwt beam="2">  1       -1 0.23022990E-01 0.12001290E+04</pdfrwt>
<totfact> 0.71846141E+01</totfact>
</mgrwt>
</event>
<event>
12    6  0.1530720E-007  0.1372260E+04  0.7818608E-02  0.8974147E-01
         -1   -1    0    0    0  501 -0.00000000000E+00  0.00000000000E+00  0.54124622290E+03  0.54124622290E+03  0.00000000000E+00 0.  1.
          2   -1    0    0  501    0  0.00000000000E+00 -0.00000000000E+00 -0.86979700694E+03  0.86979700694E+03  0.00000000000E+00 0. -1.
         24    2    1    2    0    0 -0.18921674361E+03 -0.19654128140E+03  0.18342051014E+03  0.33759211317E+03  0.76771739447E+02 0.  0.
        254    2    1    2    0    0  0.18921674361E+03  0.19654128140E+03 -0.51197129418E+03  0.10734511167E+04  0.90318948315E+03 0.  0.
         23    2    4    4    0    0 -0.68223566076E+02 -0.32888643085E+03 -0.22836280733E+03  0.41658117713E+03  0.92571950392E+02 0.  0.
         23    2    4    4    0    0  0.25744030968E+03  0.52542771225E+03 -0.28360848686E+03  0.65686993955E+03  0.93244569898E+02 0.  0.
          4    1    3    3  502    0 -0.11811283332E+03 -0.10385749199E+03  0.61879894627E+02  0.16901521055E+03  0.00000000000E+00 0. -1.
         -3    1    3    3    0  502 -0.71103910283E+02 -0.92683789414E+02  0.12154061552E+03  0.16857690262E+03  0.00000000000E+00 0.  1.
         11    1    5    5    0    0 -0.74986403072E+02 -0.29675401264E+03 -0.17132821203E+03  0.35076952675E+03  0.00000000000E+00 0.  1.
        -11    1    5    5    0    0  0.67628369956E+01 -0.32132418219E+02 -0.57034595291E+02  0.65811650373E+02  0.00000000000E+00 0. -1.
          2    1    6    6  503    0  0.52623715374E+02  0.50410541987E+02 -0.16633383838E+02  0.74747224839E+02  0.00000000000E+00 0. -1.
         -2    1    6    6    0  503  0.20481659431E+03  0.47501717027E+03 -0.26697510302E+03  0.58212271471E+03  0.00000000000E+00 0.  1.
<mgrwt>
<rscale>  0 0.13722600E+04</rscale>
<asrwt>0</asrwt>
<pdfrwt beam="1">  1        2 0.13381492E+00 0.13722600E+04</pdfrwt>
<pdfrwt beam="2">  1       -1 0.83268650E-01 0.13722600E+04</pdfrwt>
<totfact> 0.49015151E+01</totfact>
</mgrwt>
</event>
<event>
12    6  0.1530720E-007  0.1643086E+04  0.7818608E-02  0.8794507E-01
         -1   -1    0    0    0  501 -0.00000000000E+00  0.00000000000E+00  0.39577132030E+03  0.39577132030E+03  0.00000000000E+00 0.  1.
          2   -1    0    0  501    0  0.00000000000E+00 -0.00000000000E+00 -0.17053617837E+04  0.17053617837E+04  0.00000000000E+00 0. -1.
         24    2    1    2    0    0 -0.14861182320E+03 -0.54114534742E+03 -0.44386848588E+03  0.71993350361E+03  0.79757481345E+02 0.  0.
        254    2    1    2    0    0  0.14861182320E+03  0.54114534742E+03 -0.86572197754E+03  0.13811996004E+04  0.91832131236E+03 0.  0.
         23    2    4    4    0    0 -0.21271025822E+03 -0.14638408820E+03 -0.34884809980E+03  0.44364951777E+03  0.91956199624E+02 0.  0.
         23    2    4    4    0    0  0.36132208143E+03  0.68752943562E+03 -0.51687387774E+03  0.93755008264E+03  0.92688621650E+02 0.  0.
          4    1    3    3  502    0 -0.82151399646E+01 -0.51599633897E+01 -0.20331834746E+02  0.22527699638E+02  0.00000000000E+00 0. -1.
         -3    1    3    3    0  502 -0.14039668324E+03 -0.53598538403E+03 -0.42353665113E+03  0.69740580397E+03  0.00000000000E+00 0.  1.
         11    1    5    5    0    0 -0.14391130175E+03 -0.10480838507E+03 -0.16390516153E+03  0.24199207079E+03  0.00000000000E+00 0. -1.
        -11    1    5    5    0    0 -0.68798956476E+02 -0.41575703131E+02 -0.18494293828E+03  0.20165744698E+03  0.00000000000E+00 0.  1.
          3    1    6    6  503    0  0.14718643537E+03  0.30878061924E+03 -0.28067889024E+03  0.44248158945E+03  0.00000000000E+00 0. -1.
         -3    1    6    6    0  503  0.21413564606E+03  0.37874881639E+03 -0.23619498750E+03  0.49506849319E+03  0.00000000000E+00 0.  1.
<mgrwt>
<rscale>  0 0.16430865E+04</rscale>
<asrwt>0</asrwt>
<pdfrwt beam="1">  1        2 0.26236335E+00 0.16430865E+04</pdfrwt>
<pdfrwt beam="2">  1       -1 0.60887896E-01 0.16430865E+04</pdfrwt>
<totfact> 0.29008429E+01</totfact>
</mgrwt>
</event>
<event>
12    6  0.1530720E-007  0.1741337E+04  0.7818608E-02  0.8738133E-01
         -1   -1    0    0    0  501 -0.00000000000E+00  0.00000000000E+00  0.24868184683E+03  0.24868184683E+03  0.00000000000E+00 0.  1.
          2   -1    0    0  501    0  0.00000000000E+00 -0.00000000000E+00 -0.30483287555E+04  0.30483287555E+04  0.00000000000E+00 0. -1.
         24    2    1    2    0    0 -0.59637851621E+02  0.47768606721E+03 -0.24802358353E+03  0.54727173266E+03  0.79056936647E+02 0.  0.
        254    2    1    2    0    0  0.59637851621E+02 -0.47768606721E+03 -0.25516233252E+04  0.27497388697E+04  0.90473289198E+03 0.  0.
         23    2    4    4    0    0 -0.36895074557E+03 -0.12749095454E+03 -0.62858802515E+03  0.74658134581E+03  0.99409277222E+02 0.  0.
         23    2    4    4    0    0  0.42858859719E+03 -0.35019511267E+03 -0.19230353000E+04  0.20031575239E+04  0.90832251002E+02 0.  0.
          4    1    3    3  502    0 -0.11219343224E+02  0.21313606235E+03 -0.69471258247E+02  0.22445291368E+03  0.00000000000E+00 0. -1.
         -3    1    3    3    0  502 -0.48418508397E+02  0.26455000486E+03 -0.17855232528E+03  0.32281881899E+03  0.00000000000E+00 0.  1.
         11    1    5    5    0    0 -0.25961705341E+03 -0.12230363896E+03 -0.51000027131E+03  0.58520036847E+03  0.00000000000E+00 0.  1.
        -11    1    5    5    0    0 -0.10933369216E+03 -0.51873155787E+01 -0.11858775384E+03  0.16138097733E+03  0.00000000000E+00 0. -1.
          2    1    6    6  503    0  0.24289860509E+03 -0.14648527438E+03 -0.90014719463E+03  0.94378103391E+03  0.00000000000E+00 0.  1.
         -2    1    6    6    0  503  0.18568999210E+03 -0.20370983829E+03 -0.10228881054E+04  0.10593764900E+04  0.00000000000E+00 0. -1.
<mgrwt>
<rscale>  0 0.17413374E+04</rscale>
<asrwt>0</asrwt>
<pdfrwt beam="1">  1        2 0.46897366E+00 0.17413374E+04</pdfrwt>
<pdfrwt beam="2">  1       -1 0.38258745E-01 0.17413374E+04</pdfrwt>
<totfact> 0.11636408E+01</totfact>
</mgrwt>
</event>
<event>
12    6  0.1530720E-007  0.1661657E+04  0.7818608E-02  0.8783540E-01
         -1   -1    0    0    0  501 -0.00000000000E+00  0.00000000000E+00  0.37123120833E+03  0.37123120833E+03  0.00000000000E+00 0.  1.
          2   -1    0    0  501    0  0.00000000000E+00 -0.00000000000E+00 -0.18594242918E+04  0.18594242918E+04  0.00000000000E+00 0. -1.
         24    2    1    2    0    0 -0.58832748434E+03 -0.16681774654E+03 -0.47271910353E+03  0.77694821482E+03  0.78916337195E+02 0.  0.
        254    2    1    2    0    0  0.58832748434E+03  0.16681774654E+03 -0.10154739800E+04  0.14537072853E+04  0.84149870948E+03 0.  0.
         23    2    4    4    0    0  0.31373438842E+03  0.26316254744E+02 -0.10781995588E+04  0.11276648495E+04  0.99959554390E+02 0.  0.
         23    2    4    4    0    0  0.27459309592E+03  0.14050149179E+03  0.62725578818E+02  0.32604243583E+03  0.85012553194E+02 0.  0.
          2    1    3    3  502    0 -0.21535973144E+03 -0.48313042212E+02 -0.12622820476E+03  0.25425877300E+03  0.00000000000E+00 0. -1.
         -1    1    3    3    0  502 -0.37296775290E+03 -0.11850470432E+03 -0.34649089877E+03  0.52268944181E+03  0.00000000000E+00 0.  1.
         11    1    5    5    0    0  0.27835877787E+03  0.39171829351E+02 -0.10225324144E+04  0.10604671518E+04  0.00000000000E+00 0.  1.
        -11    1    5    5    0    0  0.35375610560E+02 -0.12855574607E+02 -0.55667144373E+02  0.67197697755E+02  0.00000000000E+00 0. -1.
          4    1    6    6  503    0  0.42750593794E+02 -0.66306744035E+00  0.30884218763E+02  0.52743605269E+02  0.00000000000E+00 0. -1.
         -4    1    6    6    0  503  0.23184250212E+03  0.14116455923E+03  0.31841360055E+02  0.27329883056E+03  0.00000000000E+00 0.  1.
<mgrwt>
<rscale>  0 0.16616574E+04</rscale>
<asrwt>0</asrwt>
<pdfrwt beam="1">  1        2 0.28606528E+00 0.16616574E+04</pdfrwt>
<pdfrwt beam="2">  1       -1 0.57112492E-01 0.16616574E+04</pdfrwt>
<totfact> 0.26989113E+01</totfact>
</mgrwt>
</event>
<event>
12    6  0.1530720E-007  0.1207472E+04  0.7818608E-02  0.9106342E-01
          2   -1    0    0  501    0  0.00000000000E+00  0.00000000000E+00  0.23569334094E+04  0.23569334094E+04  0.00000000000E+00 0. -1.
         -1   -1    0    0    0  501 -0.00000000000E+00 -0.00000000000E+00 -0.15464882584E+03  0.15464882584E+03  0.00000000000E+00 0.  1.
         24    2    1    2    0    0  0.19453680976E+03  0.10906541817E+03  0.48084390295E+03  0.53626600191E+03  0.81428066477E+02 0.  0.
        254    2    1    2    0    0 -0.19453680976E+03 -0.10906541817E+03  0.17214406806E+04  0.19753162333E+04  0.94274936703E+03 0.  0.
         23    2    4    4    0    0 -0.87868153827E+01 -0.39517052117E+02  0.17518902748E+04  0.17548138531E+04  0.92807966301E+02 0.  0.
         23    2    4    4    0    0 -0.18574999438E+03 -0.69548366049E+02 -0.30449594197E+02  0.22050238022E+03  0.91400690705E+02 0.  0.
          2    1    3    3  502    0  0.12545833453E+03  0.11112166603E+03  0.35884903084E+03  0.39605611383E+03  0.00000000000E+00 0. -1.
         -1    1    3    3    0  502  0.69078475234E+02 -0.20562478660E+01  0.12199487211E+03  0.14020988809E+03  0.00000000000E+00 0.  1.
         11    1    5    5    0    0  0.35861436738E+02  0.57948200422E+01  0.50731609051E+03  0.50861501971E+03  0.00000000000E+00 0.  1.
        -11    1    5    5    0    0 -0.44648252121E+02 -0.45311872159E+02  0.12445741843E+04  0.12461988334E+04  0.00000000000E+00 0. -1.
          2    1    6    6  503    0 -0.18482707836E+03 -0.74872703315E+02 -0.10345533586E+02  0.19968475321E+03  0.00000000000E+00 0. -1.
         -2    1    6    6    0  503 -0.92291601888E+00  0.53243372658E+01 -0.20104060611E+02  0.20817627010E+02  0.00000000000E+00 0.  1.
<mgrwt>
<rscale>  0 0.12074717E+04</rscale>
<asrwt>0</asrwt>
<pdfrwt beam="1">  1        2 0.36260511E+00 0.12074717E+04</pdfrwt>
<pdfrwt beam="2">  1       -1 0.23792129E-01 0.12074717E+04</pdfrwt>
<totfact> 0.72397768E+01</totfact>
</mgrwt>
</event>
<event>
12    6  0.1530720E-007  0.4208717E+04  0.7818608E-02  0.7963716E-01
          2   -1    0    0  501    0  0.00000000000E+00  0.00000000000E+00  0.25212972952E+04  0.25212972952E+04  0.00000000000E+00 0. -1.
         -1   -1    0    0    0  501 -0.00000000000E+00 -0.00000000000E+00 -0.17563674814E+04  0.17563674814E+04  0.00000000000E+00 0.  1.
         24    2    1    2    0    0  0.16663501182E+04 -0.98164862264E+03 -0.17716401977E+03  0.19437418576E+04  0.79928621365E+02 0.  0.
        254    2    1    2    0    0 -0.16663501182E+04  0.98164862264E+03  0.94209383350E+03  0.23339229190E+04  0.90515118400E+03 0.  0.
         23    2    4    4    0    0 -0.14762247860E+04  0.50711782794E+03  0.47554115237E+03  0.16342219563E+04  0.90188162698E+02 0.  0.
         23    2    4    4    0    0 -0.19012533223E+03  0.47453079470E+03  0.46655268113E+03  0.69970096270E+03  0.10287330001E+03 0.  0.
          2    1    3    3  502    0  0.53252196450E+03 -0.35501149638E+03 -0.46399573990E+02  0.64168974256E+03  0.00000000000E+00 0. -1.
         -1    1    3    3    0  502  0.11338281537E+04 -0.62663712626E+03 -0.13076444578E+03  0.13020521151E+04  0.00000000000E+00 0.  1.
         11    1    5    5    0    0 -0.50454180628E+02  0.37503691666E+01  0.25453078372E+02  0.56635225878E+02  0.00000000000E+00 0. -1.
        -11    1    5    5    0    0 -0.14257706053E+04  0.50336745877E+03  0.45008807400E+03  0.15775867304E+04  0.00000000000E+00 0.  1.
          4    1    6    6  503    0 -0.70073817062E+02  0.30579779447E+03  0.26391592356E+03  0.40996859105E+03  0.00000000000E+00 0.  1.
         -4    1    6    6    0  503 -0.12005151517E+03  0.16873300023E+03  0.20263675758E+03  0.28973237165E+03  0.00000000000E+00 0. -1.
<mgrwt>
<rscale>  0 0.42087169E+04</rscale>
<asrwt>0</asrwt>
<pdfrwt beam="1">  1        2 0.38789189E+00 0.42087169E+04</pdfrwt>
<pdfrwt beam="2">  1       -1 0.27021038E+00 0.42087169E+04</pdfrwt>
<totfact> 0.15366620E-01</totfact>
</mgrwt>
</event>
<event>
12    6  0.1530720E-007  0.1873522E+04  0.7818608E-02  0.8668149E-01
          2   -1    0    0  501    0  0.00000000000E+00  0.00000000000E+00  0.26373937859E+04  0.26373937859E+04  0.00000000000E+00 0. -1.
         -1   -1    0    0    0  501 -0.00000000000E+00 -0.00000000000E+00 -0.33272293088E+03  0.33272293088E+03  0.00000000000E+00 0.  1.
         24    2    1    2    0    0  0.22004206910E+03  0.56891424982E+00 -0.19511693301E+03  0.30483444291E+03  0.80215860027E+02 0.  0.
        254    2    1    2    0    0 -0.22004206910E+03 -0.56891424982E+00  0.24997877880E+04  0.26652822738E+04  0.89798205901E+03 0.  0.
         23    2    4    4    0    0 -0.54724153970E+03 -0.11120372714E+03  0.16191657290E+04  0.17151536705E+04  0.90635994631E+02 0.  0.
         23    2    4    4    0    0  0.32719947059E+03  0.11063481289E+03  0.88062205895E+03  0.95012860335E+03  0.89160511497E+02 0.  0.
          2    1    3    3  502    0  0.99969868904E+02 -0.37308848794E+02 -0.71899305890E+02  0.12866792559E+03  0.00000000000E+00 0. -1.
         -1    1    3    3    0  502  0.12007220020E+03  0.37877763044E+02 -0.12321762712E+03  0.17616651733E+03  0.00000000000E+00 0.  1.
         11    1    5    5    0    0 -0.20157933005E+03 -0.53771242559E+02  0.73654314472E+03  0.76552033080E+03  0.00000000000E+00 0. -1.
        -11    1    5    5    0    0 -0.34566220965E+03 -0.57432484579E+02  0.88262258432E+03  0.94963333967E+03  0.00000000000E+00 0.  1.
          4    1    6    6  503    0  0.86794837479E+02  0.67463083013E+02  0.32811835161E+03  0.34604373141E+03  0.00000000000E+00 0. -1.
         -4    1    6    6    0  503  0.24040463311E+03  0.43171729876E+02  0.55250370733E+03  0.60408487194E+03  0.00000000000E+00 0.  1.
<mgrwt>
<rscale>  0 0.18735222E+04</rscale>
<asrwt>0</asrwt>
<pdfrwt beam="1">  1        2 0.40575288E+00 0.18735222E+04</pdfrwt>
<pdfrwt beam="2">  1       -1 0.51188145E-01 0.18735222E+04</pdfrwt>
<totfact> 0.11878502E+01</totfact>
</mgrwt>
</event>
<event>
12    6  0.1530720E-007  0.1372190E+04  0.7818608E-02  0.8974199E-01
         -1   -1    0    0    0  501 -0.00000000000E+00  0.00000000000E+00  0.96955598613E+03  0.96955598613E+03  0.00000000000E+00 0.  1.
          2   -1    0    0  501    0  0.00000000000E+00 -0.00000000000E+00 -0.48550688411E+03  0.48550688411E+03  0.00000000000E+00 0. -1.
         24    2    1    2    0    0  0.27869177840E+03  0.10499625288E+03  0.43975850798E+03  0.53737776393E+03  0.81816840297E+02 0.  0.
        254    2    1    2    0    0 -0.27869177840E+03 -0.10499625288E+03  0.44290594047E+02  0.91768510632E+03  0.86688579246E+03 0.  0.
         23    2    4    4    0    0 -0.19594434466E+03  0.28682293892E+03 -0.22764660758E+03  0.42565335103E+03  0.93253486844E+02 0.  0.
         23    2    4    4    0    0 -0.82747433749E+02 -0.39181919180E+03  0.27193720162E+03  0.49203175529E+03  0.88181572516E+02 0.  0.
          4    1    3    3  502    0  0.13326714333E+02 -0.90541638049E+00  0.49323184979E+00  0.13366539245E+02  0.00000000000E+00 0. -1.
         -3    1    3    3    0  502  0.26536506407E+03  0.10590166926E+03  0.43926527613E+03  0.52401122468E+03  0.00000000000E+00 0.  1.
         11    1    5    5    0    0 -0.18851310774E+03  0.21832920512E+03 -0.20195587508E+03  0.35212357074E+03  0.00000000000E+00 0. -1.
        -11    1    5    5    0    0 -0.74312369197E+01  0.68493733804E+02 -0.25690732498E+02  0.73529780286E+02  0.00000000000E+00 0.  1.
          3    1    6    6  503    0 -0.13673145260E+02 -0.25447546868E+03  0.14915230733E+03  0.29528144175E+03  0.00000000000E+00 0. -1.
         -3    1    6    6    0  503 -0.69074288489E+02 -0.13734372312E+03  0.12278489429E+03  0.19675031354E+03  0.00000000000E+00 0.  1.
<mgrwt>
<rscale>  0 0.13721896E+04</rscale>
<asrwt>0</asrwt>
<pdfrwt beam="1">  1        2 0.74693367E-01 0.13721896E+04</pdfrwt>
<pdfrwt beam="2">  1       -1 0.14916246E+00 0.13721896E+04</pdfrwt>
<totfact> 0.25174176E+01</totfact>
</mgrwt>
</event>
<event>
12    6  0.1530720E-007  0.1332095E+04  0.7818608E-02  0.9004494E-01
          2   -1    0    0  501    0  0.00000000000E+00  0.00000000000E+00  0.23950883883E+04  0.23950883883E+04  0.00000000000E+00 0. -1.
         -1   -1    0    0    0  501 -0.00000000000E+00 -0.00000000000E+00 -0.18522041379E+03  0.18522041379E+03  0.00000000000E+00 0.  1.
         24    2    1    2    0    0  0.33988460811E+03 -0.12378154095E+03  0.77210757503E+03  0.85642759947E+03  0.80465576527E+02 0.  0.
        254    2    1    2    0    0 -0.33988460811E+03  0.12378154095E+03  0.14377603995E+04  0.17238812026E+04  0.87964084589E+03 0.  0.
         23    2    4    4    0    0  0.25697002074E+03  0.72549537747E+02  0.77989849023E+03  0.82938261865E+03  0.91306330893E+02 0.  0.
         23    2    4    4    0    0 -0.59685462885E+03  0.51232003206E+02  0.65786190926E+03  0.89449858399E+03  0.92115465456E+02 0.  0.
          4    1    3    3  502    0  0.21415912082E+03 -0.69093184810E+02  0.38733915310E+03  0.44796162419E+03  0.00000000000E+00 0. -1.
         -3    1    3    3    0  502  0.12572548728E+03 -0.54688356143E+02  0.38476842192E+03  0.40846597528E+03  0.00000000000E+00 0.  1.
         11    1    5    5    0    0  0.22889698470E+03  0.72406282890E+02  0.75359464359E+03  0.79091174366E+03  0.00000000000E+00 0. -1.
        -11    1    5    5    0    0  0.28073036038E+02  0.14325485715E+00  0.26303846645E+02  0.38470874992E+02  0.00000000000E+00 0.  1.
          2    1    6    6  503    0 -0.27598345946E+03  0.48067339963E+01  0.36483999436E+03  0.45749119781E+03  0.00000000000E+00 0. -1.
         -2    1    6    6    0  503 -0.32087116939E+03  0.46425269210E+02  0.29302191489E+03  0.43700738618E+03  0.00000000000E+00 0.  1.
<mgrwt>
<rscale>  0 0.13320950E+04</rscale>
<asrwt>0</asrwt>
<pdfrwt beam="1">  1        2 0.36847512E+00 0.13320950E+04</pdfrwt>
<pdfrwt beam="2">  1       -1 0.28495450E-01 0.13320950E+04</pdfrwt>
<totfact> 0.49941597E+01</totfact>
</mgrwt>
</event>
<event>
12    6  0.1530720E-007  0.1174644E+04  0.7818608E-02  0.9135345E-01
         -1   -1    0    0    0  501 -0.00000000000E+00  0.00000000000E+00  0.41867778628E+03  0.41867778628E+03  0.00000000000E+00 0.  1.
          2   -1    0    0  501    0  0.00000000000E+00 -0.00000000000E+00 -0.82389636110E+03  0.82389636110E+03  0.00000000000E+00 0. -1.
         24    2    1    2    0    0 -0.89181309176E+02 -0.12096209290E+03 -0.26136739140E+03  0.31171230763E+03  0.79161326518E+02 0.  0.
        254    2    1    2    0    0  0.89181309176E+02  0.12096209290E+03 -0.14385118341E+03  0.93086183975E+03  0.90731773261E+03 0.  0.
         23    2    4    4    0    0  0.11397231761E+03 -0.13971458787E+03 -0.46395921828E+03  0.50629580558E+03  0.92560419570E+02 0.  0.
         23    2    4    4    0    0 -0.24791008433E+02  0.26067668077E+03  0.32010803487E+03  0.42456603417E+03  0.96022067201E+02 0.  0.
          4    1    3    3  502    0 -0.10352050886E+03 -0.10629043209E+03 -0.21753546484E+03  0.26331697661E+03  0.00000000000E+00 0. -1.
         -3    1    3    3    0  502  0.14339199684E+02 -0.14671660812E+02 -0.43831926560E+02  0.48395331020E+02  0.00000000000E+00 0.  1.
         11    1    5    5    0    0  0.75356639778E+02 -0.81788920050E+02 -0.16256309516E+03  0.19696398278E+03  0.00000000000E+00 0.  1.
        -11    1    5    5    0    0  0.38615677831E+02 -0.57925667816E+02 -0.30139612312E+03  0.30933182280E+03  0.00000000000E+00 0. -1.
          3    1    6    6  503    0  0.77914249095E+01  0.71950364830E+00  0.41078196359E+02  0.41816769408E+02  0.00000000000E+00 0. -1.
         -3    1    6    6    0  503 -0.32582433342E+02  0.25995717712E+03  0.27902983851E+03  0.38274926476E+03  0.00000000000E+00 0.  1.
<mgrwt>
<rscale>  0 0.11746440E+04</rscale>
<asrwt>0</asrwt>
<pdfrwt beam="1">  1        2 0.12675329E+00 0.11746440E+04</pdfrwt>
<pdfrwt beam="2">  1       -1 0.64411968E-01 0.11746440E+04</pdfrwt>
<totfact> 0.91320478E+01</totfact>
</mgrwt>
</event>
<event>
12    6  0.1530720E-007  0.1391335E+04  0.7818608E-02  0.8960115E-01
         -1   -1    0    0    0  501 -0.00000000000E+00  0.00000000000E+00  0.20785181185E+03  0.20785181185E+03  0.00000000000E+00 0.  1.
          2   -1    0    0  501    0  0.00000000000E+00 -0.00000000000E+00 -0.23283571183E+04  0.23283571183E+04  0.00000000000E+00 0. -1.
         24    2    1    2    0    0  0.36812873315E+03  0.91027591741E+02 -0.42103613758E+03  0.57224530137E+03  0.79927899829E+02 0.  0.
        254    2    1    2    0    0 -0.36812873315E+03 -0.91027591741E+02 -0.16994691688E+04  0.19639636287E+04  0.90837926691E+03 0.  0.
         23    2    4    4    0    0 -0.30028180037E+03 -0.20098775096E+03 -0.17576340407E+04  0.17967003365E+04  0.91046374804E+02 0.  0.
         23    2    4    4    0    0 -0.67846932777E+02  0.10996015922E+03  0.58164871900E+02  0.16726329224E+03  0.88878645933E+02 0.  0.
          2    1    3    3  502    0  0.26199391606E+03  0.96478888313E+02 -0.27745325885E+03  0.39361059283E+03  0.00000000000E+00 0. -1.
         -1    1    3    3    0  502  0.10613481709E+03 -0.54512965717E+01 -0.14358287872E+03  0.17863470854E+03  0.00000000000E+00 0.  1.
         11    1    5    5    0    0 -0.19256204712E+02 -0.41953652535E+02 -0.31541899102E+03  0.31877899912E+03  0.00000000000E+00 0. -1.
        -11    1    5    5    0    0 -0.28102559566E+03 -0.15903409843E+03 -0.14422150497E+04  0.14779213374E+04  0.00000000000E+00 0.  1.
          4    1    6    6  503    0 -0.34380642629E+02  0.36739185373E+01 -0.10792723959E+02  0.36221666934E+02  0.00000000000E+00 0. -1.
         -4    1    6    6    0  503 -0.33466290148E+02  0.10628624068E+03  0.68957595859E+02  0.13104162530E+03  0.00000000000E+00 0.  1.
<mgrwt>
<rscale>  0 0.13913350E+04</rscale>
<asrwt>0</asrwt>
<pdfrwt beam="1">  1        2 0.35820878E+00 0.13913350E+04</pdfrwt>
<pdfrwt beam="2">  1       -1 0.31977202E-01 0.13913350E+04</pdfrwt>
<totfact> 0.44282354E+01</totfact>
</mgrwt>
</event>
<event>
12    6  0.1530720E-007  0.1288815E+04  0.7818608E-02  0.9038482E-01
         -1   -1    0    0    0  501 -0.00000000000E+00  0.00000000000E+00  0.21640333750E+03  0.21640333750E+03  0.00000000000E+00 0.  1.
          2   -1    0    0  501    0  0.00000000000E+00 -0.00000000000E+00 -0.19189213091E+04  0.19189213091E+04  0.00000000000E+00 0. -1.
         24    2    1    2    0    0 -0.12778920853E+02  0.15392725616E+03 -0.23887476842E+01  0.17389253280E+03  0.79849895700E+02 0.  0.
        254    2    1    2    0    0  0.12778920853E+02 -0.15392725616E+03 -0.17001292239E+04  0.19614321138E+04  0.96587766205E+03 0.  0.
         23    2    4    4    0    0 -0.48028348282E+02  0.19441379533E+03 -0.15468208653E+04  0.15627768523E+04  0.97535914243E+02 0.  0.
         23    2    4    4    0    0  0.60807269135E+02 -0.34834105148E+03 -0.15330835857E+03  0.39865526150E+03  0.10189971829E+03 0.  0.
          4    1    3    3  502    0 -0.12493758638E+02 -0.56294751733E+01 -0.41756590477E+01  0.14325540971E+02  0.00000000000E+00 0. -1.
         -3    1    3    3    0  502 -0.28516221481E+00  0.15955673133E+03  0.17869113635E+01  0.15956699183E+03  0.00000000000E+00 0.  1.
         11    1    5    5    0    0  0.12668034687E+02  0.58153029679E+02 -0.73192125076E+03  0.73433709649E+03  0.00000000000E+00 0. -1.
        -11    1    5    5    0    0 -0.60696382969E+02  0.13626076565E+03 -0.81489961458E+03  0.82843975581E+03  0.00000000000E+00 0.  1.
          3    1    6    6  503    0  0.34312469405E+01 -0.18016066287E+03 -0.30767123632E+02  0.18280113183E+03  0.00000000000E+00 0. -1.
         -3    1    6    6    0  503  0.57376022194E+02 -0.16818038862E+03 -0.12254123494E+03  0.21585412967E+03  0.00000000000E+00 0.  1.
<mgrwt>
<rscale>  0 0.12888149E+04</rscale>
<asrwt>0</asrwt>
<pdfrwt beam="1">  1        2 0.29521866E+00 0.12888149E+04</pdfrwt>
<pdfrwt beam="2">  1       -1 0.33292821E-01 0.12888149E+04</pdfrwt>
<totfact> 0.70322898E+01</totfact>
</mgrwt>
</event>
<event>
12    6  0.1530720E-007  0.1334916E+04  0.7818608E-02  0.9002326E-01
          2   -1    0    0  501    0  0.00000000000E+00  0.00000000000E+00  0.39314273846E+03  0.39314273846E+03  0.00000000000E+00 0. -1.
         -1   -1    0    0    0  501 -0.00000000000E+00 -0.00000000000E+00 -0.11331770701E+04  0.11331770701E+04  0.00000000000E+00 0.  1.
         24    2    1    2    0    0  0.13679605831E+03  0.28439755198E+03 -0.76511226931E+01  0.32638326922E+03  0.82899756355E+02 0.  0.
        254    2    1    2    0    0 -0.13679605831E+03 -0.28439755198E+03 -0.73238320892E+03  0.11999365393E+04  0.89658652930E+03 0.  0.
         23    2    4    4    0    0  0.25754131337E+03  0.17546548189E+03 -0.15942984868E+03  0.36171401845E+03  0.91123493513E+02 0.  0.
         23    2    4    4    0    0 -0.39433737168E+03 -0.45986303387E+03 -0.57295336024E+03  0.83822252086E+03  0.85822309688E+02 0.  0.
          4    1    3    3  502    0  0.14734407076E+03  0.25708718601E+03 -0.13086672106E+02  0.29660640146E+03  0.00000000000E+00 0. -1.
         -3    1    3    3    0  502 -0.10548012449E+02  0.27310365972E+02  0.54355494131E+01  0.29776867759E+02  0.00000000000E+00 0.  1.
         11    1    5    5    0    0  0.25544641792E+03  0.16868675834E+03 -0.16910146152E+03  0.34971902887E+03  0.00000000000E+00 0. -1.
        -11    1    5    5    0    0  0.20948954431E+01  0.67787235557E+01  0.96716128450E+01  0.11994989578E+02  0.00000000000E+00 0.  1.
          1    1    6    6  503    0 -0.23379259860E+03 -0.30944658506E+03 -0.31853809017E+03  0.50187915184E+03  0.00000000000E+00 0. -1.
         -1    1    6    6    0  503 -0.16054477307E+03 -0.15041644881E+03 -0.25441527007E+03  0.33634336902E+03  0.00000000000E+00 0.  1.
<mgrwt>
<rscale>  0 0.13349162E+04</rscale>
<asrwt>0</asrwt>
<pdfrwt beam="1">  1        2 0.60483498E-01 0.13349162E+04</pdfrwt>
<pdfrwt beam="2">  1       -1 0.17433493E+00 0.13349162E+04</pdfrwt>
<totfact> 0.20752622E+01</totfact>
</mgrwt>
</event>
<event>
12    6  0.1929091E-007  0.2170422E+04  0.7818608E-02  0.8530841E-01
         -1   -1    0    0    0  501 -0.00000000000E+00  0.00000000000E+00  0.55355360790E+03  0.55355360790E+03  0.00000000000E+00 0.  1.
          2   -1    0    0  501    0  0.00000000000E+00 -0.00000000000E+00 -0.21274956014E+04  0.21274956014E+04  0.00000000000E+00 0. -1.
         24    2    1    2    0    0  0.35851021083E+03  0.75195830709E+03 -0.25068164234E+03  0.87363402437E+03  0.80151455781E+02 0.  0.
        254    2    1    2    0    0 -0.35851021083E+03 -0.75195830709E+03 -0.13232603511E+04  0.18074151849E+04  0.90651024640E+03 0.  0.
         23    2    4    4    0    0 -0.61618278675E+02  0.16013178264E+03 -0.51078116090E+03  0.54664940078E+03  0.92136708037E+02 0.  0.
         23    2    4    4    0    0 -0.29689193216E+03 -0.91209008972E+03 -0.81247919023E+03  0.12607657841E+04  0.96720094478E+02 0.  0.
          4    1    3    3  502    0  0.32686426201E+01  0.12595223225E+01  0.36459399733E+01  0.50560161539E+01  0.00000000000E+00 0. -1.
         -3    1    3    3    0  502  0.35524156821E+03  0.75069878477E+03 -0.25432758232E+03  0.86857800822E+03  0.00000000000E+00 0.  1.
         11    1    5    5    0    0 -0.16496063445E+02 -0.95992344389E+01 -0.46878253052E+02  0.50614583078E+02  0.00000000000E+00 0. -1.
        -11    1    5    5    0    0 -0.45122215231E+02  0.16973101707E+03 -0.46390290785E+03  0.49603481770E+03  0.00000000000E+00 0.  1.
          1    1    6    6  503    0 -0.92021452835E+02 -0.32433809620E+03 -0.22856984992E+03  0.40731722861E+03  0.00000000000E+00 0. -1.
         -1    1    6    6    0  503 -0.20487047932E+03 -0.58775199352E+03 -0.58390934031E+03  0.85344855550E+03  0.00000000000E+00 0.  1.
<mgrwt>
<rscale>  0 0.21704220E+04</rscale>
<asrwt>0</asrwt>
<pdfrwt beam="1">  1        2 0.32730703E+00 0.21704220E+04</pdfrwt>
<pdfrwt beam="2">  1       -1 0.85162091E-01 0.21704220E+04</pdfrwt>
<totfact> 0.80633014E+00</totfact>
</mgrwt>
</event>
<event>
12    6  0.1530720E-007  0.1279031E+04  0.7818608E-02  0.9046361E-01
          2   -1    0    0  501    0  0.00000000000E+00  0.00000000000E+00  0.20534916790E+04  0.20534916790E+04  0.00000000000E+00 0. -1.
         -1   -1    0    0    0  501 -0.00000000000E+00 -0.00000000000E+00 -0.19916321571E+03  0.19916321571E+03  0.00000000000E+00 0.  1.
         24    2    1    2    0    0  0.20958750250E+03 -0.70433934765E+02  0.91138405168E+03  0.94114266131E+03  0.78998474211E+02 0.  0.
        254    2    1    2    0    0 -0.20958750250E+03  0.70433934765E+02  0.94294441157E+03  0.13115122334E+04  0.88432590969E+03 0.  0.
         23    2    4    4    0    0 -0.28537068772E+03 -0.90988810924E+02  0.10417592425E+04  0.10879767059E+04  0.93357378858E+02 0.  0.
         23    2    4    4    0    0  0.75783185219E+02  0.16142274569E+03 -0.98814830905E+02  0.22353552745E+03  0.91669881836E+02 0.  0.
          2    1    3    3  502    0  0.11377272860E+03  0.33100156991E+01  0.43075618930E+03  0.44554021658E+03  0.00000000000E+00 0. -1.
         -1    1    3    3    0  502  0.95814773899E+02 -0.73743950464E+02  0.48062786238E+03  0.49560244473E+03  0.00000000000E+00 0.  1.
         11    1    5    5    0    0 -0.32325647026E+02  0.19330713837E+02  0.12960930211E+03  0.13497109004E+03  0.00000000000E+00 0. -1.
        -11    1    5    5    0    0 -0.25304504069E+03 -0.11031952476E+03  0.91214994037E+03  0.95300561587E+03  0.00000000000E+00 0.  1.
          2    1    6    6  503    0  0.87441640473E+02  0.13459508485E+03 -0.10731263862E+03  0.19307480354E+03  0.00000000000E+00 0.  1.
         -2    1    6    6    0  503 -0.11658455254E+02  0.26827660839E+02  0.84978077126E+01  0.30460723907E+02  0.00000000000E+00 0. -1.
<mgrwt>
<rscale>  0 0.12790309E+04</rscale>
<asrwt>0</asrwt>
<pdfrwt beam="1">  1        2 0.31592178E+00 0.12790309E+04</pdfrwt>
<pdfrwt beam="2">  1       -1 0.30640496E-01 0.12790309E+04</pdfrwt>
<totfact> 0.68659607E+01</totfact>
</mgrwt>
</event>
<event>
12    6  0.1530720E-007  0.1482984E+04  0.7818608E-02  0.8895848E-01
         -1   -1    0    0    0  501 -0.00000000000E+00  0.00000000000E+00  0.14982040707E+04  0.14982040707E+04  0.00000000000E+00 0.  1.
          2   -1    0    0  501    0  0.00000000000E+00 -0.00000000000E+00 -0.36697953955E+03  0.36697953955E+03  0.00000000000E+00 0. -1.
         24    2    1    2    0    0  0.31501331094E+03 -0.19629442187E+03  0.31116724452E+02  0.38072168077E+03  0.78840735293E+02 0.  0.
        254    2    1    2    0    0 -0.31501331094E+03  0.19629442187E+03  0.11001078067E+04  0.14844619295E+04  0.92500007978E+03 0.  0.
         23    2    4    4    0    0 -0.60040385575E+03  0.11683336516E+03  0.45280454110E+03  0.76653179408E+03  0.91674498525E+02 0.  0.
         23    2    4    4    0    0  0.28539054481E+03  0.79461056702E+02  0.64730326562E+03  0.71793013542E+03  0.93060942746E+02 0.  0.
          4    1    3    3  502    0  0.26136798053E+03 -0.17863520335E+03  0.51371522287E+02  0.32072229486E+03  0.00000000000E+00 0. -1.
         -3    1    3    3    0  502  0.53645330416E+02 -0.17659218522E+02 -0.20254797836E+02  0.59999385910E+02  0.00000000000E+00 0.  1.
         11    1    5    5    0    0 -0.16796574800E+03  0.37401288161E+01  0.16124335855E+03  0.23286455665E+03  0.00000000000E+00 0.  1.
        -11    1    5    5    0    0 -0.43243810774E+03  0.11309323635E+03  0.29156118255E+03  0.53366723743E+03  0.00000000000E+00 0. -1.
          3    1    6    6  503    0  0.21460338075E+03  0.37549047183E+02  0.54309729132E+03  0.58516596775E+03  0.00000000000E+00 0. -1.
         -3    1    6    6    0  503  0.70787164058E+02  0.41912009519E+02  0.10420597430E+03  0.13276416767E+03  0.00000000000E+00 0.  1.
<mgrwt>
<rscale>  0 0.14829838E+04</rscale>
<asrwt>0</asrwt>
<pdfrwt beam="1">  1        2 0.56458391E-01 0.14829838E+04</pdfrwt>
<pdfrwt beam="2">  1       -1 0.23049293E+00 0.14829838E+04</pdfrwt>
<totfact> 0.90900978E+00</totfact>
</mgrwt>
</event>
<event>
12    6  0.1530720E-007  0.1917080E+04  0.7818608E-02  0.8646401E-01
         -1   -1    0    0    0  501 -0.00000000000E+00  0.00000000000E+00  0.20014208397E+03  0.20014208397E+03  0.00000000000E+00 0.  1.
          2   -1    0    0  501    0  0.00000000000E+00 -0.00000000000E+00 -0.45907342029E+04  0.45907342029E+04  0.00000000000E+00 0. -1.
         24    2    1    2    0    0  0.40438743718E+03 -0.31032747117E+03 -0.30956432025E+04  0.31383295293E+04  0.79202644717E+02 0.  0.
        254    2    1    2    0    0 -0.40438743718E+03  0.31032747117E+03 -0.12949489164E+04  0.16525467575E+04  0.89117099980E+03 0.  0.
         23    2    4    4    0    0 -0.43148881867E+03  0.65880656748E+02 -0.13890260697E+03  0.46714235634E+03  0.91679797611E+02 0.  0.
         23    2    4    4    0    0  0.27101381496E+02  0.24444681443E+03 -0.11560463095E+04  0.11854044012E+04  0.90839389821E+02 0.  0.
          2    1    3    3  502    0  0.38879768340E+03 -0.31397862152E+03 -0.29884664152E+04  0.30299633212E+04  0.00000000000E+00 0. -1.
         -1    1    3    3    0  502  0.15589753773E+02  0.36511503437E+01 -0.10717678731E+03  0.10836620811E+03  0.00000000000E+00 0.  1.
         11    1    5    5    0    0 -0.16827680041E+03  0.42410282062E+02 -0.11886788579E+02  0.17394542053E+03  0.00000000000E+00 0. -1.
        -11    1    5    5    0    0 -0.26321201826E+03  0.23470374686E+02 -0.12701581839E+03  0.29319693581E+03  0.00000000000E+00 0.  1.
          4    1    6    6  503    0 -0.23406187268E+02  0.12710468240E+03 -0.69861132316E+03  0.71046550284E+03  0.00000000000E+00 0. -1.
         -4    1    6    6    0  503  0.50507568764E+02  0.11734213203E+03 -0.45743498631E+03  0.47493889834E+03  0.00000000000E+00 0.  1.
<mgrwt>
<rscale>  0 0.19170802E+04</rscale>
<asrwt>0</asrwt>
<pdfrwt beam="1">  1        2 0.70626678E+00 0.19170802E+04</pdfrwt>
<pdfrwt beam="2">  1       -1 0.30791091E-01 0.19170802E+04</pdfrwt>
<totfact> 0.10578306E+00</totfact>
</mgrwt>
</event>
<event>
12    6  0.1530720E-007  0.2088308E+04  0.7818608E-02  0.8566411E-01
          2   -1    0    0  501    0  0.00000000000E+00  0.00000000000E+00  0.26883079924E+04  0.26883079924E+04  0.00000000000E+00 0. -1.
         -1   -1    0    0    0  501 -0.00000000000E+00 -0.00000000000E+00 -0.40555545526E+03  0.40555545526E+03  0.00000000000E+00 0.  1.
         24    2    1    2    0    0  0.71887949420E+03  0.17857555431E+03  0.31551119930E+03  0.80903810134E+03  0.79488217682E+02 0.  0.
        254    2    1    2    0    0 -0.71887949420E+03 -0.17857555431E+03  0.19672413378E+04  0.22848253463E+04  0.89538339615E+03 0.  0.
         23    2    4    4    0    0 -0.44610151342E+03 -0.41429990233E+03  0.56978363793E+03  0.83863088671E+03  0.89428187643E+02 0.  0.
         23    2    4    4    0    0 -0.27277798078E+03  0.23572434802E+03  0.13974576999E+04  0.14461944596E+04  0.92825626420E+02 0.  0.
          2    1    3    3  502    0  0.22341065681E+03  0.34785079668E+02  0.12984923928E+03  0.26073578252E+03  0.00000000000E+00 0. -1.
         -1    1    3    3    0  502  0.49546883739E+03  0.14379047464E+03  0.18566196002E+03  0.54830231882E+03  0.00000000000E+00 0.  1.
         11    1    5    5    0    0 -0.33592978871E+03 -0.29260131695E+03  0.36333652348E+03  0.57487197089E+03  0.00000000000E+00 0.  1.
        -11    1    5    5    0    0 -0.11017172472E+03 -0.12169858537E+03  0.20644711445E+03  0.26375891582E+03  0.00000000000E+00 0. -1.
          1    1    6    6  503    0 -0.33348715882E+02 -0.10356702094E+01  0.17810906939E+03  0.18120720202E+03  0.00000000000E+00 0. -1.
         -1    1    6    6    0  503 -0.23942926489E+03  0.23676001823E+03  0.12193486305E+04  0.12649872576E+04  0.00000000000E+00 0.  1.
<mgrwt>
<rscale>  0 0.20883084E+04</rscale>
<asrwt>0</asrwt>
<pdfrwt beam="1">  1        2 0.41358583E+00 0.20883084E+04</pdfrwt>
<pdfrwt beam="2">  1       -1 0.62393149E-01 0.20883084E+04</pdfrwt>
<totfact> 0.73868103E+00</totfact>
</mgrwt>
</event>
<event>
12    6  0.1530720E-007  0.3442365E+04  0.7818608E-02  0.8127586E-01
         -1   -1    0    0    0  501 -0.00000000000E+00  0.00000000000E+00  0.12474860505E+04  0.12474860505E+04  0.00000000000E+00 0.  1.
          2   -1    0    0  501    0  0.00000000000E+00 -0.00000000000E+00 -0.23747516193E+04  0.23747516193E+04  0.00000000000E+00 0. -1.
         24    2    1    2    0    0  0.86482437687E+03  0.32910211766E+03  0.85134188079E+03  0.12599311047E+04  0.80087351077E+02 0.  0.
        254    2    1    2    0    0 -0.86482437687E+03 -0.32910211766E+03 -0.19786074496E+04  0.23623065651E+04  0.89965296723E+03 0.  0.
         23    2    4    4    0    0 -0.42898612650E+01  0.36070806255E+02 -0.10022907109E+04  0.10075956042E+04  0.96657779793E+02 0.  0.
         23    2    4    4    0    0 -0.86053451561E+03 -0.36517292392E+03 -0.97631673867E+03  0.13547109610E+04  0.90423982547E+02 0.  0.
          4    1    3    3  502    0  0.11403906255E+03  0.73282111739E+02  0.11930477757E+03  0.18057908417E+03  0.00000000000E+00 0. -1.
         -3    1    3    3    0  502  0.75078531432E+03  0.25582000592E+03  0.73203710322E+03  0.10793520205E+04  0.00000000000E+00 0.  1.
         11    1    5    5    0    0  0.45933082570E+02  0.22234257772E+02 -0.47047892856E+03  0.47323845206E+03  0.00000000000E+00 0. -1.
        -11    1    5    5    0    0 -0.50222943835E+02  0.13836548483E+02 -0.53181178236E+03  0.53435715212E+03  0.00000000000E+00 0.  1.
          3    1    6    6  503    0 -0.42296821824E+03 -0.16471778365E+03 -0.53615102215E+03  0.70248984366E+03  0.00000000000E+00 0. -1.
         -3    1    6    6    0  503 -0.43756629737E+03 -0.20045514027E+03 -0.44016571652E+03  0.65222111730E+03  0.00000000000E+00 0.  1.
<mgrwt>
<rscale>  0 0.34423652E+04</rscale>
<asrwt>0</asrwt>
<pdfrwt beam="1">  1        2 0.36534640E+00 0.34423652E+04</pdfrwt>
<pdfrwt beam="2">  1       -1 0.19192093E+00 0.34423652E+04</pdfrwt>
<totfact> 0.66065387E-01</totfact>
</mgrwt>
</event>
<event>
12    6  0.1530720E-007  0.1972190E+04  0.7818608E-02  0.8619734E-01
         -1   -1    0    0    0  501 -0.00000000000E+00  0.00000000000E+00  0.14558330903E+04  0.14558330903E+04  0.00000000000E+00 0.  1.
          2   -1    0    0  501    0  0.00000000000E+00 -0.00000000000E+00 -0.66792194260E+03  0.66792194260E+03  0.00000000000E+00 0. -1.
         24    2    1    2    0    0 -0.76233206048E+03 -0.12592461700E+03  0.17885491788E+03  0.79730749447E+03  0.81871725748E+02 0.  0.
        254    2    1    2    0    0  0.76233206048E+03  0.12592461700E+03  0.60905622981E+03  0.13264475384E+04  0.88966645520E+03 0.  0.
         23    2    4    4    0    0  0.21865304597E+03  0.14866709687E+03  0.71222458807E+03  0.76504970928E+03  0.90145069821E+02 0.  0.
         23    2    4    4    0    0  0.54367901451E+03 -0.22742479869E+02 -0.10316835826E+03  0.56139782914E+03  0.91759038796E+02 0.  0.
          2    1    3    3  502    0 -0.78052316931E+02 -0.35635413900E+02  0.74059082572E+01  0.86121393272E+02  0.00000000000E+00 0. -1.
         -1    1    3    3    0  502 -0.68427974355E+03 -0.90289203105E+02  0.17144900962E+03  0.71118610120E+03  0.00000000000E+00 0.  1.
         11    1    5    5    0    0  0.13956869945E+03  0.53232717430E+02  0.46656578956E+03  0.48989466221E+03  0.00000000000E+00 0. -1.
        -11    1    5    5    0    0  0.79084346519E+02  0.95434379444E+02  0.24565879851E+03  0.27515504707E+03  0.00000000000E+00 0.  1.
          4    1    6    6  503    0  0.10010695420E+03 -0.27188486438E+01 -0.56358850551E+02  0.11491350858E+03  0.00000000000E+00 0. -1.
         -4    1    6    6    0  503  0.44357206031E+03 -0.20023631225E+02 -0.46809507713E+02  0.44648432056E+03  0.00000000000E+00 0.  1.
<mgrwt>
<rscale>  0 0.19721895E+04</rscale>
<asrwt>0</asrwt>
<pdfrwt beam="1">  1        2 0.10275722E+00 0.19721895E+04</pdfrwt>
<pdfrwt beam="2">  1       -1 0.22397432E+00 0.19721895E+04</pdfrwt>
<totfact> 0.47828629E+00</totfact>
</mgrwt>
</event>
<event>
12    6  0.1530720E-007  0.1399714E+04  0.7818608E-02  0.8954026E-01
          2   -1    0    0  501    0  0.00000000000E+00  0.00000000000E+00  0.17306958806E+04  0.17306958806E+04  0.00000000000E+00 0. -1.
         -1   -1    0    0    0  501 -0.00000000000E+00 -0.00000000000E+00 -0.28300728176E+03  0.28300728176E+03  0.00000000000E+00 0.  1.
         24    2    1    2    0    0 -0.37048050511E+03 -0.11642028523E+03  0.53247759401E+03  0.66380530140E+03  0.79344833302E+02 0.  0.
        254    2    1    2    0    0  0.37048050511E+03  0.11642028523E+03  0.91521100486E+03  0.13498978610E+04  0.91312844890E+03 0.  0.
         23    2    4    4    0    0  0.15949369494E+03  0.49708489968E+03  0.61634362819E+03  0.81378489208E+03  0.99170289638E+02 0.  0.
         23    2    4    4    0    0  0.21098681017E+03 -0.38066461445E+03  0.29886737667E+03  0.53611296890E+03  0.93136586955E+02 0.  0.
          4    1    3    3  502    0 -0.23127017995E+03 -0.70787708899E+02  0.39341862902E+03  0.46181707799E+03  0.00000000000E+00 0. -1.
         -3    1    3    3    0  502 -0.13921032516E+03 -0.45632576328E+02  0.13905896499E+03  0.20198822341E+03  0.00000000000E+00 0.  1.
         11    1    5    5    0    0  0.10563182396E+03  0.43468003567E+03  0.49609566444E+03  0.66799380530E+03  0.00000000000E+00 0.  1.
        -11    1    5    5    0    0  0.53861870981E+02  0.62404864010E+02  0.12024796375E+03  0.14579108678E+03  0.00000000000E+00 0. -1.
          3    1    6    6  503    0  0.29605376959E+02 -0.41100261315E+02  0.75851175580E+02  0.91209158870E+02  0.00000000000E+00 0. -1.
         -3    1    6    6    0  503  0.18138143321E+03 -0.33956435313E+03  0.22301620109E+03  0.44490381003E+03  0.00000000000E+00 0.  1.
<mgrwt>
<rscale>  0 0.13997136E+04</rscale>
<asrwt>0</asrwt>
<pdfrwt beam="1">  1        2 0.26626090E+00 0.13997136E+04</pdfrwt>
<pdfrwt beam="2">  1       -1 0.43539583E-01 0.13997136E+04</pdfrwt>
<totfact> 0.54451907E+01</totfact>
</mgrwt>
</event>
<event>
12    6  0.1530720E-007  0.2466888E+04  0.7818608E-02  0.8414878E-01
         -1   -1    0    0    0  501 -0.00000000000E+00  0.00000000000E+00  0.12847805253E+04  0.12847805253E+04  0.00000000000E+00 0.  1.
          2   -1    0    0  501    0  0.00000000000E+00 -0.00000000000E+00 -0.11841583963E+04  0.11841583963E+04  0.00000000000E+00 0. -1.
         24    2    1    2    0    0 -0.51730657923E+03  0.13354936418E+03  0.98205581924E+03  0.11208106020E+04  0.79631927024E+02 0.  0.
        254    2    1    2    0    0  0.51730657923E+03 -0.13354936418E+03 -0.88143369017E+03  0.13481283196E+04  0.86895516941E+03 0.  0.
         23    2    4    4    0    0  0.62069203532E+03  0.41724424177E+01 -0.95370812632E+03  0.11409027127E+04  0.82606281302E+02 0.  0.
         23    2    4    4    0    0 -0.10338545609E+03 -0.13772180660E+03  0.72274436156E+02  0.20722560691E+03  0.89794262028E+02 0.  0.
          2    1    3    3  502    0 -0.14653810588E+03  0.52310004712E+02  0.22002742056E+03  0.26948435737E+03  0.00000000000E+00 0. -1.
         -1    1    3    3    0  502 -0.37076847336E+03  0.81239359472E+02  0.76202839868E+03  0.85132624460E+03  0.00000000000E+00 0.  1.
         11    1    5    5    0    0  0.55039499177E+03 -0.48645864640E+01 -0.79344966883E+03  0.96567110764E+03  0.00000000000E+00 0.  1.
        -11    1    5    5    0    0  0.70297043543E+02  0.90370288817E+01 -0.16025845749E+03  0.17523160508E+03  0.00000000000E+00 0. -1.
          3    1    6    6  503    0 -0.21635116994E+02 -0.15905506388E+02 -0.20380676571E+02  0.33711057507E+02  0.00000000000E+00 0. -1.
         -3    1    6    6    0  503 -0.81750339092E+02 -0.12181630021E+03  0.92655112727E+02  0.17351454940E+03  0.00000000000E+00 0.  1.
<mgrwt>
<rscale>  0 0.24668876E+04</rscale>
<asrwt>0</asrwt>
<pdfrwt beam="1">  1        2 0.18217821E+00 0.24668876E+04</pdfrwt>
<pdfrwt beam="2">  1       -1 0.19765854E+00 0.24668876E+04</pdfrwt>
<totfact> 0.30828763E+00</totfact>
</mgrwt>
</event>
<event>
12    6  0.1530720E-007  0.1302217E+04  0.7818608E-02  0.9027809E-01
          2   -1    0    0  501    0  0.00000000000E+00  0.00000000000E+00  0.19451649752E+04  0.19451649752E+04  0.00000000000E+00 0. -1.
         -1   -1    0    0    0  501 -0.00000000000E+00 -0.00000000000E+00 -0.21794653883E+03  0.21794653883E+03  0.00000000000E+00 0.  1.
         24    2    1    2    0    0 -0.31533092577E+03 -0.11022382061E+03  0.42606905075E+03  0.54681815833E+03  0.76761832318E+02 0.  0.
        254    2    1    2    0    0  0.31533092577E+03  0.11022382061E+03  0.13011493856E+04  0.16162933557E+04  0.89879452857E+03 0.  0.
         23    2    4    4    0    0  0.48690448694E+03 -0.22828387113E+03  0.58078770767E+03  0.79707507307E+03  0.93940436012E+02 0.  0.
         23    2    4    4    0    0 -0.17157356118E+03  0.33850769174E+03  0.72036167794E+03  0.81921828261E+03  0.90403004694E+02 0.  0.
          2    1    3    3  502    0 -0.23667912487E+03 -0.79691167377E+02  0.36666171970E+03  0.44363104829E+03  0.00000000000E+00 0. -1.
         -1    1    3    3    0  502 -0.78651800895E+02 -0.30532653236E+02  0.59407331045E+02  0.10318711005E+03  0.00000000000E+00 0.  1.
         11    1    5    5    0    0  0.45406181811E+03 -0.23507636095E+03  0.55607761309E+03  0.75541732964E+03  0.00000000000E+00 0.  1.
        -11    1    5    5    0    0  0.32842668829E+02  0.67924898221E+01  0.24710094579E+02  0.41657743433E+02  0.00000000000E+00 0. -1.
          1    1    6    6  503    0 -0.57773272849E+02  0.54033607571E+02  0.20396409763E+03  0.21876639350E+03  0.00000000000E+00 0. -1.
         -1    1    6    6    0  503 -0.11380028833E+03  0.28447408417E+03  0.51639758031E+03  0.60045188911E+03  0.00000000000E+00 0.  1.
<mgrwt>
<rscale>  0 0.13022165E+04</rscale>
<asrwt>0</asrwt>
<pdfrwt beam="1">  1        2 0.29925614E+00 0.13022165E+04</pdfrwt>
<pdfrwt beam="2">  1       -1 0.33530238E-01 0.13022165E+04</pdfrwt>
<totfact> 0.67088016E+01</totfact>
</mgrwt>
</event>
<event>
12    6  0.1530720E-007  0.1990006E+04  0.7818608E-02  0.8611308E-01
         -1   -1    0    0    0  501 -0.00000000000E+00  0.00000000000E+00  0.81695480178E+03  0.81695480178E+03  0.00000000000E+00 0.  1.
          2   -1    0    0  501    0  0.00000000000E+00 -0.00000000000E+00 -0.12118548800E+04  0.12118548800E+04  0.00000000000E+00 0. -1.
         24    2    1    2    0    0 -0.76748937297E+03  0.11272517753E+03  0.92000437788E+01  0.77943721002E+03  0.75437525681E+02 0.  0.
        254    2    1    2    0    0  0.76748937297E+03 -0.11272517753E+03 -0.40410012196E+03  0.12493724717E+04  0.89212541790E+03 0.  0.
         23    2    4    4    0    0  0.31999412421E+03 -0.16295884245E+03 -0.63584700448E+03  0.73613253849E+03  0.92940181049E+02 0.  0.
         23    2    4    4    0    0  0.44749524876E+03  0.50233664917E+02  0.23174688252E+03  0.51323993323E+03  0.83265795798E+02 0.  0.
          4    1    3    3  502    0 -0.26810508131E+03  0.31341789951E+02  0.38271691864E+02  0.27263045468E+03  0.00000000000E+00 0. -1.
         -3    1    3    3    0  502 -0.49938429166E+03  0.81383387579E+02 -0.29071648085E+02  0.50680675534E+03  0.00000000000E+00 0.  1.
         11    1    5    5    0    0  0.26823989575E+01 -0.13550681001E+02 -0.56733598411E+01  0.14933292726E+02  0.00000000000E+00 0. -1.
        -11    1    5    5    0    0  0.31731172525E+03 -0.14940816145E+03 -0.63017364464E+03  0.72119924576E+03  0.00000000000E+00 0.  1.
          3    1    6    6  503    0  0.18350023426E+02  0.20831020132E+02  0.12717794712E+02  0.30535177449E+02  0.00000000000E+00 0. -1.
         -3    1    6    6    0  503  0.42914522534E+03  0.29402644785E+02  0.21902908781E+03  0.48270475578E+03  0.00000000000E+00 0.  1.
<mgrwt>
<rscale>  0 0.19900057E+04</rscale>
<asrwt>0</asrwt>
<pdfrwt beam="1">  1        2 0.18643921E+00 0.19900057E+04</pdfrwt>
<pdfrwt beam="2">  1       -1 0.12568535E+00 0.19900057E+04</pdfrwt>
<totfact> 0.10906318E+01</totfact>
</mgrwt>
</event>
<event>
12    6  0.1530720E-007  0.1915170E+04  0.7818608E-02  0.8647342E-01
         -1   -1    0    0    0  501 -0.00000000000E+00  0.00000000000E+00  0.59768951114E+03  0.59768951114E+03  0.00000000000E+00 0.  1.
          2   -1    0    0  501    0  0.00000000000E+00 -0.00000000000E+00 -0.15341902278E+04  0.15341902278E+04  0.00000000000E+00 0. -1.
         24    2    1    2    0    0  0.58945706732E+03 -0.35106093411E+03 -0.68806946869E+03  0.97515720261E+03  0.82392732657E+02 0.  0.
        254    2    1    2    0    0 -0.58945706732E+03  0.35106093411E+03 -0.24843124798E+03  0.11567225363E+04  0.89754416461E+03 0.  0.
         23    2    4    4    0    0 -0.67201914613E+02  0.53650780379E+03 -0.23022524470E+03  0.59451724608E+03  0.89946493715E+02 0.  0.
         23    2    4    4    0    0 -0.52225515271E+03 -0.18544686968E+03 -0.18206003279E+02  0.56220529026E+03  0.92748821200E+02 0.  0.
          4    1    3    3  502    0  0.44633947078E+03 -0.22606495393E+03 -0.47925275533E+03  0.69282572849E+03  0.00000000000E+00 0. -1.
         -3    1    3    3    0  502  0.14311759654E+03 -0.12499598018E+03 -0.20881671336E+03  0.28233147412E+03  0.00000000000E+00 0.  1.
         11    1    5    5    0    0  0.17833554965E+01  0.21216051363E+03 -0.12674981558E+03  0.24714526023E+03  0.00000000000E+00 0.  1.
        -11    1    5    5    0    0 -0.68985270109E+02  0.32434729016E+03 -0.10347542912E+03  0.34737198585E+03  0.00000000000E+00 0. -1.
          4    1    6    6  503    0 -0.52617384873E+03 -0.18405541392E+03 -0.19706101379E+02  0.55778458647E+03  0.00000000000E+00 0. -1.
         -4    1    6    6    0  503  0.39186960192E+01 -0.13914557650E+01  0.15000980998E+01  0.44207037840E+01  0.00000000000E+00 0.  1.
<mgrwt>
<rscale>  0 0.19151704E+04</rscale>
<asrwt>0</asrwt>
<pdfrwt beam="1">  1        2 0.23602926E+00 0.19151704E+04</pdfrwt>
<pdfrwt beam="2">  1       -1 0.91952234E-01 0.19151704E+04</pdfrwt>
<totfact> 0.14905326E+01</totfact>
</mgrwt>
</event>
<event>
12    6  0.1530720E-007  0.1954305E+04  0.7818608E-02  0.8628287E-01
          2   -1    0    0  501    0  0.00000000000E+00  0.00000000000E+00  0.14064114551E+04  0.14064114551E+04  0.00000000000E+00 0. -1.
         -1   -1    0    0    0  501 -0.00000000000E+00 -0.00000000000E+00 -0.67891043766E+03  0.67891043766E+03  0.00000000000E+00 0.  1.
         24    2    1    2    0    0 -0.51954838370E+03  0.55125163034E+03  0.26984602307E+03  0.80807298123E+03  0.79725678842E+02 0.  0.
        254    2    1    2    0    0  0.51954838370E+03 -0.55125163034E+03  0.45765499438E+03  0.12772489115E+04  0.92092768727E+03 0.  0.
         23    2    4    4    0    0  0.52314679318E+03 -0.77684358294E+03  0.41962618254E+03  0.10303202515E+04  0.91132694323E+02 0.  0.
         23    2    4    4    0    0 -0.35984094807E+01  0.22559195260E+03  0.38028811834E+02  0.24692866005E+03  0.92859544473E+02 0.  0.
          4    1    3    3  502    0 -0.13899537595E+03  0.12584084130E+03  0.10029902839E+03  0.21263942949E+03  0.00000000000E+00 0. -1.
         -3    1    3    3    0  502 -0.38055300775E+03  0.42541078904E+03  0.16954699468E+03  0.59543355175E+03  0.00000000000E+00 0.  1.
         11    1    5    5    0    0  0.90171394056E+02 -0.88992402790E+02  0.37000106239E+02  0.13198308953E+03  0.00000000000E+00 0.  1.
        -11    1    5    5    0    0  0.43297539913E+03 -0.68785118015E+03  0.38262607630E+03  0.89833716196E+03  0.00000000000E+00 0. -1.
          2    1    6    6  503    0  0.11216101502E+02  0.18861818771E+03  0.63864193600E+02  0.19945239255E+03  0.00000000000E+00 0. -1.
         -2    1    6    6    0  503 -0.14814510983E+02  0.36973764884E+02 -0.25835381766E+02  0.47476267506E+02  0.00000000000E+00 0.  1.
<mgrwt>
<rscale>  0 0.19543054E+04</rscale>
<asrwt>0</asrwt>
<pdfrwt beam="1">  1        2 0.21637099E+00 0.19543054E+04</pdfrwt>
<pdfrwt beam="2">  1       -1 0.10444776E+00 0.19543054E+04</pdfrwt>
<totfact> 0.13142974E+01</totfact>
</mgrwt>
</event>
<event>
12    6  0.1530720E-007  0.2616312E+04  0.7818608E-02  0.8362681E-01
          2   -1    0    0  501    0  0.00000000000E+00  0.00000000000E+00  0.14879292391E+04  0.14879292391E+04  0.00000000000E+00 0. -1.
         -1   -1    0    0    0  501 -0.00000000000E+00 -0.00000000000E+00 -0.11501032919E+04  0.11501032919E+04  0.00000000000E+00 0.  1.
         24    2    1    2    0    0  0.15082381691E+03 -0.11071072225E+04 -0.16289597281E+03  0.11322104146E+04  0.83253223202E+02 0.  0.
        254    2    1    2    0    0 -0.15082381691E+03  0.11071072225E+04  0.50072192000E+03  0.15058221164E+04  0.87655209723E+03 0.  0.
         23    2    4    4    0    0  0.30066229570E+03  0.45309339559E+03 -0.19011184736E+02  0.55183817386E+03  0.92046204693E+02 0.  0.
         23    2    4    4    0    0 -0.45148611261E+03  0.65401382689E+03  0.51973310474E+03  0.95398394250E+03  0.91591848757E+02 0.  0.
          2    1    3    3  502    0  0.12635468754E+01 -0.52610518206E+02  0.89635975707E+01  0.53383604768E+02  0.00000000000E+00 0. -1.
         -1    1    3    3    0  502  0.14956027003E+03 -0.10544967043E+04 -0.17185957038E+03  0.10788268098E+04  0.00000000000E+00 0.  1.
         11    1    5    5    0    0  0.14047032656E+01  0.24115789063E+02 -0.15647183208E+02  0.28781570766E+02  0.00000000000E+00 0. -1.
        -11    1    5    5    0    0  0.29925759244E+03  0.42897760653E+03 -0.33640015272E+01  0.52305660309E+03  0.00000000000E+00 0.  1.
          1    1    6    6  503    0 -0.20129804754E+02  0.52154008959E+02  0.61868587577E+02  0.83384481881E+02  0.00000000000E+00 0. -1.
         -1    1    6    6    0  503 -0.43135630785E+03  0.60185981793E+03  0.45786451716E+03  0.87059946062E+03  0.00000000000E+00 0.  1.
<mgrwt>
<rscale>  0 0.26163121E+04</rscale>
<asrwt>0</asrwt>
<pdfrwt beam="1">  1        2 0.22891219E+00 0.26163121E+04</pdfrwt>
<pdfrwt beam="2">  1       -1 0.17693897E+00 0.26163121E+04</pdfrwt>
<totfact> 0.28409718E+00</totfact>
</mgrwt>
</event>
<event>
12    6  0.1530720E-007  0.1589168E+04  0.7818608E-02  0.8827231E-01
         -1   -1    0    0    0  501 -0.00000000000E+00  0.00000000000E+00  0.27949998286E+03  0.27949998286E+03  0.00000000000E+00 0.  1.
          2   -1    0    0  501    0  0.00000000000E+00 -0.00000000000E+00 -0.22589032077E+04  0.22589032077E+04  0.00000000000E+00 0. -1.
         24    2    1    2    0    0  0.36777108476E+03 -0.39154759225E+03 -0.56966641460E+03  0.78711760971E+03  0.80431460275E+02 0.  0.
        254    2    1    2    0    0 -0.36777108476E+03  0.39154759225E+03 -0.14097368102E+04  0.17512855808E+04  0.88942578318E+03 0.  0.
         23    2    4    4    0    0 -0.44061028295E+03  0.39156618548E+03 -0.36379156273E+03  0.69887922760E+03  0.92878278446E+02 0.  0.
         23    2    4    4    0    0  0.72839198188E+02 -0.18593227911E-01 -0.10459452475E+04  0.10524063532E+04  0.90841193599E+02 0.  0.
          4    1    3    3  502    0  0.35081657376E+03 -0.35058345540E+03 -0.49795782132E+03  0.70281079918E+03  0.00000000000E+00 0. -1.
         -3    1    3    3    0  502  0.16954510997E+02 -0.40964136853E+02 -0.71708593283E+02  0.84306810531E+02  0.00000000000E+00 0.  1.
         11    1    5    5    0    0 -0.15711972640E+03  0.18098114070E+03 -0.18676856062E+03  0.30384745672E+03  0.00000000000E+00 0.  1.
        -11    1    5    5    0    0 -0.28349055654E+03  0.21058504478E+03 -0.17702300211E+03  0.39503177089E+03  0.00000000000E+00 0. -1.
          1    1    6    6  503    0  0.43798774961E+02  0.44929051098E+02 -0.59347481778E+03  0.59678246594E+03  0.00000000000E+00 0. -1.
         -1    1    6    6    0  503  0.29040423227E+02 -0.44947644325E+02 -0.45247042970E+03  0.45562388728E+03  0.00000000000E+00 0.  1.
<mgrwt>
<rscale>  0 0.15891676E+04</rscale>
<asrwt>0</asrwt>
<pdfrwt beam="1">  1        2 0.34752356E+00 0.15891676E+04</pdfrwt>
<pdfrwt beam="2">  1       -1 0.42999999E-01 0.15891676E+04</pdfrwt>
<totfact> 0.27897006E+01</totfact>
</mgrwt>
</event>
<event>
12    6  0.1530720E-007  0.1460422E+04  0.7818608E-02  0.8911207E-01
          2   -1    0    0  501    0  0.00000000000E+00  0.00000000000E+00  0.43551180308E+03  0.43551180308E+03  0.00000000000E+00 0. -1.
         -1   -1    0    0    0  501 -0.00000000000E+00 -0.00000000000E+00 -0.12243249680E+04  0.12243249680E+04  0.00000000000E+00 0.  1.
         24    2    1    2    0    0 -0.38100359383E+03 -0.24911502401E+03 -0.34568794990E+03  0.57730264524E+03  0.80970067254E+02 0.  0.
        254    2    1    2    0    0  0.38100359383E+03  0.24911502401E+03 -0.44312521505E+03  0.10825341259E+04  0.87652617974E+03 0.  0.
         23    2    4    4    0    0  0.61545585440E+03  0.31829385224E+03 -0.20422773391E+03  0.72818403646E+03  0.91902875728E+02 0.  0.
         23    2    4    4    0    0 -0.23445226057E+03 -0.69178828228E+02 -0.23889748115E+03  0.35435008942E+03  0.93479444881E+02 0.  0.
          4    1    3    3  502    0 -0.57696998482E+02 -0.44346696680E+02 -0.21861351512E+02  0.75983497091E+02  0.00000000000E+00 0. -1.
         -3    1    3    3    0  502 -0.32330659535E+03 -0.20476832733E+03 -0.32382659839E+03  0.50131914815E+03  0.00000000000E+00 0.  1.
         11    1    5    5    0    0  0.55876375539E+03  0.26574561533E+03 -0.15986099982E+03  0.63905649646E+03  0.00000000000E+00 0. -1.
        -11    1    5    5    0    0  0.56692099008E+02  0.52548236914E+02 -0.44366734084E+02  0.89127539997E+02  0.00000000000E+00 0.  1.
          3    1    6    6  503    0 -0.18319146085E+03 -0.79161758645E+02 -0.22408484522E+03  0.30006618140E+03  0.00000000000E+00 0. -1.
         -3    1    6    6    0  503 -0.51260799719E+02  0.99829304167E+01 -0.14812635924E+02  0.54283908026E+02  0.00000000000E+00 0.  1.
<mgrwt>
<rscale>  0 0.14604218E+04</rscale>
<asrwt>0</asrwt>
<pdfrwt beam="1">  1        2 0.67001817E-01 0.14604218E+04</pdfrwt>
<pdfrwt beam="2">  1       -1 0.18835769E+00 0.14604218E+04</pdfrwt>
<totfact> 0.14519853E+01</totfact>
</mgrwt>
</event>
<event>
12    6  0.1530720E-007  0.1510069E+04  0.7818608E-02  0.8877784E-01
          2   -1    0    0  501    0  0.00000000000E+00  0.00000000000E+00  0.13595489730E+04  0.13595489730E+04  0.00000000000E+00 0. -1.
         -1   -1    0    0    0  501 -0.00000000000E+00 -0.00000000000E+00 -0.41931363286E+03  0.41931363286E+03  0.00000000000E+00 0.  1.
         24    2    1    2    0    0  0.20824788879E+03 -0.31058302823E+03 -0.31145656112E+02  0.38347791883E+03  0.79096534244E+02 0.  0.
        254    2    1    2    0    0 -0.20824788879E+03  0.31058302823E+03  0.97138099623E+03  0.13953846870E+04  0.92934836539E+03 0.  0.
         23    2    4    4    0    0 -0.11183108027E+02  0.53208341003E+03  0.93852069317E+03  0.10828010893E+04  0.91647641865E+02 0.  0.
         23    2    4    4    0    0 -0.19706478076E+03 -0.22150038181E+03  0.32860303054E+02  0.31258359773E+03  0.93443882069E+02 0.  0.
          4    1    3    3  502    0  0.19834859216E+02 -0.67121571437E+02 -0.28617456037E+02  0.75615380594E+02  0.00000000000E+00 0. -1.
         -3    1    3    3    0  502  0.18841302957E+03 -0.24346145679E+03 -0.25282000753E+01  0.30786253824E+03  0.00000000000E+00 0.  1.
         11    1    5    5    0    0  0.21670815590E+02  0.53996571120E+02  0.71728916935E+02  0.92359577012E+02  0.00000000000E+00 0. -1.
        -11    1    5    5    0    0 -0.32853923618E+02  0.47808683891E+03  0.86679177624E+03  0.99044151225E+03  0.00000000000E+00 0.  1.
          4    1    6    6  503    0 -0.41491924297E+01 -0.48339678616E+02 -0.10789663130E+02  0.49702687623E+02  0.00000000000E+00 0. -1.
         -4    1    6    6    0  503 -0.19291558833E+03 -0.17316070319E+03  0.43649966184E+02  0.26288091011E+03  0.00000000000E+00 0.  1.
<mgrwt>
<rscale>  0 0.15100694E+04</rscale>
<asrwt>0</asrwt>
<pdfrwt beam="1">  1        2 0.20916138E+00 0.15100694E+04</pdfrwt>
<pdfrwt beam="2">  1       -1 0.64509790E-01 0.15100694E+04</pdfrwt>
<totfact> 0.40935556E+01</totfact>
</mgrwt>
</event>
<event>
12    6  0.1530720E-007  0.1720487E+04  0.7818608E-02  0.8749765E-01
         -1   -1    0    0    0  501 -0.00000000000E+00  0.00000000000E+00  0.14748787692E+04  0.14748787692E+04  0.00000000000E+00 0.  1.
          2   -1    0    0  501    0  0.00000000000E+00 -0.00000000000E+00 -0.50174919209E+03  0.50174919209E+03  0.00000000000E+00 0. -1.
         24    2    1    2    0    0 -0.11223881670E+03  0.58774824980E+03  0.43877031702E+03  0.74638715991E+03  0.80801264020E+02 0.  0.
        254    2    1    2    0    0  0.11223881670E+03 -0.58774824980E+03  0.53435926007E+03  0.12302408014E+04  0.93268807936E+03 0.  0.
         23    2    4    4    0    0  0.34291058586E+02 -0.34815022969E+03  0.78425271389E+03  0.86362300700E+03  0.91694710028E+02 0.  0.
         23    2    4    4    0    0  0.77947758116E+02 -0.23959802011E+03 -0.24989345382E+03  0.36661779435E+03  0.92080424816E+02 0.  0.
          2    1    3    3  502    0 -0.34282504303E+02  0.30860397643E+03  0.18691256233E+03  0.36241966051E+03  0.00000000000E+00 0. -1.
         -1    1    3    3    0  502 -0.77956312399E+02  0.27914427338E+03  0.25185775469E+03  0.38396749940E+03  0.00000000000E+00 0.  1.
         11    1    5    5    0    0  0.50526143019E+02 -0.33939643204E+03  0.74787295378E+03  0.82283460319E+03  0.00000000000E+00 0.  1.
        -11    1    5    5    0    0 -0.16235084433E+02 -0.87537976448E+01  0.36379760114E+02  0.40788403814E+02  0.00000000000E+00 0. -1.
          4    1    6    6  503    0  0.62501042020E+02 -0.57249651742E+02 -0.68886423887E+02  0.10922107065E+03  0.00000000000E+00 0. -1.
         -4    1    6    6    0  503  0.15446716096E+02 -0.18234836837E+03 -0.18100702994E+03  0.25739672370E+03  0.00000000000E+00 0.  1.
<mgrwt>
<rscale>  0 0.17204874E+04</rscale>
<asrwt>0</asrwt>
<pdfrwt beam="1">  1        2 0.77192184E-01 0.17204874E+04</pdfrwt>
<pdfrwt beam="2">  1       -1 0.22690442E+00 0.17204874E+04</pdfrwt>
<totfact> 0.65898963E+00</totfact>
</mgrwt>
</event>
<event>
12    6  0.1530720E-007  0.2987496E+04  0.7818608E-02  0.8247310E-01
          2   -1    0    0  501    0  0.00000000000E+00  0.00000000000E+00  0.36505672635E+04  0.36505672635E+04  0.00000000000E+00 0. -1.
         -1   -1    0    0    0  501 -0.00000000000E+00 -0.00000000000E+00 -0.61121562451E+03  0.61121562451E+03  0.00000000000E+00 0.  1.
         24    2    1    2    0    0 -0.11879622483E+04  0.49865013088E+03  0.77370661829E+03  0.15049448114E+04  0.79565683125E+02 0.  0.
        254    2    1    2    0    0  0.11879622483E+04 -0.49865013088E+03  0.22656450207E+04  0.27568380766E+04  0.89838887143E+03 0.  0.
         23    2    4    4    0    0  0.59238957848E+03  0.10318996063E+03  0.14722382020E+04  0.15929836314E+04  0.92401005679E+02 0.  0.
         23    2    4    4    0    0  0.59557266978E+03 -0.60184009151E+03  0.79340681871E+03  0.11638544452E+04  0.90246821738E+02 0.  0.
          2    1    3    3  502    0 -0.31524916823E+02  0.23703152330E+02  0.13017738588E+02  0.41534579918E+02  0.00000000000E+00 0. -1.
         -1    1    3    3    0  502 -0.11564373314E+04  0.47494697855E+03  0.76068887970E+03  0.14634102315E+04  0.00000000000E+00 0.  1.
         11    1    5    5    0    0  0.58768992753E+03  0.10549783808E+03  0.14191995148E+04  0.15396871460E+04  0.00000000000E+00 0.  1.
        -11    1    5    5    0    0  0.46996509533E+01 -0.23078774479E+01  0.53038687162E+02  0.53296485374E+02  0.00000000000E+00 0. -1.
          1    1    6    6  503    0  0.17722977161E+03 -0.22665016030E+03  0.23294339877E+03  0.37019361710E+03  0.00000000000E+00 0. -1.
         -1    1    6    6    0  503  0.41834289817E+03 -0.37518993122E+03  0.56046341994E+03  0.79366082808E+03  0.00000000000E+00 0.  1.
<mgrwt>
<rscale>  0 0.29874964E+04</rscale>
<asrwt>0</asrwt>
<pdfrwt beam="1">  1        2 0.56162572E+00 0.29874964E+04</pdfrwt>
<pdfrwt beam="2">  1       -1 0.94033175E-01 0.29874964E+04</pdfrwt>
<totfact> 0.67633117E-01</totfact>
</mgrwt>
</event>
<event>
12    6  0.1530720E-007  0.1948846E+04  0.7818608E-02  0.8630917E-01
         -1   -1    0    0    0  501 -0.00000000000E+00  0.00000000000E+00  0.63890137446E+03  0.63890137446E+03  0.00000000000E+00 0.  1.
          2   -1    0    0  501    0  0.00000000000E+00 -0.00000000000E+00 -0.14861458136E+04  0.14861458136E+04  0.00000000000E+00 0. -1.
         24    2    1    2    0    0 -0.50154404556E+03  0.53312827835E+03 -0.57531116874E+03  0.93425016637E+03  0.77898919629E+02 0.  0.
        254    2    1    2    0    0  0.50154404556E+03 -0.53312827835E+03 -0.27193327042E+03  0.11907970217E+04  0.89904263111E+03 0.  0.
         23    2    4    4    0    0  0.75107395770E+03 -0.35475814101E+03 -0.15893730009E+03  0.85084234052E+03  0.93306990705E+02 0.  0.
         23    2    4    4    0    0 -0.24952991214E+03 -0.17837013733E+03 -0.11299597033E+03  0.33995468119E+03  0.93381009892E+02 0.  0.
          4    1    3    3  502    0 -0.35878429879E+03  0.39405851078E+03 -0.37468532820E+03  0.65145788670E+03  0.00000000000E+00 0. -1.
         -3    1    3    3    0  502 -0.14275974677E+03  0.13906976757E+03 -0.20062584054E+03  0.28279227967E+03  0.00000000000E+00 0.  1.
         11    1    5    5    0    0  0.28517900783E+03 -0.89968716508E+02 -0.76398773391E+02  0.30863928627E+03  0.00000000000E+00 0. -1.
        -11    1    5    5    0    0  0.46589494987E+03 -0.26478942451E+03 -0.82538526695E+02  0.54220305425E+03  0.00000000000E+00 0.  1.
          3    1    6    6  503    0 -0.16178141493E+03 -0.16625984832E+03 -0.84800552898E+02  0.24699533832E+03  0.00000000000E+00 0. -1.
         -3    1    6    6    0  503 -0.87748497208E+02 -0.12110289008E+02 -0.28195417434E+02  0.92959342868E+02  0.00000000000E+00 0.  1.
<mgrwt>
<rscale>  0 0.19488464E+04</rscale>
<asrwt>0</asrwt>
<pdfrwt beam="1">  1        2 0.22863781E+00 0.19488464E+04</pdfrwt>
<pdfrwt beam="2">  1       -1 0.98292520E-01 0.19488464E+04</pdfrwt>
<totfact> 0.13620157E+01</totfact>
</mgrwt>
</event>
<event>
12    6  0.1530720E-007  0.2415790E+04  0.7818608E-02  0.8433615E-01
          2   -1    0    0  501    0  0.00000000000E+00  0.00000000000E+00  0.12570973394E+04  0.12570973394E+04  0.00000000000E+00 0. -1.
         -1   -1    0    0    0  501 -0.00000000000E+00 -0.00000000000E+00 -0.11606188928E+04  0.11606188928E+04  0.00000000000E+00 0.  1.
         24    2    1    2    0    0  0.84376529167E+03  0.57085933286E+03  0.23785426112E+03  0.10492289916E+04  0.80539318597E+02 0.  0.
        254    2    1    2    0    0 -0.84376529167E+03 -0.57085933286E+03 -0.14137581457E+03  0.13684872406E+04  0.90274579002E+03 0.  0.
         23    2    4    4    0    0 -0.15634741863E+02 -0.22561598528E+03  0.28152997699E+03  0.37253715632E+03  0.91530251439E+02 0.  0.
         23    2    4    4    0    0 -0.82813054981E+03 -0.34524334758E+03 -0.42290579156E+03  0.99595008428E+03  0.89855913964E+02 0.  0.
          4    1    3    3  502    0  0.64704708122E+03  0.45494888288E+03  0.21550014390E+03  0.81981017520E+03  0.00000000000E+00 0. -1.
         -3    1    3    3    0  502  0.19671821045E+03  0.11591044999E+03  0.22354117219E+02  0.22941881635E+03  0.00000000000E+00 0.  1.
         11    1    5    5    0    0 -0.14843562389E+02 -0.22988703308E+02  0.22008127254E+01  0.27452784938E+02  0.00000000000E+00 0. -1.
        -11    1    5    5    0    0 -0.79117947476E+00 -0.20262728197E+03  0.27932916426E+03  0.34508437138E+03  0.00000000000E+00 0.  1.
          2    1    6    6  503    0 -0.43680851430E+03 -0.22996491539E+03 -0.23924288334E+03  0.54856421475E+03  0.00000000000E+00 0. -1.
         -2    1    6    6    0  503 -0.39132203551E+03 -0.11527843219E+03 -0.18366290822E+03  0.44738586953E+03  0.00000000000E+00 0.  1.
<mgrwt>
<rscale>  0 0.24157905E+04</rscale>
<asrwt>0</asrwt>
<pdfrwt beam="1">  1        2 0.19339959E+00 0.24157905E+04</pdfrwt>
<pdfrwt beam="2">  1       -1 0.17855675E+00 0.24157905E+04</pdfrwt>
<totfact> 0.38217784E+00</totfact>
</mgrwt>
</event>
<event>
12    6  0.1530720E-007  0.1671443E+04  0.7818608E-02  0.8777821E-01
          2   -1    0    0  501    0  0.00000000000E+00  0.00000000000E+00  0.20957096988E+04  0.20957096988E+04  0.00000000000E+00 0. -1.
         -1   -1    0    0    0  501 -0.00000000000E+00 -0.00000000000E+00 -0.33326680886E+03  0.33326680886E+03  0.00000000000E+00 0.  1.
         24    2    1    2    0    0  0.40419914974E+03 -0.39313765583E+03  0.57581443726E+03  0.80984257591E+03  0.79677867207E+02 0.  0.
        254    2    1    2    0    0 -0.40419914974E+03  0.39313765583E+03  0.11866284527E+04  0.16191339318E+04  0.94634741779E+03 0.  0.
         23    2    4    4    0    0 -0.13350268306E+02  0.61206919192E+03  0.84857239915E+03  0.10505447605E+04  0.93606900841E+02 0.  0.
         23    2    4    4    0    0 -0.39084888143E+03 -0.21893153608E+03  0.33805605356E+03  0.56858917126E+03  0.91202438125E+02 0.  0.
          2    1    3    3  502    0  0.23972530540E+03 -0.18363791636E+03  0.33133866537E+03  0.44830393434E+03  0.00000000000E+00 0. -1.
         -1    1    3    3    0  502  0.16447384434E+03 -0.20949973948E+03  0.24447577189E+03  0.36153864158E+03  0.00000000000E+00 0.  1.
         11    1    5    5    0    0 -0.47172592663E+02  0.42924039871E+03  0.55796458401E+03  0.70554734100E+03  0.00000000000E+00 0.  1.
        -11    1    5    5    0    0  0.33822324357E+02  0.18282879321E+03  0.29060781513E+03  0.34499741951E+03  0.00000000000E+00 0. -1.
          1    1    6    6  503    0 -0.13057452315E+03 -0.49684619262E+02  0.60868034665E+02  0.15239155203E+03  0.00000000000E+00 0. -1.
         -1    1    6    6    0  503 -0.26027435828E+03 -0.16924691682E+03  0.27718801890E+03  0.41619761923E+03  0.00000000000E+00 0.  1.
<mgrwt>
<rscale>  0 0.16714431E+04</rscale>
<asrwt>0</asrwt>
<pdfrwt beam="1">  1        2 0.32241687E+00 0.16714431E+04</pdfrwt>
<pdfrwt beam="2">  1       -1 0.51271818E-01 0.16714431E+04</pdfrwt>
<totfact> 0.24559141E+01</totfact>
</mgrwt>
</event>
<event>
12    6  0.1530720E-007  0.2059007E+04  0.7818608E-02  0.8579519E-01
         -1   -1    0    0    0  501 -0.00000000000E+00  0.00000000000E+00  0.50251652873E+03  0.50251652873E+03  0.00000000000E+00 0.  1.
          2   -1    0    0  501    0  0.00000000000E+00 -0.00000000000E+00 -0.21091388262E+04  0.21091388262E+04  0.00000000000E+00 0. -1.
         24    2    1    2    0    0 -0.62740775304E+03 -0.23373855788E+03 -0.12705582548E+04  0.14385787442E+04  0.83164430569E+02 0.  0.
        254    2    1    2    0    0  0.62740775304E+03  0.23373855788E+03 -0.33606404265E+03  0.11730766107E+04  0.90271562064E+03 0.  0.
         23    2    4    4    0    0  0.76356286657E+03  0.48563790772E+02 -0.19310159714E+02  0.77092973586E+03  0.92590941114E+02 0.  0.
         23    2    4    4    0    0 -0.13615511353E+03  0.18517476711E+03 -0.31675388294E+03  0.40214687482E+03  0.92526630002E+02 0.  0.
          2    1    3    3  502    0 -0.53133023243E+03 -0.17097595737E+03 -0.10907844421E+04  0.12252980425E+04  0.00000000000E+00 0. -1.
         -1    1    3    3    0  502 -0.96077520609E+02 -0.62762600511E+02 -0.17977381274E+03  0.21328070174E+03  0.00000000000E+00 0.  1.
         11    1    5    5    0    0  0.13806273469E+03 -0.17056625562E+02  0.21084255044E+02  0.14070107674E+03  0.00000000000E+00 0. -1.
        -11    1    5    5    0    0  0.62550013188E+03  0.65620416334E+02 -0.40394414758E+02  0.63022865912E+03  0.00000000000E+00 0.  1.
          1    1    6    6  503    0  0.64147385628E+01  0.51231259762E+02 -0.77098386476E+02  0.92789827270E+02  0.00000000000E+00 0. -1.
         -1    1    6    6    0  503 -0.14256985209E+03  0.13394350735E+03 -0.23965549646E+03  0.30935704755E+03  0.00000000000E+00 0.  1.
<mgrwt>
<rscale>  0 0.20590067E+04</rscale>
<asrwt>0</asrwt>
<pdfrwt beam="1">  1        2 0.32448289E+00 0.20590067E+04</pdfrwt>
<pdfrwt beam="2">  1       -1 0.77310236E-01 0.20590067E+04</pdfrwt>
<totfact> 0.10252378E+01</totfact>
</mgrwt>
</event>
<event>
12    6  0.1530720E-007  0.1934231E+04  0.7818608E-02  0.8638003E-01
         -3   -1    0    0    0  501 -0.00000000000E+00  0.00000000000E+00  0.31134057148E+03  0.31134057148E+03  0.00000000000E+00 0.  1.
          2   -1    0    0  501    0  0.00000000000E+00 -0.00000000000E+00 -0.30041449453E+04  0.30041449453E+04  0.00000000000E+00 0. -1.
         24    2    1    2    0    0  0.15254387852E+03 -0.28873209443E+03 -0.22328861191E+04  0.22580417770E+04  0.79601436146E+02 0.  0.
        254    2    1    2    0    0 -0.15254387852E+03  0.28873209443E+03 -0.45991825475E+03  0.10574437398E+04  0.89444206327E+03 0.  0.
         23    2    4    4    0    0 -0.22080378590E+03 -0.18412734319E+03 -0.48228350072E+03  0.57066357219E+03  0.10199189761E+03 0.  0.
         23    2    4    4    0    0  0.68259907380E+02  0.47285943762E+03  0.22365245970E+02  0.48678016760E+03  0.90549790949E+02 0.  0.
          4    1    3    3  502    0  0.14495984096E+03 -0.22655108012E+03 -0.19381152841E+04  0.19566884274E+04  0.00000000000E+00 0. -1.
         -3    1    3    3    0  502  0.75840375565E+01 -0.62181014304E+02 -0.29477083501E+03  0.30135334964E+03  0.00000000000E+00 0.  1.
         11    1    5    5    0    0 -0.22205143657E+03 -0.19384959428E+03 -0.46024611700E+03  0.54654459461E+03  0.00000000000E+00 0. -1.
        -11    1    5    5    0    0  0.12476506698E+01  0.97222510822E+01 -0.22037383720E+02  0.24118977580E+02  0.00000000000E+00 0.  1.
          4    1    6    6  503    0  0.33043955731E+02  0.16302865250E+03  0.50096868573E+02  0.17372374848E+03  0.00000000000E+00 0.  1.
         -4    1    6    6    0  503  0.35215951649E+02  0.30983078512E+03 -0.27731622603E+02  0.31305641912E+03  0.00000000000E+00 0. -1.
<mgrwt>
<rscale>  0 0.19342308E+04</rscale>
<asrwt>0</asrwt>
<pdfrwt beam="1">  1        2 0.46217616E+00 0.19342308E+04</pdfrwt>
<pdfrwt beam="2">  1       -3 0.47898548E-01 0.19342308E+04</pdfrwt>
<totfact> 0.45333670E+00</totfact>
</mgrwt>
</event>
<event>
12    6  0.1530720E-007  0.1092885E+04  0.7818608E-02  0.9212155E-01
          2   -1    0    0  501    0  0.00000000000E+00  0.00000000000E+00  0.16297848991E+04  0.16297848991E+04  0.00000000000E+00 0. -1.
         -1   -1    0    0    0  501 -0.00000000000E+00 -0.00000000000E+00 -0.18321391345E+03  0.18321391345E+03  0.00000000000E+00 0.  1.
         24    2    1    2    0    0 -0.97084654921E+02 -0.65258082650E+01  0.31211664090E+02  0.13158663277E+03  0.82902699322E+02 0.  0.
        254    2    1    2    0    0  0.97084654921E+02  0.65258082650E+01  0.14153593215E+04  0.16814121797E+04  0.90246157411E+03 0.  0.
         23    2    4    4    0    0 -0.28678938911E+03  0.16367128876E+02  0.12167109542E+03  0.32822278554E+03  0.10203090156E+03 0.  0.
         23    2    4    4    0    0  0.38387404403E+03 -0.98413206105E+01  0.12936882261E+04  0.13531893942E+04  0.10018072146E+03 0.  0.
          4    1    3    3  502    0 -0.15937078836E+01 -0.12528789725E+02  0.33581381582E+02  0.35877843661E+02  0.00000000000E+00 0. -1.
         -3    1    3    3    0  502 -0.95490947037E+02  0.60029814601E+01 -0.23697174920E+01  0.95708789113E+02  0.00000000000E+00 0.  1.
         11    1    5    5    0    0 -0.25204083670E+03  0.44576546913E+02  0.83001751636E+02  0.26907423264E+03  0.00000000000E+00 0. -1.
        -11    1    5    5    0    0 -0.34748552410E+02 -0.28209418037E+02  0.38669343786E+02  0.59148552894E+02  0.00000000000E+00 0.  1.
          3    1    6    6  503    0  0.29138223420E+03 -0.46142282388E+02  0.10294520663E+04  0.10708894777E+04  0.00000000000E+00 0. -1.
         -3    1    6    6    0  503  0.92491809822E+02  0.36300961778E+02  0.26423615977E+03  0.28229991647E+03  0.00000000000E+00 0.  1.
<mgrwt>
<rscale>  0 0.10928848E+04</rscale>
<asrwt>0</asrwt>
<pdfrwt beam="1">  1        2 0.25073613E+00 0.10928848E+04</pdfrwt>
<pdfrwt beam="2">  1       -1 0.28186757E-01 0.10928848E+04</pdfrwt>
<totfact> 0.13817710E+02</totfact>
</mgrwt>
</event>
<event>
12    6  0.1530720E-007  0.1424867E+04  0.7818608E-02  0.8936012E-01
          2   -1    0    0  501    0  0.00000000000E+00  0.00000000000E+00  0.11117896476E+04  0.11117896476E+04  0.00000000000E+00 0. -1.
         -1   -1    0    0    0  501 -0.00000000000E+00 -0.00000000000E+00 -0.45652676901E+03  0.45652676901E+03  0.00000000000E+00 0.  1.
         24    2    1    2    0    0  0.36107334728E+03  0.22862854384E+03  0.20827709502E+03  0.48223541487E+03  0.80787832427E+02 0.  0.
        254    2    1    2    0    0 -0.36107334728E+03 -0.22862854384E+03  0.44698578354E+03  0.10860810017E+04  0.89282175064E+03 0.  0.
         23    2    4    4    0    0 -0.40398053140E+03 -0.38065681750E+03 -0.42650044186E+02  0.56398356366E+03  0.90324699532E+02 0.  0.
         23    2    4    4    0    0  0.42907184112E+02  0.15202827367E+03  0.48963582772E+03  0.52209743805E+03  0.88819303030E+02 0.  0.
          2    1    3    3  502    0  0.37814889649E+02  0.41823811640E+01  0.36901059284E+02  0.53001380809E+02  0.00000000000E+00 0. -1.
         -1    1    3    3    0  502  0.32325845764E+03  0.22444616267E+03  0.17137603574E+03  0.42923403406E+03  0.00000000000E+00 0.  1.
         11    1    5    5    0    0 -0.23386137194E+03 -0.16465422705E+03 -0.41678538419E+02  0.28903158363E+03  0.00000000000E+00 0. -1.
        -11    1    5    5    0    0 -0.17011915946E+03 -0.21600259045E+03 -0.97150576619E+00  0.27495198002E+03  0.00000000000E+00 0.  1.
          2    1    6    6  503    0 -0.24909759719E+02  0.17225635158E+02  0.77867324971E+02  0.83549619592E+02  0.00000000000E+00 0. -1.
         -2    1    6    6    0  503  0.67816943831E+02  0.13480263851E+03  0.41176850275E+03  0.43854781846E+03  0.00000000000E+00 0.  1.
<mgrwt>
<rscale>  0 0.14248673E+04</rscale>
<asrwt>0</asrwt>
<pdfrwt beam="1">  1        2 0.17104456E+00 0.14248673E+04</pdfrwt>
<pdfrwt beam="2">  1       -1 0.70234888E-01 0.14248673E+04</pdfrwt>
<totfact> 0.48649671E+01</totfact>
</mgrwt>
</event>
<event>
12    6  0.1530720E-007  0.4700509E+04  0.7818608E-02  0.7876444E-01
         -1   -1    0    0    0  501 -0.00000000000E+00  0.00000000000E+00  0.22698263209E+04  0.22698263209E+04  0.00000000000E+00 0.  1.
          2   -1    0    0  501    0  0.00000000000E+00 -0.00000000000E+00 -0.24335326422E+04  0.24335326422E+04  0.00000000000E+00 0. -1.
         24    2    1    2    0    0  0.19685611215E+04  0.10392524911E+04  0.32889816483E+03  0.22516565491E+04  0.80650995414E+02 0.  0.
        254    2    1    2    0    0 -0.19685611215E+04 -0.10392524911E+04 -0.49260448609E+03  0.24517024140E+04  0.90161350819E+03 0.  0.
         23    2    4    4    0    0  0.40771919026E+01  0.86177840735E+02 -0.30530478673E+02  0.13229465817E+03  0.95532835849E+02 0.  0.
         23    2    4    4    0    0 -0.19726383134E+04 -0.11254303318E+04 -0.46207400741E+03  0.23194077559E+04  0.90799793625E+02 0.  0.
          2    1    3    3  502    0  0.81030527267E+03  0.40364622031E+03  0.10002026138E+03  0.91078480377E+03  0.00000000000E+00 0. -1.
         -3    1    3    3    0  502  0.11582558488E+04  0.63560627079E+03  0.22887790344E+03  0.13408717453E+04  0.00000000000E+00 0.  1.
         11    1    5    5    0    0 -0.98614031431E+01  0.92692999337E+02 -0.51336607810E+02  0.10641751124E+03  0.00000000000E+00 0. -1.
        -11    1    5    5    0    0  0.13938595046E+02 -0.65151586021E+01  0.20806129137E+02  0.25877146928E+02  0.00000000000E+00 0.  1.
          4    1    6    6  503    0 -0.77003272803E+03 -0.49027618735E+03 -0.19040062812E+03  0.93250927143E+03  0.00000000000E+00 0. -1.
         -4    1    6    6    0  503 -0.12026055853E+04 -0.63515414448E+03 -0.27167337930E+03  0.13868984844E+04  0.00000000000E+00 0.  1.
<mgrwt>
<rscale>  0 0.47005091E+04</rscale>
<asrwt>0</asrwt>
<pdfrwt beam="1">  1        2 0.37438963E+00 0.47005091E+04</pdfrwt>
<pdfrwt beam="2">  1       -1 0.34920405E+00 0.47005091E+04</pdfrwt>
<totfact> 0.50724044E-02</totfact>
</mgrwt>
</event>
<event>
12    6  0.1530720E-007  0.1502054E+04  0.7818608E-02  0.8883088E-01
          2   -1    0    0  501    0  0.00000000000E+00  0.00000000000E+00  0.13822449721E+04  0.13822449721E+04  0.00000000000E+00 0. -1.
         -1   -1    0    0    0  501 -0.00000000000E+00 -0.00000000000E+00 -0.40806186384E+03  0.40806186384E+03  0.00000000000E+00 0.  1.
         24    2    1    2    0    0 -0.48823504191E+01 -0.40625858469E+03 -0.52468525257E+01  0.41409683808E+03  0.79867307845E+02 0.  0.
        254    2    1    2    0    0  0.48823504191E+01  0.40625858469E+03  0.97942996077E+03  0.13762099978E+04  0.87726907796E+03 0.  0.
         23    2    4    4    0    0  0.39017235858E+02  0.57113419412E+03  0.26681703732E+03  0.63800444451E+03  0.90231521273E+02 0.  0.
         23    2    4    4    0    0 -0.34134885439E+02 -0.16487560942E+03  0.71261292346E+03  0.73820555334E+03  0.93707541383E+02 0.  0.
          2    1    3    3  502    0  0.16999595367E+02 -0.35450337087E+02 -0.16101487558E+02  0.42484944907E+02  0.00000000000E+00 0. -1.
         -1    1    3    3    0  502 -0.21881945786E+02 -0.37080824761E+03  0.10854635032E+02  0.37161189317E+03  0.00000000000E+00 0.  1.
         11    1    5    5    0    0  0.13253129881E+02  0.43319963391E+03  0.16132725817E+03  0.46245437883E+03  0.00000000000E+00 0. -1.
        -11    1    5    5    0    0  0.25764105977E+02  0.13793456021E+03  0.10548977915E+03  0.17555006568E+03  0.00000000000E+00 0.  1.
          2    1    6    6  503    0  0.42043184050E+01 -0.58564778621E+02  0.10618793469E+03  0.12133996481E+03  0.00000000000E+00 0.  1.
         -2    1    6    6    0  503 -0.38339203844E+02 -0.10631083080E+03  0.60642498877E+03  0.61686558852E+03  0.00000000000E+00 0. -1.
<mgrwt>
<rscale>  0 0.15020539E+04</rscale>
<asrwt>0</asrwt>
<pdfrwt beam="1">  1        2 0.21265307E+00 0.15020539E+04</pdfrwt>
<pdfrwt beam="2">  1       -1 0.62778749E-01 0.15020539E+04</pdfrwt>
<totfact> 0.41976322E+01</totfact>
</mgrwt>
</event>
<event>
12    6  0.1530720E-007  0.1067809E+04  0.7818608E-02  0.9237148E-01
         -1   -1    0    0    0  501 -0.00000000000E+00  0.00000000000E+00  0.56785469810E+03  0.56785469810E+03  0.00000000000E+00 0.  1.
          2   -1    0    0  501    0  0.00000000000E+00 -0.00000000000E+00 -0.50198408331E+03  0.50198408331E+03  0.00000000000E+00 0. -1.
         24    2    1    2    0    0  0.28895544200E+01 -0.13336506345E+03 -0.31417276218E+02  0.15805377905E+03  0.78736028307E+02 0.  0.
        254    2    1    2    0    0 -0.28895544200E+01  0.13336506345E+03  0.97287891013E+02  0.91178500236E+03  0.89671197556E+03 0.  0.
         23    2    4    4    0    0  0.31950336594E+03  0.14160359883E+03 -0.24147793176E+03  0.43527304852E+03  0.94958176037E+02 0.  0.
         23    2    4    4    0    0 -0.32239292036E+03 -0.82385353824E+01  0.33876582277E+03  0.47651195384E+03  0.91083977240E+02 0.  0.
          2    1    3    3  502    0  0.17465629427E+02 -0.42953739805E+02 -0.46007031226E+02  0.65320126276E+02  0.00000000000E+00 0. -1.
         -1    1    3    3    0  502 -0.14576075007E+02 -0.90411323643E+02  0.14589755008E+02  0.92733652773E+02  0.00000000000E+00 0.  1.
         11    1    5    5    0    0  0.24137350038E+02  0.43544595560E+02 -0.21898435191E+02  0.54390117974E+02  0.00000000000E+00 0. -1.
        -11    1    5    5    0    0  0.29536601590E+03  0.98059003270E+02 -0.21957949657E+03  0.38088293055E+03  0.00000000000E+00 0.  1.
          3    1    6    6  503    0 -0.74314745360E+02  0.25729728486E+02  0.12293492659E+03  0.14593730326E+03  0.00000000000E+00 0. -1.
         -3    1    6    6    0  503 -0.24807817500E+03 -0.33968263869E+02  0.21583089618E+03  0.33057465058E+03  0.00000000000E+00 0.  1.
<mgrwt>
<rscale>  0 0.10678090E+04</rscale>
<asrwt>0</asrwt>
<pdfrwt beam="1">  1        2 0.77228320E-01 0.10678090E+04</pdfrwt>
<pdfrwt beam="2">  1       -1 0.87362262E-01 0.10678090E+04</pdfrwt>
<totfact> 0.89978006E+01</totfact>
</mgrwt>
</event>
<event>
12    6  0.1530720E-007  0.1327351E+04  0.7818608E-02  0.9008153E-01
          2   -1    0    0  501    0  0.00000000000E+00  0.00000000000E+00  0.12087335491E+04  0.12087335491E+04  0.00000000000E+00 0. -1.
         -1   -1    0    0    0  501 -0.00000000000E+00 -0.00000000000E+00 -0.36440213200E+03  0.36440213200E+03  0.00000000000E+00 0.  1.
         24    2    1    2    0    0  0.13297251053E+03  0.28191973602E+03  0.40489589003E+03  0.51711177196E+03  0.79394438245E+02 0.  0.
        254    2    1    2    0    0 -0.13297251053E+03 -0.28191973602E+03  0.43943552703E+03  0.10560239091E+04  0.90825243629E+03 0.  0.
         23    2    4    4    0    0  0.66580393030E+01  0.13047999351E+03 -0.21307098465E+03  0.26659266562E+03  0.92752610030E+02 0.  0.
         23    2    4    4    0    0 -0.13963054983E+03 -0.41239972954E+03  0.65250651168E+03  0.78943124347E+03  0.88694492572E+02 0.  0.
          4    1    3    3  502    0  0.41471641998E+02  0.11910785384E+03  0.22422638335E+03  0.25726260693E+03  0.00000000000E+00 0. -1.
         -3    1    3    3    0  502  0.91500868533E+02  0.16281188219E+03  0.18066950668E+03  0.25984916503E+03  0.00000000000E+00 0.  1.
         11    1    5    5    0    0 -0.22335131659E+02  0.85098610339E+02 -0.18720908138E+03  0.20685229449E+03  0.00000000000E+00 0. -1.
        -11    1    5    5    0    0  0.28993170962E+02  0.45381383171E+02 -0.25861903274E+02  0.59740371123E+02  0.00000000000E+00 0.  1.
          3    1    6    6  503    0 -0.13176232270E+03 -0.35749358920E+03  0.61137948865E+03  0.72038035449E+03  0.00000000000E+00 0. -1.
         -3    1    6    6    0  503 -0.78682271356E+01 -0.54906140337E+02  0.41127023036E+02  0.69050888979E+02  0.00000000000E+00 0.  1.
<mgrwt>
<rscale>  0 0.13273509E+04</rscale>
<asrwt>0</asrwt>
<pdfrwt beam="1">  1        2 0.18595901E+00 0.13273509E+04</pdfrwt>
<pdfrwt beam="2">  1       -1 0.56061867E-01 0.13273509E+04</pdfrwt>
<totfact> 0.67186260E+01</totfact>
</mgrwt>
</event>
<event>
12    6  0.1530720E-007  0.2473424E+04  0.7818608E-02  0.8412515E-01
          2   -1    0    0  501    0  0.00000000000E+00  0.00000000000E+00  0.93250430656E+03  0.93250430656E+03  0.00000000000E+00 0. -1.
         -1   -1    0    0    0  501 -0.00000000000E+00 -0.00000000000E+00 -0.16401597352E+04  0.16401597352E+04  0.00000000000E+00 0.  1.
         24    2    1    2    0    0 -0.97620114879E+02  0.94047143491E+03  0.22732530686E+03  0.97530656736E+03  0.74363287302E+02 0.  0.
        254    2    1    2    0    0  0.97620114879E+02 -0.94047143491E+03 -0.93498073552E+03  0.15973574744E+04  0.88506819995E+03 0.  0.
         23    2    4    4    0    0  0.16648312876E+03 -0.10381620823E+04 -0.98063661987E+03  0.14407133355E+04  0.92247458953E+02 0.  0.
         23    2    4    4    0    0 -0.68863013877E+02  0.97690647391E+02  0.45655884356E+02  0.15664413887E+03  0.90373387665E+02 0.  0.
          4    1    3    3  502    0 -0.31749939312E+02  0.27159436850E+03  0.10053236731E+03  0.29133883456E+03  0.00000000000E+00 0. -1.
         -3    1    3    3    0  502 -0.65870175568E+02  0.66887706640E+03  0.12679293955E+03  0.68396773280E+03  0.00000000000E+00 0.  1.
         11    1    5    5    0    0  0.19873252620E+02 -0.27697720289E+03 -0.30435028351E+03  0.41199564580E+03  0.00000000000E+00 0.  1.
        -11    1    5    5    0    0  0.14660987614E+03 -0.76118487940E+03 -0.67628633637E+03  0.10287176897E+04  0.00000000000E+00 0. -1.
          3    1    6    6  503    0 -0.67134201428E+02  0.84376353016E+02 -0.12722864533E+01  0.10783315196E+03  0.00000000000E+00 0. -1.
         -3    1    6    6    0  503 -0.17288124485E+01  0.13314294375E+02  0.46928170810E+02  0.48810986906E+02  0.00000000000E+00 0.  1.
<mgrwt>
<rscale>  0 0.24734236E+04</rscale>
<asrwt>0</asrwt>
<pdfrwt beam="1">  1        2 0.14346220E+00 0.24734236E+04</pdfrwt>
<pdfrwt beam="2">  1       -1 0.25233227E+00 0.24734236E+04</pdfrwt>
<totfact> 0.19130397E+00</totfact>
</mgrwt>
</event>
<event>
12    6  0.1530720E-007  0.1868428E+04  0.7818608E-02  0.8670733E-01
         -1   -1    0    0    0  501 -0.00000000000E+00  0.00000000000E+00  0.93617572504E+03  0.93617572504E+03  0.00000000000E+00 0.  1.
          2   -1    0    0  501    0  0.00000000000E+00 -0.00000000000E+00 -0.93225666767E+03  0.93225666767E+03  0.00000000000E+00 0. -1.
         24    2    1    2    0    0  0.52971092881E+03 -0.44487208618E+03  0.25109427722E+03  0.73763733204E+03  0.50553500348E+02 0.  0.
        254    2    1    2    0    0 -0.52971092881E+03  0.44487208618E+03 -0.24717521985E+03  0.11307950607E+04  0.85970753095E+03 0.  0.
         23    2    4    4    0    0 -0.44685544663E+03  0.35651759902E+02 -0.46411718128E+03  0.65147705364E+03  0.89815117312E+02 0.  0.
         23    2    4    4    0    0 -0.82855482177E+02  0.40922032628E+03  0.21694196143E+03  0.47931800703E+03  0.91409139928E+02 0.  0.
          4    1    3    3  502    0  0.13783288473E+03 -0.14136268003E+03  0.59204869707E+02  0.20612260433E+03  0.00000000000E+00 0. -1.
         -3    1    3    3    0  502  0.39187804408E+03 -0.30350940615E+03  0.19188940751E+03  0.53151472771E+03  0.00000000000E+00 0.  1.
         11    1    5    5    0    0 -0.12081218595E+03 -0.11090671021E+02 -0.79261477350E+02  0.14491711096E+03  0.00000000000E+00 0.  1.
        -11    1    5    5    0    0 -0.32604326069E+03  0.46742430923E+02 -0.38485570393E+03  0.50655994269E+03  0.00000000000E+00 0. -1.
          4    1    6    6  503    0 -0.32486643719E+02  0.33967406469E+03  0.16580655842E+03  0.37937536433E+03  0.00000000000E+00 0. -1.
         -4    1    6    6    0  503 -0.50368838458E+02  0.69546261595E+02  0.51135403009E+02  0.99942642702E+02  0.00000000000E+00 0.  1.
<mgrwt>
<rscale>  0 0.18684283E+04</rscale>
<asrwt>0</asrwt>
<pdfrwt beam="1">  1        2 0.14342410E+00 0.18684283E+04</pdfrwt>
<pdfrwt beam="2">  1       -1 0.14402704E+00 0.18684283E+04</pdfrwt>
<totfact> 0.11625227E+01</totfact>
</mgrwt>
</event>
<event>
12    6  0.1530720E-007  0.2201934E+04  0.7818608E-02  0.8517624E-01
         -1   -1    0    0    0  501 -0.00000000000E+00  0.00000000000E+00  0.15801654787E+04  0.15801654787E+04  0.00000000000E+00 0.  1.
          2   -1    0    0  501    0  0.00000000000E+00 -0.00000000000E+00 -0.76708918333E+03  0.76708918333E+03  0.00000000000E+00 0. -1.
         24    2    1    2    0    0  0.82898445294E+03  0.14096433938E+03  0.71444904129E+03  0.11062154295E+04  0.78670042991E+02 0.  0.
        254    2    1    2    0    0 -0.82898445294E+03 -0.14096433938E+03  0.98627254119E+02  0.12410392326E+04  0.90739455219E+03 0.  0.
         23    2    4    4    0    0 -0.68168131193E+03 -0.23488464472E+02 -0.32963817566E+03  0.76341093970E+03  0.94307035786E+02 0.  0.
         23    2    4    4    0    0 -0.14730314100E+03 -0.11747587491E+03  0.42826542978E+03  0.47762829287E+03  0.96014120183E+02 0.  0.
          2    1    3    3  502    0  0.19054434021E+03  0.85572237778E+01  0.13234199791E+03  0.23215248453E+03  0.00000000000E+00 0. -1.
         -1    1    3    3    0  502  0.63844011273E+03  0.13240711561E+03  0.58210704338E+03  0.87406294497E+03  0.00000000000E+00 0.  1.
         11    1    5    5    0    0 -0.18127035847E+03 -0.48082303931E+02 -0.87152439555E+02  0.20680038330E+03  0.00000000000E+00 0.  1.
        -11    1    5    5    0    0 -0.50041095347E+03  0.24593839459E+02 -0.24248573611E+03  0.55661055641E+03  0.00000000000E+00 0. -1.
          1    1    6    6  503    0 -0.72467610351E+00 -0.49708375349E+02  0.90934515988E+02  0.10363654729E+03  0.00000000000E+00 0. -1.
         -1    1    6    6    0  503 -0.14657846490E+03 -0.67767499563E+02  0.33733091379E+03  0.37399174559E+03  0.00000000000E+00 0.  1.
<mgrwt>
<rscale>  0 0.22019336E+04</rscale>
<asrwt>0</asrwt>
<pdfrwt beam="1">  1        2 0.11801372E+00 0.22019336E+04</pdfrwt>
<pdfrwt beam="2">  1       -1 0.24310238E+00 0.22019336E+04</pdfrwt>
<totfact> 0.29372719E+00</totfact>
</mgrwt>
</event>
<event>
12    6  0.2139854E-007  0.2929280E+04  0.7818608E-02  0.8264219E-01
          2   -1    0    0  501    0  0.00000000000E+00  0.00000000000E+00  0.19813773919E+04  0.19813773919E+04  0.00000000000E+00 0. -1.
         -1   -1    0    0    0  501 -0.00000000000E+00 -0.00000000000E+00 -0.10826664700E+04  0.10826664700E+04  0.00000000000E+00 0.  1.
         24    2    1    2    0    0 -0.54066311236E+03 -0.53638752490E+03 -0.71012510697E+03  0.10440962417E+04  0.76361747373E+02 0.  0.
        254    2    1    2    0    0  0.54066311236E+03  0.53638752490E+03  0.16088360288E+04  0.20199476202E+04  0.95488577473E+03 0.  0.
         23    2    4    4    0    0  0.11275597434E+03  0.12406610441E+01  0.12162268594E+04  0.12249875583E+04  0.93119791276E+02 0.  0.
         23    2    4    4    0    0  0.42790713801E+03  0.53514686386E+03  0.39260916948E+03  0.79496006193E+03  0.91284475399E+02 0.  0.
          2    1    3    3  502    0 -0.51070208563E+01 -0.27216973446E+01 -0.18622720655E+02  0.19501154404E+02  0.00000000000E+00 0. -1.
         -1    1    3    3    0  502 -0.53555609150E+03 -0.53366582755E+03 -0.69150238631E+03  0.10245950873E+04  0.00000000000E+00 0.  1.
         11    1    5    5    0    0  0.10557568058E+03  0.86403652701E+01  0.12053670836E+04  0.12100126803E+04  0.00000000000E+00 0. -1.
        -11    1    5    5    0    0  0.71802937618E+01 -0.73997042259E+01  0.10859775747E+02  0.14974877976E+02  0.00000000000E+00 0.  1.
          1    1    6    6  503    0  0.19331651290E+03  0.27367134621E+03  0.14452205336E+03  0.36490259495E+03  0.00000000000E+00 0. -1.
         -1    1    6    6    0  503  0.23459062511E+03  0.26147551765E+03  0.24808711612E+03  0.43005746697E+03  0.00000000000E+00 0.  1.
<mgrwt>
<rscale>  0 0.29292804E+04</rscale>
<asrwt>0</asrwt>
<pdfrwt beam="1">  1        2 0.30482729E+00 0.29292804E+04</pdfrwt>
<pdfrwt beam="2">  1       -1 0.16656407E+00 0.29292804E+04</pdfrwt>
<totfact> 0.17485163E+00</totfact>
</mgrwt>
</event>
<event>
12    6  0.1530720E-007  0.1849173E+04  0.7818608E-02  0.8680578E-01
         -1   -1    0    0    0  501 -0.00000000000E+00  0.00000000000E+00  0.83132100048E+03  0.83132100048E+03  0.00000000000E+00 0.  1.
          2   -1    0    0  501    0  0.00000000000E+00 -0.00000000000E+00 -0.10283151905E+04  0.10283151905E+04  0.00000000000E+00 0. -1.
         24    2    1    2    0    0 -0.56171994740E+03  0.12050088223E+03 -0.48378722169E+03  0.75541294073E+03  0.80925108708E+02 0.  0.
        254    2    1    2    0    0  0.56171994740E+03 -0.12050088223E+03  0.28679303165E+03  0.11042232503E+04  0.89833678625E+03 0.  0.
         23    2    4    4    0    0 -0.61345149466E+02 -0.27012035668E+03 -0.14610400744E+03  0.32587700930E+03  0.90117754881E+02 0.  0.
         23    2    4    4    0    0  0.62306509687E+03  0.14961947445E+03  0.43289703909E+03  0.77834624098E+03  0.88469894977E+02 0.  0.
          4    1    3    3  502    0 -0.37507633316E+03  0.92083145963E+02 -0.37074598550E+03  0.53536356547E+03  0.00000000000E+00 0. -1.
         -3    1    3    3    0  502 -0.18664361424E+03  0.28417736268E+02 -0.11304123619E+03  0.22004937526E+03  0.00000000000E+00 0.  1.
         11    1    5    5    0    0 -0.16960449580E+02 -0.39023958616E+02 -0.63583513901E+02  0.76507446932E+02  0.00000000000E+00 0. -1.
        -11    1    5    5    0    0 -0.44384699886E+02 -0.23109639807E+03 -0.82520493539E+02  0.24936956237E+03  0.00000000000E+00 0.  1.
          1    1    6    6  503    0  0.87670244879E+02  0.85243913078E+01  0.95734485555E+02  0.13009161698E+03  0.00000000000E+00 0. -1.
         -1    1    6    6    0  503  0.53539485199E+03  0.14109508314E+03  0.33716255354E+03  0.64825462400E+03  0.00000000000E+00 0.  1.
<mgrwt>
<rscale>  0 0.18491728E+04</rscale>
<asrwt>0</asrwt>
<pdfrwt beam="1">  1        2 0.15820234E+00 0.18491728E+04</pdfrwt>
<pdfrwt beam="2">  1       -1 0.12789554E+00 0.18491728E+04</pdfrwt>
<totfact> 0.13697229E+01</totfact>
</mgrwt>
</event>
<event>
12    6  0.1530720E-007  0.1697658E+04  0.7818608E-02  0.8762701E-01
         -1   -1    0    0    0  501 -0.00000000000E+00  0.00000000000E+00  0.90504944050E+03  0.90504944050E+03  0.00000000000E+00 0.  1.
          2   -1    0    0  501    0  0.00000000000E+00 -0.00000000000E+00 -0.79610125450E+03  0.79610125450E+03  0.00000000000E+00 0. -1.
         24    2    1    2    0    0 -0.60643989884E+03 -0.55694054836E+02 -0.54332820480E+02  0.61676480564E+03  0.81090020599E+02 0.  0.
        254    2    1    2    0    0  0.60643989884E+03  0.55694054836E+02  0.16328100648E+03  0.10843858894E+04  0.88224763605E+03 0.  0.
         23    2    4    4    0    0 -0.56944586799E+02  0.65092678615E+02 -0.26235611489E+03  0.29078705308E+03  0.90810992953E+02 0.  0.
         23    2    4    4    0    0  0.66338448564E+03 -0.93986237791E+01  0.42563712137E+03  0.79359883628E+03  0.92004586487E+02 0.  0.
          2    1    3    3  502    0 -0.10013641934E+03  0.23807399694E+01 -0.37213137537E+02  0.10685405003E+03  0.00000000000E+00 0. -1.
         -1    1    3    3    0  502 -0.50630347950E+03 -0.58074794805E+02 -0.17119682942E+02  0.50991075561E+03  0.00000000000E+00 0.  1.
         11    1    5    5    0    0 -0.40470844994E+02  0.44182565089E+02 -0.25666482985E+03  0.26356559569E+03  0.00000000000E+00 0. -1.
        -11    1    5    5    0    0 -0.16473741805E+02  0.20910113526E+02 -0.56912850456E+01  0.27221457385E+02  0.00000000000E+00 0.  1.
          3    1    6    6  503    0  0.59942231092E+03  0.18873518613E+02  0.38623019118E+03  0.71332816930E+03  0.00000000000E+00 0. -1.
         -3    1    6    6    0  503  0.63962174717E+02 -0.28272142392E+02  0.39406930191E+02  0.80270666978E+02  0.00000000000E+00 0.  1.
<mgrwt>
<rscale>  0 0.16976584E+04</rscale>
<asrwt>0</asrwt>
<pdfrwt beam="1">  1        2 0.12247712E+00 0.16976584E+04</pdfrwt>
<pdfrwt beam="2">  1       -1 0.13923838E+00 0.16976584E+04</pdfrwt>
<totfact> 0.16018759E+01</totfact>
</mgrwt>
</event>
<event>
12    6  0.1530720E-007  0.1528075E+04  0.7818608E-02  0.8865995E-01
         -1   -1    0    0    0  501 -0.00000000000E+00  0.00000000000E+00  0.10294508062E+04  0.10294508062E+04  0.00000000000E+00 0.  1.
          2   -1    0    0  501    0  0.00000000000E+00 -0.00000000000E+00 -0.56705324519E+03  0.56705324519E+03  0.00000000000E+00 0. -1.
         24    2    1    2    0    0 -0.24398216577E+03  0.21240671488E+03 -0.23831036800E+03  0.40973722483E+03  0.80304745652E+02 0.  0.
        254    2    1    2    0    0  0.24398216577E+03 -0.21240671488E+03  0.70070792906E+03  0.11867668266E+04  0.90154311552E+03 0.  0.
         23    2    4    4    0    0  0.43836798407E+03 -0.14091937914E+03  0.80927288896E+03  0.93548510421E+03  0.90471047949E+02 0.  0.
         23    2    4    4    0    0 -0.19438581830E+03 -0.71487335746E+02 -0.10856495991E+03  0.25128172239E+03  0.91977540525E+02 0.  0.
          4    1    3    3  502    0 -0.17049217369E+03  0.19170846412E+03 -0.19197297126E+03  0.32042680630E+03  0.00000000000E+00 0. -1.
         -3    1    3    3    0  502 -0.73489992080E+02  0.20698250765E+02 -0.46337396744E+02  0.89310418528E+02  0.00000000000E+00 0.  1.
         11    1    5    5    0    0  0.14493842579E+03 -0.91627809073E+01  0.20964553463E+03  0.25503402521E+03  0.00000000000E+00 0.  1.
        -11    1    5    5    0    0  0.29342955828E+03 -0.13175659823E+03  0.59962735434E+03  0.68045107900E+03  0.00000000000E+00 0. -1.
          2    1    6    6  503    0 -0.18684548414E+03 -0.87451961698E+02 -0.88291779531E+02  0.22439812584E+03  0.00000000000E+00 0. -1.
         -2    1    6    6    0  503 -0.75403341616E+01  0.15964625952E+02 -0.20273180376E+02  0.26883596553E+02  0.00000000000E+00 0.  1.
<mgrwt>
<rscale>  0 0.15280752E+04</rscale>
<asrwt>0</asrwt>
<pdfrwt beam="1">  1        2 0.87238961E-01 0.15280752E+04</pdfrwt>
<pdfrwt beam="2">  1       -1 0.15837705E+00 0.15280752E+04</pdfrwt>
<totfact> 0.17586524E+01</totfact>
</mgrwt>
</event>
<event>
12    6  0.1530720E-007  0.1373686E+04  0.7818608E-02  0.8973089E-01
         -1   -1    0    0    0  501 -0.00000000000E+00  0.00000000000E+00  0.20310774534E+04  0.20310774534E+04  0.00000000000E+00 0.  1.
          2   -1    0    0  501    0  0.00000000000E+00 -0.00000000000E+00 -0.23226766914E+03  0.23226766914E+03  0.00000000000E+00 0. -1.
         24    2    1    2    0    0  0.12194749123E+03  0.21611375969E+03  0.24558981990E+02  0.26271708631E+03  0.82708984396E+02 0.  0.
        254    2    1    2    0    0 -0.12194749123E+03 -0.21611375969E+03  0.17742508023E+04  0.20006280362E+04  0.89048878839E+03 0.  0.
         23    2    4    4    0    0 -0.42061250058E+03 -0.15148655028E+03  0.15313922678E+04  0.15979224995E+04  0.91274234517E+02 0.  0.
         23    2    4    4    0    0  0.29866500934E+03 -0.64627209408E+02  0.24285853448E+03  0.40270553677E+03  0.99065723494E+02 0.  0.
          4    1    3    3  502    0  0.11933318362E+03  0.21192042596E+03  0.57577035840E+01  0.24327726322E+03  0.00000000000E+00 0. -1.
         -3    1    3    3    0  502  0.26143076176E+01  0.41933337290E+01  0.18801278406E+02  0.19439823090E+02  0.00000000000E+00 0.  1.
         11    1    5    5    0    0 -0.38114839091E+03 -0.16127002043E+03  0.14299114928E+04  0.14885996751E+04  0.00000000000E+00 0. -1.
        -11    1    5    5    0    0 -0.39464109667E+02  0.97834701527E+01  0.10148077496E+03  0.10932282436E+03  0.00000000000E+00 0.  1.
          2    1    6    6  503    0  0.26846834151E+03 -0.83469729852E+02  0.19130634863E+03  0.34005964950E+03  0.00000000000E+00 0. -1.
         -2    1    6    6    0  503  0.30196667835E+02  0.18842520444E+02  0.51552185857E+02  0.62645887269E+02  0.00000000000E+00 0.  1.
<mgrwt>
<rscale>  0 0.13736865E+04</rscale>
<asrwt>0</asrwt>
<pdfrwt beam="1">  1        2 0.35733489E-01 0.13736865E+04</pdfrwt>
<pdfrwt beam="2">  1       -1 0.31247344E+00 0.13736865E+04</pdfrwt>
<totfact> 0.44979936E+00</totfact>
</mgrwt>
</event>
<event>
12    6  0.1530720E-007  0.1214618E+04  0.7818608E-02  0.9100157E-01
          2   -1    0    0  501    0  0.00000000000E+00  0.00000000000E+00  0.10001000975E+04  0.10001000975E+04  0.00000000000E+00 0. -1.
         -1   -1    0    0    0  501 -0.00000000000E+00 -0.00000000000E+00 -0.36878728088E+03  0.36878728088E+03  0.00000000000E+00 0.  1.
         24    2    1    2    0    0 -0.13030828455E+03 -0.21291682902E+03  0.43333884846E+02  0.26596016319E+03  0.80889787525E+02 0.  0.
        254    2    1    2    0    0  0.13030828455E+03  0.21291682902E+03  0.58797893179E+03  0.11029272152E+04  0.89911923166E+03 0.  0.
         23    2    4    4    0    0 -0.23886927208E+03 -0.22479273473E+03  0.30510540785E+03  0.45750258329E+03  0.92892416716E+02 0.  0.
         23    2    4    4    0    0  0.36917755663E+03  0.43770956375E+03  0.28287352394E+03  0.64542463193E+03  0.93133208036E+02 0.  0.
          2    1    3    3  502    0 -0.37425639157E+02 -0.17224947278E+02  0.25855023702E+02  0.48640102032E+02  0.00000000000E+00 0. -1.
         -1    1    3    3    0  502 -0.92882645392E+02 -0.19569188174E+03  0.17478861144E+02  0.21732006116E+03  0.00000000000E+00 0.  1.
         11    1    5    5    0    0 -0.76386726158E+02 -0.51808537777E+02  0.14262388415E+03  0.16988416303E+03  0.00000000000E+00 0.  1.
        -11    1    5    5    0    0 -0.16248254593E+03 -0.17298419695E+03  0.16248152370E+03  0.28761842025E+03  0.00000000000E+00 0. -1.
          1    1    6    6  503    0  0.30640244284E+03  0.40785913127E+03  0.24010462474E+03  0.56381003783E+03  0.00000000000E+00 0. -1.
         -1    1    6    6    0  503  0.62775113792E+02  0.29850432472E+02  0.42768899202E+02  0.81614594095E+02  0.00000000000E+00 0.  1.
<mgrwt>
<rscale>  0 0.12146180E+04</rscale>
<asrwt>0</asrwt>
<pdfrwt beam="1">  1        2 0.15386155E+00 0.12146180E+04</pdfrwt>
<pdfrwt beam="2">  1       -1 0.56736505E-01 0.12146180E+04</pdfrwt>
<totfact> 0.89049920E+01</totfact>
</mgrwt>
</event>
<event>
12    6  0.1530720E-007  0.1426360E+04  0.7818608E-02  0.8934956E-01
          2   -1    0    0  501    0  0.00000000000E+00  0.00000000000E+00  0.10162549507E+04  0.10162549507E+04  0.00000000000E+00 0. -1.
         -1   -1    0    0    0  501 -0.00000000000E+00 -0.00000000000E+00 -0.50049032267E+03  0.50049032267E+03  0.00000000000E+00 0.  1.
         24    2    1    2    0    0  0.15557402970E+03  0.13005441649E+03  0.55555815195E+03  0.59666853757E+03  0.79063604563E+02 0.  0.
        254    2    1    2    0    0 -0.15557402970E+03 -0.13005441649E+03 -0.39793523889E+02  0.92007673582E+03  0.89657138326E+03 0.  0.
         23    2    4    4    0    0 -0.49815288999E+03 -0.18113842913E+03 -0.12425206702E+03  0.55223462339E+03  0.92504436681E+02 0.  0.
         23    2    4    4    0    0  0.34257886028E+03  0.51084012641E+02  0.84458543136E+02  0.36784211242E+03  0.90579922189E+02 0.  0.
          2    1    3    3  502    0  0.10438931794E+03  0.11909487553E+03  0.47400934571E+03  0.49976552392E+03  0.00000000000E+00 0. -1.
         -1    1    3    3    0  502  0.51184711762E+02  0.10959540959E+02  0.81548806236E+02  0.96903013651E+02  0.00000000000E+00 0.  1.
         11    1    5    5    0    0 -0.28908561540E+02 -0.33577978712E+02 -0.23386309324E+02  0.50100948579E+02  0.00000000000E+00 0.  1.
        -11    1    5    5    0    0 -0.46924432845E+03 -0.14756045042E+03 -0.10086575770E+03  0.50213367481E+03  0.00000000000E+00 0. -1.
          3    1    6    6  503    0  0.29468974507E+03  0.14271981431E+02  0.53068591248E+02  0.29976992958E+03  0.00000000000E+00 0. -1.
         -3    1    6    6    0  503  0.47889115213E+02  0.36812031210E+02  0.31389951888E+02  0.68072182844E+02  0.00000000000E+00 0.  1.
<mgrwt>
<rscale>  0 0.14263601E+04</rscale>
<asrwt>0</asrwt>
<pdfrwt beam="1">  1        2 0.15634692E+00 0.14263601E+04</pdfrwt>
<pdfrwt beam="2">  1       -1 0.76998511E-01 0.14263601E+04</pdfrwt>
<totfact> 0.46115662E+01</totfact>
</mgrwt>
</event>
<event>
12    6  0.1530720E-007  0.3841465E+04  0.7818608E-02  0.8037315E-01
          2   -1    0    0  501    0  0.00000000000E+00  0.00000000000E+00  0.32757543626E+04  0.32757543626E+04  0.00000000000E+00 0. -1.
         -1   -1    0    0    0  501 -0.00000000000E+00 -0.00000000000E+00 -0.11262176897E+04  0.11262176897E+04  0.00000000000E+00 0.  1.
         24    2    1    2    0    0 -0.18032515136E+04 -0.20919287745E+03  0.92990599397E+03  0.20411903861E+04  0.79090791916E+02 0.  0.
        254    2    1    2    0    0  0.18032515136E+04  0.20919287745E+03  0.12196306790E+04  0.23607816661E+04  0.88899572587E+03 0.  0.
         23    2    4    4    0    0  0.15570314442E+04  0.19322595108E+02  0.61662970219E+03  0.16773306216E+04  0.92117010676E+02 0.  0.
         23    2    4    4    0    0  0.24622006944E+03  0.18987028234E+03  0.60300097678E+03  0.68345104452E+03  0.82583930272E+02 0.  0.
          4    1    3    3  502    0 -0.45101475744E+03 -0.53530730295E+02  0.19462243971E+03  0.49412320787E+03  0.00000000000E+00 0. -1.
         -3    1    3    3    0  502 -0.13522367562E+04 -0.15566214716E+03  0.73528355426E+03  0.15470671783E+04  0.00000000000E+00 0.  1.
         11    1    5    5    0    0  0.15316914380E+04  0.15493585693E+02  0.59324578260E+03  0.16426379001E+04  0.00000000000E+00 0.  1.
        -11    1    5    5    0    0  0.25340006247E+02  0.38290094154E+01  0.23383919596E+02  0.34692721504E+02  0.00000000000E+00 0. -1.
          1    1    6    6  503    0  0.11379250819E+03  0.10835462194E+03  0.22239683512E+03  0.27230462957E+03  0.00000000000E+00 0. -1.
         -1    1    6    6    0  503  0.13242756124E+03  0.81515660403E+02  0.38060414167E+03  0.41114641494E+03  0.00000000000E+00 0.  1.
<mgrwt>
<rscale>  0 0.38414646E+04</rscale>
<asrwt>0</asrwt>
<pdfrwt beam="1">  1        2 0.50396220E+00 0.38414646E+04</pdfrwt>
<pdfrwt beam="2">  1       -1 0.17326426E+00 0.38414646E+04</pdfrwt>
<totfact> 0.24391822E-01</totfact>
</mgrwt>
</event>
<event>
12    6  0.1530720E-007  0.1854399E+04  0.7818608E-02  0.8677894E-01
         -1   -1    0    0    0  501 -0.00000000000E+00  0.00000000000E+00  0.42958817761E+03  0.42958817761E+03  0.00000000000E+00 0.  1.
          2   -1    0    0  501    0  0.00000000000E+00 -0.00000000000E+00 -0.20012163714E+04  0.20012163714E+04  0.00000000000E+00 0. -1.
         24    2    1    2    0    0 -0.59886186119E+03 -0.19466095771E+03 -0.99768591197E+03  0.11828929957E+04  0.85616838640E+02 0.  0.
        254    2    1    2    0    0  0.59886186119E+03  0.19466095771E+03 -0.57394228179E+03  0.12479115533E+04  0.91178127025E+03 0.  0.
         23    2    4    4    0    0  0.80304409826E+03  0.19225674020E+02 -0.32712583618E+03  0.87227833222E+03  0.92783219769E+02 0.  0.
         23    2    4    4    0    0 -0.20418223707E+03  0.17543528369E+03 -0.24681644561E+03  0.37563322108E+03  0.87829575074E+02 0.  0.
          4    1    3    3  502    0 -0.34461236756E+03 -0.14221281522E+03 -0.64461682502E+03  0.74465630984E+03  0.00000000000E+00 0. -1.
         -3    1    3    3    0  502 -0.25424949363E+03 -0.52448142491E+02 -0.35306908695E+03  0.43823668585E+03  0.00000000000E+00 0.  1.
         11    1    5    5    0    0  0.50440257086E+03  0.19544914925E+02 -0.15727720008E+03  0.52871549519E+03  0.00000000000E+00 0. -1.
        -11    1    5    5    0    0  0.29864152740E+03 -0.31924090489E+00 -0.16984863610E+03  0.34356283703E+03  0.00000000000E+00 0.  1.
          2    1    6    6  503    0 -0.45788159182E+02  0.76094705510E+02 -0.12172177216E+03  0.15067564351E+03  0.00000000000E+00 0. -1.
         -2    1    6    6    0  503 -0.15839407788E+03  0.99340578182E+02 -0.12509467345E+03  0.22495757757E+03  0.00000000000E+00 0.  1.
<mgrwt>
<rscale>  0 0.18543990E+04</rscale>
<asrwt>0</asrwt>
<pdfrwt beam="1">  1        2 0.30787944E+00 0.18543990E+04</pdfrwt>
<pdfrwt beam="2">  1       -1 0.66090488E-01 0.18543990E+04</pdfrwt>
<totfact> 0.16567278E+01</totfact>
</mgrwt>
</event>
<event>
12    6  0.1530720E-007  0.2545971E+04  0.7818608E-02  0.8386789E-01
         -1   -1    0    0    0  501 -0.00000000000E+00  0.00000000000E+00  0.21396135023E+04  0.21396135023E+04  0.00000000000E+00 0.  1.
          2   -1    0    0  501    0  0.00000000000E+00 -0.00000000000E+00 -0.75737581052E+03  0.75737581052E+03  0.00000000000E+00 0. -1.
         24    2    1    2    0    0  0.58485299152E+03 -0.15992479185E+03  0.16690975336E+04  0.17777776911E+04  0.83534313616E+02 0.  0.
        254    2    1    2    0    0 -0.58485299152E+03  0.15992479185E+03 -0.28685984178E+03  0.11192116218E+04  0.89594482236E+03 0.  0.
         23    2    4    4    0    0 -0.60740379828E+03  0.36108105064E+03 -0.45119648239E+03  0.84334208074E+03  0.91261712291E+02 0.  0.
         23    2    4    4    0    0  0.22550806763E+02 -0.20115625879E+03  0.16433664061E+03  0.27586954102E+03  0.90139297073E+02 0.  0.
          4    1    3    3  502    0  0.10755116393E+03  0.19641695726E+01  0.26778160716E+03  0.28857945172E+03  0.00000000000E+00 0. -1.
         -3    1    3    3    0  502  0.47730182759E+03 -0.16188896143E+03  0.14013159264E+04  0.14891982394E+04  0.00000000000E+00 0.  1.
         11    1    5    5    0    0 -0.60760409681E+02  0.19570507497E+02 -0.16591141282E+02  0.65955273613E+02  0.00000000000E+00 0.  1.
        -11    1    5    5    0    0 -0.54664338860E+03  0.34151054315E+03 -0.43460534111E+03  0.77738680713E+03  0.00000000000E+00 0. -1.
          1    1    6    6  503    0  0.52909235621E+02 -0.11563105102E+03  0.70801894718E+02  0.14554324261E+03  0.00000000000E+00 0. -1.
         -1    1    6    6    0  503 -0.30358428858E+02 -0.85525207773E+02  0.93534745892E+02  0.13032629841E+03  0.00000000000E+00 0.  1.
<mgrwt>
<rscale>  0 0.25459706E+04</rscale>
<asrwt>0</asrwt>
<pdfrwt beam="1">  1        2 0.11651936E+00 0.25459706E+04</pdfrwt>
<pdfrwt beam="2">  1       -1 0.32917131E+00 0.25459706E+04</pdfrwt>
<totfact> 0.79997541E-01</totfact>
</mgrwt>
</event>
<event>
12    6  0.1530720E-007  0.2551094E+04  0.7818608E-02  0.8385006E-01
         -1   -1    0    0    0  501 -0.00000000000E+00  0.00000000000E+00  0.95329796556E+03  0.95329796556E+03  0.00000000000E+00 0.  1.
          2   -1    0    0  501    0  0.00000000000E+00 -0.00000000000E+00 -0.17067283538E+04  0.17067283538E+04  0.00000000000E+00 0. -1.
         24    2    1    2    0    0  0.75193471117E+03  0.19011537515E+03 -0.11677511551E+04  0.14041391012E+04  0.80088634905E+02 0.  0.
        254    2    1    2    0    0 -0.75193471117E+03 -0.19011537515E+03  0.41432076683E+03  0.12558872182E+04  0.89668352353E+03 0.  0.
         23    2    4    4    0    0 -0.16775290377E+03 -0.13575303963E+03 -0.26433635471E+03  0.35406276784E+03  0.94428865581E+02 0.  0.
         23    2    4    4    0    0 -0.58418180739E+03 -0.54362335514E+02  0.67865712153E+03  0.90182445039E+03  0.92131444730E+02 0.  0.
          2    1    3    3  502    0  0.70641776681E+03  0.19503700546E+03 -0.10800986262E+04  0.13052503733E+04  0.00000000000E+00 0. -1.
         -1    1    3    3    0  502  0.45516944356E+02 -0.49216303174E+01 -0.87652528899E+02  0.98888727825E+02  0.00000000000E+00 0.  1.
         11    1    5    5    0    0 -0.10966283544E+03 -0.38190598747E+02 -0.94249433650E+02  0.14955739719E+03  0.00000000000E+00 0.  1.
        -11    1    5    5    0    0 -0.58090068331E+02 -0.97562440886E+02 -0.17008692106E+03  0.20450537065E+03  0.00000000000E+00 0. -1.
          3    1    6    6  503    0 -0.23764493338E+03 -0.35388472487E+02  0.21317222979E+03  0.32120065053E+03  0.00000000000E+00 0. -1.
         -3    1    6    6    0  503 -0.34653687401E+03 -0.18973863026E+02  0.46548489174E+03  0.58062379986E+03  0.00000000000E+00 0.  1.
<mgrwt>
<rscale>  0 0.25510944E+04</rscale>
<asrwt>0</asrwt>
<pdfrwt beam="1">  1        2 0.26257359E+00 0.25510944E+04</pdfrwt>
<pdfrwt beam="2">  1       -1 0.14666123E+00 0.25510944E+04</pdfrwt>
<totfact> 0.36438280E+00</totfact>
</mgrwt>
</event>
<event>
12    6  0.1530720E-007  0.1331480E+04  0.7818608E-02  0.9004967E-01
          2   -1    0    0  501    0  0.00000000000E+00  0.00000000000E+00  0.93249295998E+03  0.93249295998E+03  0.00000000000E+00 0. -1.
         -1   -1    0    0    0  501 -0.00000000000E+00 -0.00000000000E+00 -0.47529522181E+03  0.47529522181E+03  0.00000000000E+00 0.  1.
         24    2    1    2    0    0  0.20494779889E+03 -0.14951294003E+03  0.38210307711E+03  0.46518038105E+03  0.77667920438E+02 0.  0.
        254    2    1    2    0    0 -0.20494779889E+03  0.14951294003E+03  0.75094661052E+02  0.94260780075E+03  0.90471682774E+03 0.  0.
         23    2    4    4    0    0 -0.38105949592E+03  0.23349935711E+03  0.36335421721E+03  0.58172132424E+03  0.81517622048E+02 0.  0.
         23    2    4    4    0    0  0.17611169703E+03 -0.83986417077E+02 -0.28825955616E+03  0.36088647651E+03  0.95270295078E+02 0.  0.
          2    1    3    3  502    0  0.19715497884E+03 -0.15122218822E+03  0.38362078696E+03  0.45705923476E+03  0.00000000000E+00 0. -1.
         -1    1    3    3    0  502  0.77928200577E+01  0.17092481897E+01 -0.15177098507E+01  0.81211462871E+01  0.00000000000E+00 0.  1.
         11    1    5    5    0    0 -0.28771982352E+02  0.37894668070E+02  0.17484364824E+02  0.50690589361E+02  0.00000000000E+00 0. -1.
        -11    1    5    5    0    0 -0.35228751357E+03  0.19560468904E+03  0.34586985239E+03  0.53103073488E+03  0.00000000000E+00 0.  1.
          2    1    6    6  503    0 -0.55385707102E+01 -0.60586705193E+00  0.39707225991E+01  0.68417452712E+01  0.00000000000E+00 0. -1.
         -2    1    6    6    0  503  0.18165026774E+03 -0.83380550025E+02 -0.29223027876E+03  0.35404473124E+03  0.00000000000E+00 0.  1.
<mgrwt>
<rscale>  0 0.13314796E+04</rscale>
<asrwt>0</asrwt>
<pdfrwt beam="1">  1        2 0.14346046E+00 0.13314796E+04</pdfrwt>
<pdfrwt beam="2">  1       -1 0.73122342E-01 0.13314796E+04</pdfrwt>
<totfact> 0.58681215E+01</totfact>
</mgrwt>
</event>
<event>
12    6  0.1530720E-007  0.1335051E+04  0.7818608E-02  0.9002222E-01
          2   -1    0    0  501    0  0.00000000000E+00  0.00000000000E+00  0.16070679071E+04  0.16070679071E+04  0.00000000000E+00 0. -1.
         -1   -1    0    0    0  501 -0.00000000000E+00 -0.00000000000E+00 -0.27726893109E+03  0.27726893109E+03  0.00000000000E+00 0.  1.
         24    2    1    2    0    0 -0.11044056145E+03 -0.53827036926E+02 -0.11117187051E+03  0.18360515820E+03  0.79102476628E+02 0.  0.
        254    2    1    2    0    0  0.11044056145E+03  0.53827036926E+02  0.14409708466E+04  0.17007316800E+04  0.89498424528E+03 0.  0.
         23    2    4    4    0    0  0.11530456782E+03 -0.87537249182E+02  0.15085051155E+04  0.15181726986E+04  0.91119403415E+02 0.  0.
         23    2    4    4    0    0 -0.48640063723E+01  0.14136428611E+03 -0.67534268973E+02  0.18255898148E+03  0.93591582352E+02 0.  0.
          4    1    3    3  502    0  0.87028294562E+01 -0.12414864936E+02  0.45639557209E+00  0.15168269804E+02  0.00000000000E+00 0. -1.
         -3    1    3    3    0  502 -0.11914339090E+03 -0.41412171990E+02 -0.11162826608E+03  0.16843688840E+03  0.00000000000E+00 0.  1.
         11    1    5    5    0    0  0.11372542637E+03 -0.10371715851E+03  0.13123980985E+04  0.13213930114E+04  0.00000000000E+00 0.  1.
        -11    1    5    5    0    0  0.15791414470E+01  0.16179909332E+02  0.19610701699E+03  0.19677968713E+03  0.00000000000E+00 0. -1.
          3    1    6    6  503    0 -0.13338596984E+01 -0.14057071305E+02 -0.47412506623E+01  0.14894962008E+02  0.00000000000E+00 0. -1.
         -3    1    6    6    0  503 -0.35301466738E+01  0.15542135741E+03 -0.62793018310E+02  0.16766401947E+03  0.00000000000E+00 0.  1.
<mgrwt>
<rscale>  0 0.13350506E+04</rscale>
<asrwt>0</asrwt>
<pdfrwt beam="1">  1        2 0.24724121E+00 0.13350506E+04</pdfrwt>
<pdfrwt beam="2">  1       -1 0.42656760E-01 0.13350506E+04</pdfrwt>
<totfact> 0.66592712E+01</totfact>
</mgrwt>
</event>
<event>
12    6  0.1815000E-007  0.1853600E+04  0.7818608E-02  0.8678304E-01
          2   -1    0    0  501    0  0.00000000000E+00  0.00000000000E+00  0.98141674005E+03  0.98141674005E+03  0.00000000000E+00 0. -1.
         -1   -1    0    0    0  501 -0.00000000000E+00 -0.00000000000E+00 -0.87522281522E+03  0.87522281522E+03  0.00000000000E+00 0.  1.
         24    2    1    2    0    0 -0.20471113275E+02 -0.63949727770E+03 -0.25973179494E+03  0.69609531258E+03  0.87819384126E+02 0.  0.
        254    2    1    2    0    0  0.20471113275E+02  0.63949727770E+03  0.36592571977E+03  0.11605442427E+04  0.89642929013E+03 0.  0.
         23    2    4    4    0    0  0.34899574768E+03  0.33802892323E+03 -0.10551836137E+03  0.50526171870E+03  0.89964965184E+02 0.  0.
         23    2    4    4    0    0 -0.32852463441E+03  0.30146835447E+03  0.47144408114E+03  0.65528252400E+03  0.91236289142E+02 0.  0.
          4    1    3    3  502    0 -0.15142485232E+02 -0.50465189105E+02 -0.44445887440E+02  0.68930886261E+02  0.00000000000E+00 0. -1.
         -3    1    3    3    0  502 -0.53286280427E+01 -0.58903208859E+03 -0.21528590750E+03  0.62716442632E+03  0.00000000000E+00 0.  1.
         11    1    5    5    0    0  0.20297364669E+03  0.14295063415E+03 -0.29519031489E+02  0.25000911638E+03  0.00000000000E+00 0.  1.
        -11    1    5    5    0    0  0.14602210099E+03  0.19507828908E+03 -0.75999329877E+02  0.25525260232E+03  0.00000000000E+00 0. -1.
          3    1    6    6  503    0 -0.17031940031E+02  0.14298235428E+02  0.11078866958E+01  0.22265532343E+02  0.00000000000E+00 0. -1.
         -3    1    6    6    0  503 -0.31149269438E+03  0.28717011905E+03  0.47033619444E+03  0.63301699165E+03  0.00000000000E+00 0.  1.
<mgrwt>
<rscale>  0 0.18536001E+04</rscale>
<asrwt>0</asrwt>
<pdfrwt beam="1">  1        2 0.15098719E+00 0.18536001E+04</pdfrwt>
<pdfrwt beam="2">  1       -1 0.13464966E+00 0.18536001E+04</pdfrwt>
<totfact> 0.12879590E+01</totfact>
</mgrwt>
</event>
<event>
12    6  0.1530720E-007  0.1603168E+04  0.7818608E-02  0.8818604E-01
          2   -1    0    0  501    0  0.00000000000E+00  0.00000000000E+00  0.36411274294E+03  0.36411274294E+03  0.00000000000E+00 0. -1.
         -1   -1    0    0    0  501 -0.00000000000E+00 -0.00000000000E+00 -0.17646654352E+04  0.17646654352E+04  0.00000000000E+00 0.  1.
         24    2    1    2    0    0  0.10241739873E+03  0.57961123796E+02 -0.11993263183E+04  0.12076169773E+04  0.78143013500E+02 0.  0.
        254    2    1    2    0    0 -0.10241739873E+03 -0.57961123796E+02 -0.20122637389E+03  0.92116120082E+03  0.89117736108E+03 0.  0.
         23    2    4    4    0    0 -0.13525603600E+03  0.39941864340E+03 -0.12144403720E+03  0.44721260367E+03  0.86145288572E+02 0.  0.
         23    2    4    4    0    0  0.32838637274E+02 -0.45737976719E+03 -0.79782336688E+02  0.47394859714E+03  0.89372389207E+02 0.  0.
          4    1    3    3  502    0  0.95313296191E+02  0.20953736852E+02 -0.68563308639E+03  0.69254343739E+03  0.00000000000E+00 0. -1.
         -3    1    3    3    0  502  0.71041025349E+01  0.37007386944E+02 -0.51369323193E+03  0.51507353989E+03  0.00000000000E+00 0.  1.
         11    1    5    5    0    0 -0.13191754258E+03  0.38032356774E+03 -0.93609010703E+02  0.41329275472E+03  0.00000000000E+00 0. -1.
        -11    1    5    5    0    0 -0.33384934174E+01  0.19095075659E+02 -0.27835026501E+02  0.33919848954E+02  0.00000000000E+00 0.  1.
          3    1    6    6  503    0  0.60836697551E+02 -0.23100798757E+03 -0.47814568325E+02  0.24362271453E+03  0.00000000000E+00 0. -1.
         -3    1    6    6    0  503 -0.27998060277E+02 -0.22637177962E+03 -0.31967768364E+02  0.23032588262E+03  0.00000000000E+00 0.  1.
<mgrwt>
<rscale>  0 0.16031683E+04</rscale>
<asrwt>0</asrwt>
<pdfrwt beam="1">  1        2 0.56017346E-01 0.16031683E+04</pdfrwt>
<pdfrwt beam="2">  1       -1 0.27148698E+00 0.16031683E+04</pdfrwt>
<totfact> 0.49047156E+00</totfact>
</mgrwt>
</event>
<event>
12    6  0.1530720E-007  0.1974571E+04  0.7818608E-02  0.8618603E-01
         -1   -1    0    0    0  501 -0.00000000000E+00  0.00000000000E+00  0.77766249743E+03  0.77766249743E+03  0.00000000000E+00 0.  1.
          2   -1    0    0  501    0  0.00000000000E+00 -0.00000000000E+00 -0.12534134110E+04  0.12534134110E+04  0.00000000000E+00 0. -1.
         24    2    1    2    0    0  0.48506836073E+03 -0.39648239090E+03  0.29304597511E+03  0.69614593769E+03  0.79079846735E+02 0.  0.
        254    2    1    2    0    0 -0.48506836073E+03  0.39648239090E+03 -0.76879688871E+03  0.13349299708E+04  0.89358814331E+03 0.  0.
         23    2    4    4    0    0 -0.32780363896E+03  0.18152870808E+03  0.11781270871E+03  0.40455408009E+03  0.96831151053E+02 0.  0.
         23    2    4    4    0    0 -0.15726472177E+03  0.21495368282E+03 -0.88660959742E+03  0.93037589067E+03  0.92657656046E+02 0.  0.
          4    1    3    3  502    0  0.19458342174E+03 -0.13454209422E+03  0.74149314080E+02  0.24791612274E+03  0.00000000000E+00 0. -1.
         -3    1    3    3    0  502  0.29048493899E+03 -0.26194029668E+03  0.21889666103E+03  0.44822981495E+03  0.00000000000E+00 0.  1.
         11    1    5    5    0    0 -0.12888500500E+03  0.58813602287E+02  0.93106439987E+02  0.16952637994E+03  0.00000000000E+00 0. -1.
        -11    1    5    5    0    0 -0.19891863396E+03  0.12271510579E+03  0.24706268723E+02  0.23502770015E+03  0.00000000000E+00 0.  1.
          4    1    6    6  503    0 -0.61643511432E+02  0.14329874898E+03 -0.59792836195E+03  0.61794237594E+03  0.00000000000E+00 0. -1.
         -4    1    6    6    0  503 -0.95621210341E+02  0.71654933833E+02 -0.28868123548E+03  0.31243351473E+03  0.00000000000E+00 0.  1.
<mgrwt>
<rscale>  0 0.19745709E+04</rscale>
<asrwt>0</asrwt>
<pdfrwt beam="1">  1        2 0.19283283E+00 0.19745709E+04</pdfrwt>
<pdfrwt beam="2">  1       -1 0.11964039E+00 0.19745709E+04</pdfrwt>
<totfact> 0.11654369E+01</totfact>
</mgrwt>
</event>
<event>
12    6  0.2191764E-007  0.2031744E+04  0.7818608E-02  0.8591922E-01
          2   -1    0    0  501    0  0.00000000000E+00  0.00000000000E+00  0.14420812196E+04  0.14420812196E+04  0.00000000000E+00 0. -1.
         -1   -1    0    0    0  501 -0.00000000000E+00 -0.00000000000E+00 -0.71562924113E+03  0.71562924113E+03  0.00000000000E+00 0.  1.
         24    2    1    2    0    0 -0.42609725315E+03 -0.30629265100E+03  0.95338498014E+03  0.10911013869E+04  0.78646416900E+02 0.  0.
        254    2    1    2    0    0  0.42609725315E+03  0.30629265100E+03 -0.22693300164E+03  0.10666090739E+04  0.90043449072E+03 0.  0.
         23    2    4    4    0    0  0.44668043477E+03 -0.94614751489E+02 -0.40614478126E+03  0.61774838545E+03  0.90466139400E+02 0.  0.
         23    2    4    4    0    0 -0.20583181614E+02  0.40090740249E+03  0.17921177962E+03  0.44886068844E+03  0.90601561445E+02 0.  0.
          4    1    3    3  502    0 -0.39037261161E+03 -0.26062657336E+03  0.80585751963E+03  0.93258958207E+03  0.00000000000E+00 0. -1.
         -3    1    3    3    0  502 -0.35724641549E+02 -0.45666077641E+02  0.14752746051E+03  0.15851180481E+03  0.00000000000E+00 0.  1.
         11    1    5    5    0    0  0.43999833351E+03 -0.10487058377E+03 -0.38843385174E+03  0.59621911242E+03  0.00000000000E+00 0.  1.
        -11    1    5    5    0    0  0.66821012544E+01  0.10255832279E+02 -0.17710929514E+02  0.21529273029E+02  0.00000000000E+00 0. -1.
          4    1    6    6  503    0 -0.55857197889E+02  0.22282491140E+03  0.92003216826E+02  0.24745819769E+03  0.00000000000E+00 0.  1.
         -4    1    6    6    0  503  0.35274016275E+02  0.17808249109E+03  0.87208562795E+02  0.20140249076E+03  0.00000000000E+00 0. -1.
<mgrwt>
<rscale>  0 0.20317436E+04</rscale>
<asrwt>0</asrwt>
<pdfrwt beam="1">  1        2 0.22185865E+00 0.20317436E+04</pdfrwt>
<pdfrwt beam="2">  1       -1 0.11009681E+00 0.20317436E+04</pdfrwt>
<totfact> 0.11011034E+01</totfact>
</mgrwt>
</event>
<event>
12    6  0.1530720E-007  0.1081873E+04  0.7818608E-02  0.9223042E-01
          2   -1    0    0  501    0  0.00000000000E+00  0.00000000000E+00  0.18138466261E+04  0.18138466261E+04  0.00000000000E+00 0. -1.
         -1   -1    0    0    0  501 -0.00000000000E+00 -0.00000000000E+00 -0.16132146528E+03  0.16132146528E+03  0.00000000000E+00 0.  1.
         24    2    1    2    0    0 -0.18033454172E+02 -0.11965568663E+03  0.24752452355E+03  0.28766409318E+03  0.82701583647E+02 0.  0.
        254    2    1    2    0    0  0.18033454172E+02  0.11965568663E+03  0.14050006373E+04  0.16875039982E+04  0.92682267150E+03 0.  0.
         23    2    4    4    0    0 -0.15015070027E+03  0.15916819468E+03 -0.30634635705E+02  0.23912501959E+03  0.91446963332E+02 0.  0.
         23    2    4    4    0    0  0.16818415444E+03 -0.39512508049E+02  0.14356352730E+04  0.14483789786E+04  0.83101627889E+02 0.  0.
          4    1    3    3  502    0 -0.10296877509E+02 -0.42018883391E+02  0.17793029993E+03  0.18311418263E+03  0.00000000000E+00 0. -1.
         -3    1    3    3    0  502 -0.77365766624E+01 -0.77636803237E+02  0.69594223616E+02  0.10454991055E+03  0.00000000000E+00 0.  1.
         11    1    5    5    0    0  0.62732637243E+01  0.23891988105E+02  0.12780846739E+02  0.27812424862E+02  0.00000000000E+00 0.  1.
        -11    1    5    5    0    0 -0.15642396400E+03  0.13527620657E+03 -0.43415482444E+02  0.21131259473E+03  0.00000000000E+00 0. -1.
          2    1    6    6  503    0  0.13302455826E+03 -0.64190366166E+02  0.11713439152E+04  0.11806195424E+04  0.00000000000E+00 0. -1.
         -2    1    6    6    0  503  0.35159596189E+02  0.24677858117E+02  0.26429135774E+03  0.26775943618E+03  0.00000000000E+00 0.  1.
<mgrwt>
<rscale>  0 0.10818732E+04</rscale>
<asrwt>0</asrwt>
<pdfrwt beam="1">  1        2 0.27905331E+00 0.10818732E+04</pdfrwt>
<pdfrwt beam="2">  1       -1 0.24818688E-01 0.10818732E+04</pdfrwt>
<totfact> 0.13624917E+02</totfact>
</mgrwt>
</event>
<event>
12    6  0.1530720E-007  0.1162239E+04  0.7818608E-02  0.9146567E-01
         -1   -1    0    0    0  501 -0.00000000000E+00  0.00000000000E+00  0.22535302696E+03  0.22535302696E+03  0.00000000000E+00 0.  1.
          2   -1    0    0  501    0  0.00000000000E+00 -0.00000000000E+00 -0.14985360007E+04  0.14985360007E+04  0.00000000000E+00 0. -1.
         24    2    1    2    0    0  0.39194111208E+02 -0.12684981532E+03 -0.53141267676E+03  0.55272710917E+03  0.74032224066E+02 0.  0.
        254    2    1    2    0    0 -0.39194111208E+02  0.12684981532E+03 -0.74177029696E+03  0.11711619185E+04  0.89653221459E+03 0.  0.
         23    2    4    4    0    0  0.64640930057E+02  0.48810399162E+03 -0.30607217820E+03  0.58734504179E+03  0.94181013895E+02 0.  0.
         23    2    4    4    0    0 -0.10383504127E+03 -0.36125417630E+03 -0.43569811877E+03  0.58381687667E+03  0.98605269160E+02 0.  0.
          2    1    3    3  502    0  0.20168791911E+02 -0.80333636686E+02 -0.44600194689E+03  0.45362761157E+03  0.00000000000E+00 0. -1.
         -1    1    3    3    0  502  0.19025319297E+02 -0.46516178635E+02 -0.85410729866E+02  0.99099497605E+02  0.00000000000E+00 0.  1.
         11    1    5    5    0    0  0.34678208305E+02  0.19453066999E+03 -0.17690007772E+03  0.26521387067E+03  0.00000000000E+00 0. -1.
        -11    1    5    5    0    0  0.29962721752E+02  0.29357332163E+03 -0.12917210048E+03  0.32213117112E+03  0.00000000000E+00 0.  1.
          3    1    6    6  503    0 -0.60224774423E+01  0.59656411504E+01 -0.76835185615E+01  0.11440960028E+02  0.00000000000E+00 0. -1.
         -3    1    6    6    0  503 -0.97812563823E+02 -0.36721981745E+03 -0.42801460020E+03  0.57237591664E+03  0.00000000000E+00 0.  1.
<mgrwt>
<rscale>  0 0.11622386E+04</rscale>
<asrwt>0</asrwt>
<pdfrwt beam="1">  1        2 0.23054401E+00 0.11622386E+04</pdfrwt>
<pdfrwt beam="2">  1       -1 0.34669696E-01 0.11622386E+04</pdfrwt>
<totfact> 0.11306699E+02</totfact>
</mgrwt>
</event>
<event>
12    6  0.1530720E-007  0.1741450E+04  0.7818608E-02  0.8738071E-01
          2   -1    0    0  501    0  0.00000000000E+00  0.00000000000E+00  0.11708104622E+04  0.11708104622E+04  0.00000000000E+00 0. -1.
         -1   -1    0    0    0  501 -0.00000000000E+00 -0.00000000000E+00 -0.64755324616E+03  0.64755324616E+03  0.00000000000E+00 0.  1.
         24    2    1    2    0    0 -0.58764096275E+03  0.15252882877E+03  0.40437826747E+03  0.73374314096E+03  0.79185030113E+02 0.  0.
        254    2    1    2    0    0  0.58764096275E+03 -0.15252882877E+03  0.11887894859E+03  0.10846205674E+04  0.89088867216E+03 0.  0.
         23    2    4    4    0    0  0.25881409494E+03  0.31072276393E+03 -0.16171855037E+03  0.44415863979E+03  0.87124256122E+02 0.  0.
         23    2    4    4    0    0  0.32882686781E+03 -0.46325159269E+03  0.28059749896E+03  0.64046192765E+03  0.93420432523E+02 0.  0.
          4    1    3    3  502    0 -0.57750509098E+03  0.15269652641E+03  0.38166383581E+03  0.70886927064E+03  0.00000000000E+00 0. -1.
         -3    1    3    3    0  502 -0.10135871764E+02 -0.16769764359E+00  0.22714431662E+02  0.24873870319E+02  0.00000000000E+00 0.  1.
         11    1    5    5    0    0  0.25200244014E+03  0.29421773102E+03 -0.13157295372E+03  0.40912191977E+03  0.00000000000E+00 0.  1.
        -11    1    5    5    0    0  0.68116548001E+01  0.16505032907E+02 -0.30145596658E+02  0.35036720027E+02  0.00000000000E+00 0. -1.
          3    1    6    6  503    0  0.21037053557E+03 -0.21744080173E+03  0.13705508005E+03  0.33214508797E+03  0.00000000000E+00 0. -1.
         -3    1    6    6    0  503  0.11845633223E+03 -0.24581079096E+03  0.14354241891E+03  0.30831683967E+03  0.00000000000E+00 0.  1.
<mgrwt>
<rscale>  0 0.17414501E+04</rscale>
<asrwt>0</asrwt>
<pdfrwt beam="1">  1        2 0.18012469E+00 0.17414501E+04</pdfrwt>
<pdfrwt beam="2">  1       -1 0.99623576E-01 0.17414501E+04</pdfrwt>
<totfact> 0.20509601E+01</totfact>
</mgrwt>
</event>
<event>
12    6  0.1530720E-007  0.1455881E+04  0.7818608E-02  0.8914334E-01
          2   -1    0    0  501    0  0.00000000000E+00  0.00000000000E+00  0.88072061508E+03  0.88072061508E+03  0.00000000000E+00 0. -1.
         -1   -1    0    0    0  501 -0.00000000000E+00 -0.00000000000E+00 -0.60166300370E+03  0.60166300370E+03  0.00000000000E+00 0.  1.
         24    2    1    2    0    0 -0.10506877266E+03 -0.39172063586E+03  0.26618286471E+03  0.48985852784E+03  0.67996737309E+02 0.  0.
        254    2    1    2    0    0  0.10506877266E+03  0.39172063586E+03  0.12874746676E+02  0.99252509093E+03  0.90579014870E+03 0.  0.
         23    2    4    4    0    0  0.17317125069E+03  0.66613897772E+03  0.13090679849E+02  0.69472404061E+03  0.93491748321E+02 0.  0.
         23    2    4    4    0    0 -0.68102478028E+02 -0.27441834185E+03 -0.21593317312E+00  0.29780105032E+03  0.93498904214E+02 0.  0.
          4    1    3    3  502    0 -0.75210323157E+02 -0.34640866721E+03  0.24803408108E+03  0.43263895202E+03  0.00000000000E+00 0. -1.
         -3    1    3    3    0  502 -0.29858449505E+02 -0.45311968657E+02  0.18148783630E+02  0.57219575826E+02  0.00000000000E+00 0.  1.
         11    1    5    5    0    0  0.74353786191E+02  0.21235967805E+03 -0.35466107889E+02  0.22777832028E+03  0.00000000000E+00 0.  1.
        -11    1    5    5    0    0  0.98817464498E+02  0.45377929967E+03  0.48556787738E+02  0.46694572033E+03  0.00000000000E+00 0. -1.
          3    1    6    6  503    0 -0.86404009642E+01 -0.89466944843E+02 -0.41797001625E+02  0.99126081801E+02  0.00000000000E+00 0.  1.
         -3    1    6    6    0  503 -0.59462077064E+02 -0.18495139701E+03  0.41581068452E+02  0.19867496852E+03  0.00000000000E+00 0. -1.
<mgrwt>
<rscale>  0 0.14558805E+04</rscale>
<asrwt>0</asrwt>
<pdfrwt beam="1">  1        2 0.13549548E+00 0.14558805E+04</pdfrwt>
<pdfrwt beam="2">  1       -1 0.92563539E-01 0.14558805E+04</pdfrwt>
<totfact> 0.37962391E+01</totfact>
</mgrwt>
</event>
<event>
12    6  0.1530720E-007  0.2349219E+04  0.7818608E-02  0.8458764E-01
          2   -1    0    0  501    0  0.00000000000E+00  0.00000000000E+00  0.22951745130E+04  0.22951745130E+04  0.00000000000E+00 0. -1.
         -3   -1    0    0    0  501 -0.00000000000E+00 -0.00000000000E+00 -0.60113398083E+03  0.60113398083E+03  0.00000000000E+00 0.  1.
         24    2    1    2    0    0 -0.13420403093E+03 -0.39097668196E+03  0.18494257567E+04  0.18967039161E+04  0.78972326067E+02 0.  0.
        254    2    1    2    0    0  0.13420403093E+03  0.39097668196E+03 -0.15538522449E+03  0.99960457771E+03  0.89676711359E+03 0.  0.
         23    2    4    4    0    0  0.35080514098E+03  0.73053712502E+02  0.24035528129E+03  0.44030082030E+03  0.87710086470E+02 0.  0.
         23    2    4    4    0    0 -0.21660111005E+03  0.31792296946E+03 -0.39574050578E+03  0.55930375740E+03  0.90659195583E+02 0.  0.
          4    1    3    3  502    0 -0.13841430307E+03 -0.36684867374E+03  0.16587325819E+04  0.17044442634E+04  0.00000000000E+00 0. -1.
         -3    1    3    3    0  502  0.42102721394E+01 -0.24128008221E+02  0.19069317475E+03  0.19225965273E+03  0.00000000000E+00 0.  1.
         11    1    5    5    0    0  0.57267892697E+02  0.46145391513E+02  0.58233316039E+02  0.93808996310E+02  0.00000000000E+00 0. -1.
        -11    1    5    5    0    0  0.29353724828E+03  0.26908320989E+02  0.18212196525E+03  0.34649182399E+03  0.00000000000E+00 0.  1.
          1    1    6    6  503    0 -0.98787619343E+02  0.80851391507E+02 -0.98313463418E+02  0.16112566007E+03  0.00000000000E+00 0. -1.
         -1    1    6    6    0  503 -0.11781349071E+03  0.23707157796E+03 -0.29742704236E+03  0.39817809733E+03  0.00000000000E+00 0.  1.
<mgrwt>
<rscale>  0 0.23492189E+04</rscale>
<asrwt>0</asrwt>
<pdfrwt beam="1">  1        2 0.35310377E+00 0.23492189E+04</pdfrwt>
<pdfrwt beam="2">  1       -3 0.92482152E-01 0.23492189E+04</pdfrwt>
<totfact> 0.27575256E+00</totfact>
</mgrwt>
</event>
<event>
12    6  0.1530720E-007  0.2250981E+04  0.7818608E-02  0.8497503E-01
          2   -1    0    0  501    0  0.00000000000E+00  0.00000000000E+00  0.14772350474E+04  0.14772350474E+04  0.00000000000E+00 0. -1.
         -1   -1    0    0    0  501 -0.00000000000E+00 -0.00000000000E+00 -0.85749952840E+03  0.85749952840E+03  0.00000000000E+00 0.  1.
         24    2    1    2    0    0 -0.56099711261E+03 -0.38867561102E+02  0.10487750522E+04  0.11925375676E+04  0.77384057564E+02 0.  0.
        254    2    1    2    0    0  0.56099711261E+03  0.38867561102E+02 -0.42903953326E+03  0.11421970081E+04  0.89683367279E+03 0.  0.
         23    2    4    4    0    0  0.68654164409E+03  0.21195075198E+03 -0.85429544732E+02  0.72871198027E+03  0.86373565061E+02 0.  0.
         23    2    4    4    0    0 -0.12554453148E+03 -0.17308319088E+03 -0.34360998853E+03  0.41348502787E+03  0.84751541042E+02 0.  0.
          2    1    3    3  502    0 -0.39285018094E+03 -0.46964715425E+02  0.79490030586E+03  0.88792085538E+03  0.00000000000E+00 0. -1.
         -1    1    3    3    0  502 -0.16814693167E+03  0.80971543235E+01  0.25387474636E+03  0.30461671224E+03  0.00000000000E+00 0.  1.
         11    1    5    5    0    0  0.84588473489E+01 -0.30534750265E+01  0.69769587359E+01  0.11382168572E+02  0.00000000000E+00 0.  1.
        -11    1    5    5    0    0  0.67808279674E+03  0.21500422701E+03 -0.92406503468E+02  0.71732981170E+03  0.00000000000E+00 0. -1.
          3    1    6    6  503    0 -0.10625423170E+03 -0.16498798035E+03 -0.25136243870E+03  0.31889507836E+03  0.00000000000E+00 0. -1.
         -3    1    6    6    0  503 -0.19290299781E+02 -0.80952105283E+01 -0.92247549826E+02  0.94589949509E+02  0.00000000000E+00 0.  1.
<mgrwt>
<rscale>  0 0.22509805E+04</rscale>
<asrwt>0</asrwt>
<pdfrwt beam="1">  1        2 0.22726693E+00 0.22509805E+04</pdfrwt>
<pdfrwt beam="2">  1       -1 0.13192300E+00 0.22509805E+04</pdfrwt>
<totfact> 0.66255396E+00</totfact>
</mgrwt>
</event>
<event>
12    6  0.1530720E-007  0.3845556E+04  0.7818608E-02  0.8036449E-01
         -1   -1    0    0    0  501 -0.00000000000E+00  0.00000000000E+00  0.98478327107E+03  0.98478327107E+03  0.00000000000E+00 0.  1.
          2   -1    0    0  501    0  0.00000000000E+00 -0.00000000000E+00 -0.37542020861E+04  0.37542020861E+04  0.00000000000E+00 0. -1.
         24    2    1    2    0    0 -0.28446493624E+03  0.16468219956E+04 -0.43589343626E+03  0.17288662623E+04  0.77669041722E+02 0.  0.
        254    2    1    2    0    0  0.28446493624E+03 -0.16468219956E+04 -0.23335253787E+04  0.30101190948E+04  0.90693620879E+03 0.  0.
         23    2    4    4    0    0 -0.38174145890E+02 -0.97989554880E+03 -0.19167720170E+04  0.21550118928E+04  0.91699188129E+02 0.  0.
         23    2    4    4    0    0  0.32263908213E+03 -0.66692644679E+03 -0.41675336177E+03  0.85510720204E+03  0.92941377728E+02 0.  0.
          2    1    3    3  502    0  0.33022545217E+01  0.70677558529E+02 -0.21405619542E+02  0.73921733696E+02  0.00000000000E+00 0. -1.
         -1    1    3    3    0  502 -0.28776719076E+03  0.15761444371E+04 -0.41448781672E+03  0.16549445286E+04  0.00000000000E+00 0.  1.
         11    1    5    5    0    0  0.21411671251E+02 -0.26644743715E+03 -0.57856673702E+03  0.63733206856E+03  0.00000000000E+00 0.  1.
        -11    1    5    5    0    0 -0.59585817140E+02 -0.71344811165E+03 -0.13382052799E+04  0.15176798242E+04  0.00000000000E+00 0. -1.
          4    1    6    6  503    0  0.27638641326E+03 -0.50040300615E+03 -0.29168565378E+03  0.64177343247E+03  0.00000000000E+00 0. -1.
         -4    1    6    6    0  503  0.46252668869E+02 -0.16652344064E+03 -0.12506770799E+03  0.21333376957E+03  0.00000000000E+00 0.  1.
<mgrwt>
<rscale>  0 0.38455561E+04</rscale>
<asrwt>0</asrwt>
<pdfrwt beam="1">  1        2 0.57756956E+00 0.38455561E+04</pdfrwt>
<pdfrwt beam="2">  1       -1 0.15150512E+00 0.38455561E+04</pdfrwt>
<totfact> 0.16329849E-01</totfact>
</mgrwt>
</event>
<event>
12    6  0.1530720E-007  0.1515869E+04  0.7818608E-02  0.8873968E-01
          2   -1    0    0  501    0  0.00000000000E+00  0.00000000000E+00  0.55450761840E+03  0.55450761840E+03  0.00000000000E+00 0. -1.
         -1   -1    0    0    0  501 -0.00000000000E+00 -0.00000000000E+00 -0.10359905764E+04  0.10359905764E+04  0.00000000000E+00 0.  1.
         24    2    1    2    0    0  0.25897171261E+03 -0.88415325155E+02 -0.52558554739E+03  0.59800767754E+03  0.80556794362E+02 0.  0.
        254    2    1    2    0    0 -0.25897171261E+03  0.88415325155E+02  0.44102589410E+02  0.99249051724E+03  0.95299987973E+03 0.  0.
         23    2    4    4    0    0 -0.46501591103E+03 -0.47983521897E+02 -0.29684103314E+03  0.56168909331E+03  0.94009694734E+02 0.  0.
         23    2    4    4    0    0  0.20604419842E+03  0.13639884705E+03  0.34094362255E+03  0.43080142394E+03  0.91040957437E+02 0.  0.
          4    1    3    3  502    0  0.30158123164E+02  0.15229873361E+02 -0.54116468689E+02  0.63796971862E+02  0.00000000000E+00 0. -1.
         -3    1    3    3    0  502  0.22881358945E+03 -0.10364519852E+03 -0.47146907870E+03  0.53421070568E+03  0.00000000000E+00 0.  1.
         11    1    5    5    0    0 -0.34988757587E+03 -0.51556726570E+02 -0.17705927804E+03  0.39551156714E+03  0.00000000000E+00 0. -1.
        -11    1    5    5    0    0 -0.11512833516E+03  0.35732046730E+01 -0.11978175510E+03  0.16617752617E+03  0.00000000000E+00 0.  1.
          1    1    6    6  503    0  0.20019508204E+03  0.95899654441E+02  0.29652332733E+03  0.37040639606E+03  0.00000000000E+00 0. -1.
         -1    1    6    6    0  503  0.58491163792E+01  0.40499192610E+02  0.44420295220E+02  0.60395027874E+02  0.00000000000E+00 0.  1.
<mgrwt>
<rscale>  0 0.15158689E+04</rscale>
<asrwt>0</asrwt>
<pdfrwt beam="1">  1        2 0.85308865E-01 0.15158689E+04</pdfrwt>
<pdfrwt beam="2">  1       -1 0.15938317E+00 0.15158689E+04</pdfrwt>
<totfact> 0.17763871E+01</totfact>
</mgrwt>
</event>
<event>
12    6  0.1530720E-007  0.1002941E+04  0.7818608E-02  0.9305325E-01
          2   -1    0    0  501    0  0.00000000000E+00  0.00000000000E+00  0.46419734629E+03  0.46419734629E+03  0.00000000000E+00 0. -1.
         -1   -1    0    0    0  501 -0.00000000000E+00 -0.00000000000E+00 -0.54173681395E+03  0.54173681395E+03  0.00000000000E+00 0.  1.
         24    2    1    2    0    0 -0.84924641861E+01  0.12876447133E+02  0.48032816034E+02  0.94344069329E+02  0.79722814568E+02 0.  0.
        254    2    1    2    0    0  0.84924641861E+01 -0.12876447133E+02 -0.12557228369E+03  0.91159009092E+03  0.90276806024E+03 0.  0.
         23    2    4    4    0    0  0.39674128912E+03 -0.18987485203E+03  0.25816562734E+02  0.44986131253E+03  0.90843798192E+02 0.  0.
         23    2    4    4    0    0 -0.38824882494E+03  0.17699840489E+03 -0.15138884643E+03  0.46172877839E+03  0.90605168572E+02 0.  0.
          4    1    3    3  502    0  0.28921115145E+02  0.28311593456E+02  0.20266765120E+02  0.45262777132E+02  0.00000000000E+00 0. -1.
         -3    1    3    3    0  502 -0.37413579331E+02 -0.15435146323E+02  0.27766050914E+02  0.49081292197E+02  0.00000000000E+00 0.  1.
         11    1    5    5    0    0  0.29648122400E+03 -0.96743155088E+02  0.90578151984E+01  0.31199743310E+03  0.00000000000E+00 0. -1.
        -11    1    5    5    0    0  0.10026006512E+03 -0.93131696938E+02  0.16758747536E+02  0.13786387943E+03  0.00000000000E+00 0.  1.
          4    1    6    6  503    0 -0.37258613776E+03  0.18259592577E+03 -0.13036597961E+03  0.43492182148E+03  0.00000000000E+00 0.  1.
         -4    1    6    6    0  503 -0.15662687172E+02 -0.55975208766E+01 -0.21022866818E+02  0.26806956908E+02  0.00000000000E+00 0. -1.
<mgrwt>
<rscale>  0 0.10029413E+04</rscale>
<asrwt>0</asrwt>
<pdfrwt beam="1">  1        2 0.71414976E-01 0.10029413E+04</pdfrwt>
<pdfrwt beam="2">  1       -1 0.83344125E-01 0.10029413E+04</pdfrwt>
<totfact> 0.10955220E+02</totfact>
</mgrwt>
</event>
<event>
12    6  0.1530720E-007  0.2104314E+04  0.7818608E-02  0.8559345E-01
         -1   -1    0    0    0  501 -0.00000000000E+00  0.00000000000E+00  0.14114985692E+04  0.14114985692E+04  0.00000000000E+00 0.  1.
          2   -1    0    0  501    0  0.00000000000E+00 -0.00000000000E+00 -0.78429706866E+03  0.78429706866E+03  0.00000000000E+00 0. -1.
         24    2    1    2    0    0  0.32690200261E+03  0.65216597428E+03 -0.22289394228E+03  0.76703364586E+03  0.80458231760E+02 0.  0.
        254    2    1    2    0    0 -0.32690200261E+03 -0.65216597428E+03  0.85009544280E+03  0.14287619920E+04  0.88685578904E+03 0.  0.
         23    2    4    4    0    0 -0.23780107945E+02  0.18129041438E+03  0.35353985608E+03  0.40821956563E+03  0.90670149662E+02 0.  0.
         23    2    4    4    0    0 -0.30312189466E+03 -0.83345638866E+03  0.49655558672E+03  0.10205424264E+04  0.91689467625E+02 0.  0.
          4    1    3    3  502    0  0.30471446006E+03  0.57743058832E+03 -0.17658478560E+03  0.67635728206E+03  0.00000000000E+00 0. -1.
         -1    1    3    3    0  502  0.22187542551E+02  0.74735385964E+02 -0.46309156675E+02  0.90676363798E+02  0.00000000000E+00 0.  1.
         11    1    5    5    0    0 -0.45829776616E+02  0.17403719120E+03  0.32425416359E+03  0.37085047519E+03  0.00000000000E+00 0.  1.
        -11    1    5    5    0    0  0.22049668671E+02  0.72532231834E+01  0.29285692498E+02  0.37369090438E+02  0.00000000000E+00 0. -1.
          2    1    6    6  503    0 -0.88955802466E+02 -0.34910207509E+03  0.23255179030E+03  0.42879567255E+03  0.00000000000E+00 0. -1.
         -2    1    6    6    0  503 -0.21416609220E+03 -0.48435431358E+03  0.26400379642E+03  0.59174675381E+03  0.00000000000E+00 0.  1.
<mgrwt>
<rscale>  0 0.21043138E+04</rscale>
<asrwt>0</asrwt>
<pdfrwt beam="1">  1        2 0.12066109E+00 0.21043138E+04</pdfrwt>
<pdfrwt beam="2">  1       -1 0.21715363E+00 0.21043138E+04</pdfrwt>
<totfact> 0.42751506E+00</totfact>
</mgrwt>
</event>
<event>
12    6  0.1530720E-007  0.3527075E+04  0.7818608E-02  0.8107403E-01
         -1   -1    0    0    0  501 -0.00000000000E+00  0.00000000000E+00  0.22003967570E+04  0.22003967570E+04  0.00000000000E+00 0.  1.
          2   -1    0    0  501    0  0.00000000000E+00 -0.00000000000E+00 -0.14134104715E+04  0.14134104715E+04  0.00000000000E+00 0. -1.
         24    2    1    2    0    0 -0.10368945444E+04  0.45908611473E+03 -0.85876738749E+03  0.14245831866E+04  0.77752638551E+02 0.  0.
        254    2    1    2    0    0  0.10368945444E+04 -0.45908611473E+03  0.16457536730E+04  0.21892240419E+04  0.89346874381E+03 0.  0.
         23    2    4    4    0    0  0.97960747238E+03 -0.26526096578E+03  0.74629395242E+03  0.12629177303E+04  0.89511731910E+02 0.  0.
         23    2    4    4    0    0  0.57287072046E+02 -0.19382514894E+03  0.89945972062E+03  0.92630631158E+03  0.90363692174E+02 0.  0.
          2    1    3    3  502    0 -0.10292645882E+04  0.44870801820E+03 -0.85457823982E+03  0.14110380739E+04  0.00000000000E+00 0. -1.
         -1    1    3    3    0  502 -0.76299562214E+01  0.10378096532E+02 -0.41891476734E+01  0.13545112690E+02  0.00000000000E+00 0.  1.
         11    1    5    5    0    0  0.87105717331E+03 -0.26218340765E+03  0.65329626830E+03  0.11199449775E+04  0.00000000000E+00 0.  1.
        -11    1    5    5    0    0  0.10855029908E+03 -0.30775581297E+01  0.92997684120E+02  0.14297275281E+03  0.00000000000E+00 0. -1.
          3    1    6    6  503    0 -0.22747124764E+02 -0.21173520258E+02  0.13044767366E+03  0.13409826698E+03  0.00000000000E+00 0. -1.
         -3    1    6    6    0  503  0.80034196809E+02 -0.17265162869E+03  0.76901204696E+03  0.79220804460E+03  0.00000000000E+00 0.  1.
<mgrwt>
<rscale>  0 0.35270746E+04</rscale>
<asrwt>0</asrwt>
<pdfrwt beam="1">  1        2 0.21744777E+00 0.35270746E+04</pdfrwt>
<pdfrwt beam="2">  1       -1 0.33852258E+00 0.35270746E+04</pdfrwt>
<totfact> 0.24553920E-01</totfact>
</mgrwt>
</event>
<event>
12    6  0.1530720E-007  0.1910401E+04  0.7818608E-02  0.8649696E-01
         -1   -1    0    0    0  501 -0.00000000000E+00  0.00000000000E+00  0.50483296017E+03  0.50483296017E+03  0.00000000000E+00 0.  1.
          2   -1    0    0  501    0  0.00000000000E+00 -0.00000000000E+00 -0.18073467707E+04  0.18073467707E+04  0.00000000000E+00 0. -1.
         24    2    1    2    0    0  0.23151475011E+03  0.42626153264E+03 -0.11834176114E+04  0.12814617414E+04  0.79805876475E+02 0.  0.
        254    2    1    2    0    0 -0.23151475011E+03 -0.42626153264E+03 -0.11909619905E+03  0.10307179894E+04  0.90160839356E+03 0.  0.
         23    2    4    4    0    0 -0.36080005994E+03  0.71343839638E+02  0.18930270273E+03  0.42363290979E+03  0.91447811843E+02 0.  0.
         23    2    4    4    0    0  0.12928530983E+03 -0.49760537227E+03 -0.30839890178E+03  0.60708507962E+03  0.95480958428E+02 0.  0.
          4    1    3    3  502    0  0.18249875290E+03  0.27794246773E+03 -0.86736736791E+03  0.92891547575E+03  0.00000000000E+00 0. -1.
         -3    1    3    3    0  502  0.49015997212E+02  0.14831906490E+03 -0.31605024353E+03  0.35254626566E+03  0.00000000000E+00 0.  1.
         11    1    5    5    0    0 -0.11447406848E+03 -0.19306168176E+02  0.48964195839E+02  0.12599417827E+03  0.00000000000E+00 0. -1.
        -11    1    5    5    0    0 -0.24632599147E+03  0.90650007814E+02  0.14033850689E+03  0.29763873153E+03  0.00000000000E+00 0.  1.
          2    1    6    6  503    0  0.29313271131E+01 -0.36214279615E+02  0.27202313541E+01  0.36434412103E+02  0.00000000000E+00 0. -1.
         -2    1    6    6    0  503  0.12635398272E+03 -0.46139109266E+03 -0.31111913313E+03  0.57065066751E+03  0.00000000000E+00 0.  1.
<mgrwt>
<rscale>  0 0.19104012E+04</rscale>
<asrwt>0</asrwt>
<pdfrwt beam="1">  1        2 0.27805336E+00 0.19104012E+04</pdfrwt>
<pdfrwt beam="2">  1       -1 0.77666607E-01 0.19104012E+04</pdfrwt>
<totfact> 0.15132097E+01</totfact>
</mgrwt>
</event>
<event>
12    6  0.1530720E-007  0.1506645E+04  0.7818608E-02  0.8880046E-01
         -1   -1    0    0    0  501 -0.00000000000E+00  0.00000000000E+00  0.76980335191E+03  0.76980335191E+03  0.00000000000E+00 0.  1.
          2   -1    0    0  501    0  0.00000000000E+00 -0.00000000000E+00 -0.73719461309E+03  0.73719461309E+03  0.00000000000E+00 0. -1.
         24    2    1    2    0    0 -0.16054510543E+03  0.25746242180E+03 -0.34142643214E+03  0.46363407154E+03  0.79516754308E+02 0.  0.
        254    2    1    2    0    0  0.16054510543E+03 -0.25746242180E+03  0.37403517096E+03  0.10433638935E+04  0.92555079578E+03 0.  0.
         23    2    4    4    0    0  0.33592979651E+03 -0.38474804015E+02  0.58335348658E+03  0.68180127436E+03  0.10110662038E+03 0.  0.
         23    2    4    4    0    0 -0.17538469108E+03 -0.21898761778E+03 -0.20931831562E+03  0.36156261911E+03  0.90542827841E+02 0.  0.
          2    1    3    3  502    0 -0.88516650482E+02  0.82046997174E+02 -0.16651949330E+03  0.20565905963E+03  0.00000000000E+00 0. -1.
         -3    1    3    3    0  502 -0.72028454943E+02  0.17541542462E+03 -0.17490693884E+03  0.25797501191E+03  0.00000000000E+00 0.  1.
         11    1    5    5    0    0  0.16254264411E+03 -0.14064976764E+02  0.37942930979E+03  0.41301880811E+03  0.00000000000E+00 0. -1.
        -11    1    5    5    0    0  0.17338715240E+03 -0.24409827251E+02  0.20392417680E+03  0.26878246625E+03  0.00000000000E+00 0.  1.
          3    1    6    6  503    0 -0.14427590062E+03 -0.21647376885E+03 -0.16759735174E+03  0.30945969109E+03  0.00000000000E+00 0. -1.
         -3    1    6    6    0  503 -0.31108790464E+02 -0.25138489293E+01 -0.41720963883E+02  0.52102928016E+02  0.00000000000E+00 0.  1.
<mgrwt>
<rscale>  0 0.15066451E+04</rscale>
<asrwt>0</asrwt>
<pdfrwt beam="1">  1        2 0.11341455E+00 0.15066451E+04</pdfrwt>
<pdfrwt beam="2">  1       -1 0.11843129E+00 0.15066451E+04</pdfrwt>
<totfact> 0.27045791E+01</totfact>
</mgrwt>
</event>
<event>
12    6  0.1530720E-007  0.1368335E+04  0.7818608E-02  0.8977064E-01
          4   -1    0    0  501    0  0.00000000000E+00  0.00000000000E+00  0.54279833622E+03  0.54279833622E+03  0.00000000000E+00 0. -1.
         -3   -1    0    0    0  501 -0.00000000000E+00 -0.00000000000E+00 -0.86235512859E+03  0.86235512859E+03  0.00000000000E+00 0.  1.
         24    2    1    2    0    0 -0.64434440956E+02 -0.19431472895E+03 -0.42491398091E+03  0.47790607520E+03  0.77021519502E+02 0.  0.
        254    2    1    2    0    0  0.64434440956E+02  0.19431472895E+03  0.10535718855E+03  0.92724738961E+03  0.89820797886E+03 0.  0.
         23    2    4    4    0    0  0.45394563066E+01 -0.34894573122E+03  0.97069847389E+02  0.37329232324E+03  0.90226788248E+02 0.  0.
         23    2    4    4    0    0  0.59894984650E+02  0.54326046017E+03  0.82873411583E+01  0.55395506637E+03  0.89878800387E+02 0.  0.
          2    1    3    3  502    0 -0.35051329934E+02 -0.17244649436E+02 -0.68864000725E+02  0.79172117947E+02  0.00000000000E+00 0. -1.
         -1    1    3    3    0  502 -0.29383111022E+02 -0.17707007951E+03 -0.35604998019E+03  0.39873395725E+03  0.00000000000E+00 0.  1.
         11    1    5    5    0    0 -0.31556828670E+02 -0.28430758446E+03  0.83827343449E+02  0.29808330971E+03  0.00000000000E+00 0. -1.
        -11    1    5    5    0    0  0.36096284977E+02 -0.64638146757E+02  0.13242503940E+02  0.75209013529E+02  0.00000000000E+00 0.  1.
          1    1    6    6  503    0  0.57197671777E+02  0.50669452113E+03  0.30950299830E+02  0.51085108638E+03  0.00000000000E+00 0. -1.
         -1    1    6    6    0  503  0.26973128732E+01  0.36565939043E+02 -0.22662958672E+02  0.43103979986E+02  0.00000000000E+00 0.  1.
<mgrwt>
<rscale>  0 0.13683347E+04</rscale>
<asrwt>0</asrwt>
<pdfrwt beam="1">  1        4 0.83507438E-01 0.13683347E+04</pdfrwt>
<pdfrwt beam="2">  1       -3 0.13267002E+00 0.13683347E+04</pdfrwt>
<totfact> 0.12385898E+00</totfact>
</mgrwt>
</event>
<event>
12    6  0.1530720E-007  0.1434607E+04  0.7818608E-02  0.8929142E-01
         -1   -1    0    0    0  501 -0.00000000000E+00  0.00000000000E+00  0.40922962626E+03  0.40922962626E+03  0.00000000000E+00 0.  1.
          2   -1    0    0  501    0  0.00000000000E+00 -0.00000000000E+00 -0.12573003739E+04  0.12573003739E+04  0.00000000000E+00 0. -1.
         24    2    1    2    0    0 -0.80627627553E+02  0.16129183283E+02 -0.75294642884E+03  0.76209988309E+03  0.84302682201E+02 0.  0.
        254    2    1    2    0    0  0.80627627553E+02 -0.16129183283E+02 -0.95124318838E+02  0.90443011712E+03  0.89564738365E+03 0.  0.
         23    2    4    4    0    0  0.42833730042E+03  0.19766567423E+03 -0.24549412756E+02  0.48101199682E+03  0.90693471239E+02 0.  0.
         23    2    4    4    0    0 -0.34770967286E+03 -0.21379485751E+03 -0.70574906082E+02  0.42341812029E+03  0.87703075903E+02 0.  0.
          2    1    3    3  502    0 -0.93702759835E+02  0.28366302203E+02 -0.57726898383E+03  0.58551202720E+03  0.00000000000E+00 0. -1.
         -1    1    3    3    0  502  0.13075132282E+02 -0.12237118920E+02 -0.17567744501E+03  0.17658785590E+03  0.00000000000E+00 0.  1.
         11    1    5    5    0    0  0.38840920280E+03  0.14794723986E+03 -0.31734484011E+02  0.41684190298E+03  0.00000000000E+00 0. -1.
        -11    1    5    5    0    0  0.39928097616E+02  0.49718434368E+02  0.71850712548E+01  0.64170093846E+02  0.00000000000E+00 0.  1.
          2    1    6    6  503    0 -0.15381990655E+03 -0.90832336386E+02 -0.75098366096E+02  0.19378039523E+03  0.00000000000E+00 0.  1.
         -2    1    6    6    0  503 -0.19388976632E+03 -0.12296252112E+03  0.45234600140E+01  0.22963772507E+03  0.00000000000E+00 0. -1.
<mgrwt>
<rscale>  0 0.14346073E+04</rscale>
<asrwt>0</asrwt>
<pdfrwt beam="1">  1        2 0.19343082E+00 0.14346073E+04</pdfrwt>
<pdfrwt beam="2">  1       -1 0.62958405E-01 0.14346073E+04</pdfrwt>
<totfact> 0.49601337E+01</totfact>
</mgrwt>
</event>
<event>
12    6  0.1530720E-007  0.2545469E+04  0.7818608E-02  0.8386964E-01
          2   -1    0    0  501    0  0.00000000000E+00  0.00000000000E+00  0.16949420973E+04  0.16949420973E+04  0.00000000000E+00 0. -1.
         -1   -1    0    0    0  501 -0.00000000000E+00 -0.00000000000E+00 -0.95569826739E+03  0.95569826739E+03  0.00000000000E+00 0.  1.
         24    2    1    2    0    0 -0.68634418146E+03 -0.87465786050E+03  0.42021219982E+03  0.11913712513E+04  0.81807439461E+02 0.  0.
        254    2    1    2    0    0  0.68634418146E+03  0.87465786050E+03  0.31903163011E+03  0.14592691134E+04  0.88971369328E+03 0.  0.
         23    2    4    4    0    0 -0.78989041086E+02  0.55434288017E+03  0.25298487983E+03  0.62161787076E+03  0.94191987037E+02 0.  0.
         23    2    4    4    0    0  0.76533322254E+03  0.32031498034E+03  0.66046750280E+02  0.83765124266E+03  0.94661517789E+02 0.  0.
          2    1    3    3  502    0 -0.43494785140E+03 -0.50756959650E+03  0.28190851884E+03  0.72545085411E+03  0.00000000000E+00 0. -1.
         -1    1    3    3    0  502 -0.25139633006E+03 -0.36708826400E+03  0.13830368098E+03  0.46592039718E+03  0.00000000000E+00 0.  1.
         11    1    5    5    0    0  0.10635603346E+02  0.11451428098E+02 -0.84864625922E+00  0.15651564283E+02  0.00000000000E+00 0. -1.
        -11    1    5    5    0    0 -0.89624644432E+02  0.54289145207E+03  0.25383352609E+03  0.60596630648E+03  0.00000000000E+00 0.  1.
          3    1    6    6  503    0  0.42407187685E+03  0.22818039781E+03  0.38249599843E+02  0.48307999603E+03  0.00000000000E+00 0. -1.
         -3    1    6    6    0  503  0.34126134569E+03  0.92134582528E+02  0.27797150437E+02  0.35457124662E+03  0.00000000000E+00 0.  1.
<mgrwt>
<rscale>  0 0.25454691E+04</rscale>
<asrwt>0</asrwt>
<pdfrwt beam="1">  1        2 0.26076032E+00 0.25454691E+04</pdfrwt>
<pdfrwt beam="2">  1       -1 0.14703050E+00 0.25454691E+04</pdfrwt>
<totfact> 0.36763133E+00</totfact>
</mgrwt>
</event>
<event>
12    6  0.1530720E-007  0.1313347E+04  0.7818608E-02  0.9019047E-01
         -1   -1    0    0    0  501 -0.00000000000E+00  0.00000000000E+00  0.13430886641E+03  0.13430886641E+03  0.00000000000E+00 0.  1.
          2   -1    0    0  501    0  0.00000000000E+00 -0.00000000000E+00 -0.32106615296E+04  0.32106615296E+04  0.00000000000E+00 0. -1.
         24    2    1    2    0    0  0.22982860251E+03  0.11263800152E+03 -0.13516532718E+04  0.13780781088E+04  0.81389194442E+02 0.  0.
        254    2    1    2    0    0 -0.22982860251E+03 -0.11263800152E+03 -0.17246993914E+04  0.19668922872E+04  0.91025753100E+03 0.  0.
         23    2    4    4    0    0 -0.39211508886E+03  0.19770334261E+03 -0.42660165144E+03  0.61917150398E+03  0.92431205454E+02 0.  0.
         23    2    4    4    0    0  0.16228648635E+03 -0.31034134413E+03 -0.12980977400E+04  0.13477207832E+04  0.92978026632E+02 0.  0.
          4    1    3    3  502    0  0.18825914575E+03  0.95602912641E+02 -0.12378522121E+04  0.12557306725E+04  0.00000000000E+00 0. -1.
         -3    1    3    3    0  502  0.41569456759E+02  0.17035088882E+02 -0.11380105967E+03  0.12234743631E+03  0.00000000000E+00 0.  1.
         11    1    5    5    0    0 -0.18242889858E+03  0.41566884924E+02 -0.18758693892E+03  0.26494710531E+03  0.00000000000E+00 0.  1.
        -11    1    5    5    0    0 -0.20968619028E+03  0.15613645769E+03 -0.23901471252E+03  0.35422439867E+03  0.00000000000E+00 0. -1.
          3    1    6    6  503    0  0.69088187935E+02 -0.13845912240E+03 -0.40696330383E+03  0.43538860452E+03  0.00000000000E+00 0. -1.
         -3    1    6    6    0  503  0.93198298414E+02 -0.17188222174E+03 -0.89113443618E+03  0.91233217872E+03  0.00000000000E+00 0.  1.
<mgrwt>
<rscale>  0 0.13133473E+04</rscale>
<asrwt>0</asrwt>
<pdfrwt beam="1">  1        2 0.49394794E+00 0.13133473E+04</pdfrwt>
<pdfrwt beam="2">  1       -1 0.20662902E-01 0.13133473E+04</pdfrwt>
<totfact> 0.27966918E+01</totfact>
</mgrwt>
</event>
<event>
12    6  0.1530720E-007  0.1801200E+04  0.7818608E-02  0.8705662E-01
         -1   -1    0    0    0  501 -0.00000000000E+00  0.00000000000E+00  0.52281092017E+03  0.52281092017E+03  0.00000000000E+00 0.  1.
          2   -1    0    0  501    0  0.00000000000E+00 -0.00000000000E+00 -0.15513830355E+04  0.15513830355E+04  0.00000000000E+00 0. -1.
         24    2    1    2    0    0  0.43045204182E+03 -0.16376296305E+03 -0.96704727242E+03  0.10740155809E+04  0.78878213079E+02 0.  0.
        254    2    1    2    0    0 -0.43045204182E+03  0.16376296305E+03 -0.61524842908E+02  0.10001783748E+04  0.88569984010E+03 0.  0.
         23    2    4    4    0    0  0.21472774699E+03  0.10390435466E+03  0.16631469773E+03  0.30691970797E+03  0.98158077680E+02 0.  0.
         23    2    4    4    0    0 -0.64517978881E+03  0.59858608394E+02 -0.22783954064E+03  0.69325866683E+03  0.94110094921E+02 0.  0.
          2    1    3    3  502    0  0.41282349933E+03 -0.16641622214E+03 -0.89207624535E+03  0.99695417554E+03  0.00000000000E+00 0. -1.
         -3    1    3    3    0  502  0.17628542482E+02  0.26532590848E+01 -0.74971027062E+02  0.77061405337E+02  0.00000000000E+00 0.  1.
         11    1    5    5    0    0  0.13849545337E+03  0.11583335153E+03  0.12254091205E+03  0.21820777038E+03  0.00000000000E+00 0.  1.
        -11    1    5    5    0    0  0.76232293626E+02 -0.11928996869E+02  0.43773785677E+02  0.88711937586E+02  0.00000000000E+00 0. -1.
          1    1    6    6  503    0 -0.24854947949E+03  0.14302311087E+02 -0.40430239660E+02  0.25222213252E+03  0.00000000000E+00 0. -1.
         -1    1    6    6    0  503 -0.39663030932E+03  0.45556297307E+02 -0.18740930098E+03  0.44103653430E+03  0.00000000000E+00 0.  1.
<mgrwt>
<rscale>  0 0.18011996E+04</rscale>
<asrwt>0</asrwt>
<pdfrwt beam="1">  1        2 0.23867431E+00 0.18011996E+04</pdfrwt>
<pdfrwt beam="2">  1       -1 0.80432450E-01 0.18011996E+04</pdfrwt>
<totfact> 0.19694305E+01</totfact>
</mgrwt>
</event>
<event>
12    6  0.1530720E-007  0.1070537E+04  0.7818608E-02  0.9234394E-01
          2   -1    0    0  501    0  0.00000000000E+00  0.00000000000E+00  0.66806057003E+03  0.66806057003E+03  0.00000000000E+00 0. -1.
         -1   -1    0    0    0  501 -0.00000000000E+00 -0.00000000000E+00 -0.42887205147E+03  0.42887205147E+03  0.00000000000E+00 0.  1.
         24    2    1    2    0    0 -0.10258586197E+03 -0.58955549623E+02  0.20265274872E+02  0.14328225490E+03  0.78227279744E+02 0.  0.
        254    2    1    2    0    0  0.10258586197E+03  0.58955549623E+02  0.21892324369E+03  0.95365036661E+03  0.92060959108E+03 0.  0.
         23    2    4    4    0    0  0.48101059486E+03 -0.93447599278E+02  0.19037657625E+03  0.53474369483E+03  0.97999654106E+02 0.  0.
         23    2    4    4    0    0 -0.37842473289E+03  0.15240314890E+03  0.28546667438E+02  0.41890667177E+03  0.90751799838E+02 0.  0.
          2    1    3    3  502    0 -0.85305022360E+02 -0.74377850564E+02  0.31585868679E+02  0.11750182379E+03  0.00000000000E+00 0. -1.
         -1    1    3    3    0  502 -0.17280839606E+02  0.15422300941E+02 -0.11320593807E+02  0.25780431105E+02  0.00000000000E+00 0.  1.
         11    1    5    5    0    0  0.46675493349E+03 -0.10540327304E+03  0.17169834023E+03  0.50838011168E+03  0.00000000000E+00 0. -1.
        -11    1    5    5    0    0  0.14255661362E+02  0.11955673766E+02  0.18678236022E+02  0.26363583159E+02  0.00000000000E+00 0.  1.
          3    1    6    6  503    0 -0.26686275587E+03  0.12417917643E+03  0.58271280781E+02  0.30005289615E+03  0.00000000000E+00 0. -1.
         -3    1    6    6    0  503 -0.11156197702E+03  0.28223972473E+02 -0.29724613344E+02  0.11885377562E+03  0.00000000000E+00 0.  1.
<mgrwt>
<rscale>  0 0.10705373E+04</rscale>
<asrwt>0</asrwt>
<pdfrwt beam="1">  1        2 0.10277855E+00 0.10705373E+04</pdfrwt>
<pdfrwt beam="2">  1       -1 0.65980316E-01 0.10705373E+04</pdfrwt>
<totfact> 0.11496512E+02</totfact>
</mgrwt>
</event>
<event>
12    6  0.1530720E-007  0.2071539E+04  0.7818608E-02  0.8573885E-01
         -3   -1    0    0    0  501 -0.00000000000E+00  0.00000000000E+00  0.73399907075E+03  0.73399907075E+03  0.00000000000E+00 0.  1.
          2   -1    0    0  501    0  0.00000000000E+00 -0.00000000000E+00 -0.14616080072E+04  0.14616080072E+04  0.00000000000E+00 0. -1.
         24    2    1    2    0    0  0.17225201656E+02  0.39876350330E+03  0.48725579508E+03  0.63543360773E+03  0.83956065050E+02 0.  0.
        254    2    1    2    0    0 -0.17225201656E+02 -0.39876350330E+03 -0.12148647315E+04  0.15601734702E+04  0.89383214426E+03 0.  0.
         23    2    4    4    0    0 -0.87783769333E+01 -0.37109813884E+03 -0.44625366419E+02  0.38507763948E+03  0.92208874545E+02 0.  0.
         23    2    4    4    0    0 -0.84468247224E+01 -0.27665364457E+02 -0.11702393651E+04  0.11750958307E+04  0.10272934610E+03 0.  0.
          4    1    3    3  502    0 -0.44454734067E+01  0.54379986982E+02  0.29001224356E+02  0.61790098172E+02  0.00000000000E+00 0. -1.
         -3    1    3    3    0  502  0.21670675062E+02  0.34438351631E+03  0.45825457073E+03  0.57364350956E+03  0.00000000000E+00 0.  1.
         11    1    5    5    0    0  0.10221250545E+02 -0.18604277434E+02  0.16414846695E+02  0.26833566545E+02  0.00000000000E+00 0.  1.
        -11    1    5    5    0    0 -0.18999627479E+02 -0.35249386141E+03 -0.61040213114E+02  0.35824407293E+03  0.00000000000E+00 0. -1.
          2    1    6    6  503    0 -0.51500140737E+02 -0.18065134495E+02 -0.86078421456E+03  0.86251265360E+03  0.00000000000E+00 0. -1.
         -2    1    6    6    0  503  0.43053316015E+02 -0.96002299616E+01 -0.30945515051E+03  0.31258317711E+03  0.00000000000E+00 0.  1.
<mgrwt>
<rscale>  0 0.20715394E+04</rscale>
<asrwt>0</asrwt>
<pdfrwt beam="1">  1        2 0.22486277E+00 0.20715394E+04</pdfrwt>
<pdfrwt beam="2">  1       -3 0.11292293E+00 0.20715394E+04</pdfrwt>
<totfact> 0.51294137E+00</totfact>
</mgrwt>
</event>
<event>
12    6  0.1530720E-007  0.2091890E+04  0.7818608E-02  0.8564824E-01
          2   -1    0    0  501    0  0.00000000000E+00  0.00000000000E+00  0.19522644159E+04  0.19522644159E+04  0.00000000000E+00 0. -1.
         -1   -1    0    0    0  501 -0.00000000000E+00 -0.00000000000E+00 -0.56037534978E+03  0.56037534978E+03  0.00000000000E+00 0.  1.
         24    2    1    2    0    0  0.80980441012E+03  0.26025803700E+03  0.57318460174E+03  0.10289432933E+04  0.81647319485E+02 0.  0.
        254    2    1    2    0    0 -0.80980441012E+03 -0.26025803700E+03  0.81870446433E+03  0.14836964723E+04  0.89864386354E+03 0.  0.
         23    2    4    4    0    0 -0.10713137094E+03 -0.44405706893E+03  0.50204152231E+03  0.68604289540E+03  0.99726391219E+02 0.  0.
         23    2    4    4    0    0 -0.70267303918E+03  0.18379903193E+03  0.31666294202E+03  0.79765357688E+03  0.91893012456E+02 0.  0.
          4    1    3    3  502    0  0.79986374053E+03  0.24557840912E+03  0.56305870073E+03  0.10085265782E+04  0.00000000000E+00 0. -1.
         -3    1    3    3    0  502  0.99406695869E+01  0.14679627883E+02  0.10125901010E+02  0.20416715159E+02  0.00000000000E+00 0.  1.
         11    1    5    5    0    0  0.69510784476E+01 -0.15044703781E+03  0.13380361173E+03  0.20145976072E+03  0.00000000000E+00 0. -1.
        -11    1    5    5    0    0 -0.11408244939E+03 -0.29361003112E+03  0.36823791058E+03  0.48458313468E+03  0.00000000000E+00 0.  1.
          1    1    6    6  503    0 -0.17086921534E+03  0.94856224570E+01  0.94813973071E+02  0.19564241686E+03  0.00000000000E+00 0. -1.
         -1    1    6    6    0  503 -0.53180382384E+03  0.17431340947E+03  0.22184896895E+03  0.60201116003E+03  0.00000000000E+00 0.  1.
<mgrwt>
<rscale>  0 0.20918899E+04</rscale>
<asrwt>0</asrwt>
<pdfrwt beam="1">  1        2 0.30034837E+00 0.20918899E+04</pdfrwt>
<pdfrwt beam="2">  1       -1 0.86211593E-01 0.20918899E+04</pdfrwt>
<totfact> 0.98982877E+00</totfact>
</mgrwt>
</event>
<event>
12    6  0.1530720E-007  0.2435329E+04  0.7818608E-02  0.8426394E-01
          2   -1    0    0  501    0  0.00000000000E+00  0.00000000000E+00  0.16803327038E+04  0.16803327038E+04  0.00000000000E+00 0. -1.
         -1   -1    0    0    0  501 -0.00000000000E+00 -0.00000000000E+00 -0.88238908308E+03  0.88238908308E+03  0.00000000000E+00 0.  1.
         24    2    1    2    0    0  0.80281595312E+03  0.67718503867E+03  0.37379198636E+03  0.11177364302E+04  0.80754238599E+02 0.  0.
        254    2    1    2    0    0 -0.80281595312E+03 -0.67718503867E+03  0.42415163438E+03  0.14449853567E+04  0.89720958592E+03 0.  0.
         23    2    4    4    0    0 -0.55136924654E+03 -0.56445177336E+03  0.68917494426E+03  0.10516824042E+04  0.91977850476E+02 0.  0.
         23    2    4    4    0    0 -0.25144670658E+03 -0.11273326531E+03 -0.26502330988E+03  0.39330295256E+03  0.92280129822E+02 0.  0.
          2    1    3    3  502    0  0.76590530777E+03  0.63842892252E+03  0.33588170291E+03  0.10521496794E+04  0.00000000000E+00 0. -1.
         -3    1    3    3    0  502  0.36910645344E+02  0.38756116150E+02  0.37910283452E+02  0.65586750721E+02  0.00000000000E+00 0.  1.
         11    1    5    5    0    0 -0.80033272292E+01 -0.31799855893E+02  0.37947061010E+02  0.50152402942E+02  0.00000000000E+00 0.  1.
        -11    1    5    5    0    0 -0.54336591931E+03 -0.53265191747E+03  0.65122788325E+03  0.10015300012E+04  0.00000000000E+00 0. -1.
          1    1    6    6  503    0 -0.16724922610E+03 -0.11729436276E+03 -0.20782204528E+03  0.29141083314E+03  0.00000000000E+00 0. -1.
         -1    1    6    6    0  503 -0.84197480484E+02  0.45610974522E+01 -0.57201264599E+02  0.10189211943E+03  0.00000000000E+00 0.  1.
<mgrwt>
<rscale>  0 0.24353293E+04</rscale>
<asrwt>0</asrwt>
<pdfrwt beam="1">  1        2 0.25851272E+00 0.24353293E+04</pdfrwt>
<pdfrwt beam="2">  1       -1 0.13575217E+00 0.24353293E+04</pdfrwt>
<totfact> 0.46627627E+00</totfact>
</mgrwt>
</event>
<event>
12    6  0.1530720E-007  0.1509825E+04  0.7818608E-02  0.8877946E-01
         -1   -1    0    0    0  501 -0.00000000000E+00  0.00000000000E+00  0.54617914328E+03  0.54617914328E+03  0.00000000000E+00 0.  1.
          2   -1    0    0  501    0  0.00000000000E+00 -0.00000000000E+00 -0.10434170555E+04  0.10434170555E+04  0.00000000000E+00 0. -1.
         24    2    1    2    0    0 -0.34637913235E+03  0.29847137724E+03 -0.34559802979E+03  0.57863181232E+03  0.79455079615E+02 0.  0.
        254    2    1    2    0    0  0.34637913235E+03 -0.29847137724E+03 -0.15163988242E+03  0.10109643865E+04  0.88881419340E+03 0.  0.
         23    2    4    4    0    0 -0.16809012661E+03  0.26078328533E+02  0.21705507912E+03  0.29356031395E+03  0.10064979220E+03 0.  0.
         23    2    4    4    0    0  0.51446925897E+03 -0.32454970577E+03 -0.36869496155E+03  0.71740407250E+03  0.93388964217E+02 0.  0.
          2    1    3    3  502    0 -0.29244869916E+03  0.28238024501E+03 -0.31693611010E+03  0.51547390070E+03  0.00000000000E+00 0. -1.
         -1    1    3    3    0  502 -0.53930433191E+02  0.16091132222E+02 -0.28661919693E+02  0.63157911625E+02  0.00000000000E+00 0.  1.
         11    1    5    5    0    0 -0.10920668537E+03  0.54188792122E+02  0.92794191377E+02  0.15320994509E+03  0.00000000000E+00 0. -1.
        -11    1    5    5    0    0 -0.58883441245E+02 -0.28110463589E+02  0.12426088775E+03  0.14035036886E+03  0.00000000000E+00 0.  1.
          1    1    6    6  503    0  0.19207987754E+03 -0.12244431450E+03 -0.86415777841E+02  0.24362876712E+03  0.00000000000E+00 0. -1.
         -1    1    6    6    0  503  0.32238938143E+03 -0.20210539127E+03 -0.28227918371E+03  0.47377530539E+03  0.00000000000E+00 0.  1.
<mgrwt>
<rscale>  0 0.15098247E+04</rscale>
<asrwt>0</asrwt>
<pdfrwt beam="1">  1        2 0.16052570E+00 0.15098247E+04</pdfrwt>
<pdfrwt beam="2">  1       -1 0.84027561E-01 0.15098247E+04</pdfrwt>
<totfact> 0.36544598E+01</totfact>
</mgrwt>
</event>
<event>
12    6  0.1530720E-007  0.2297311E+04  0.7818608E-02  0.8478982E-01
          2   -1    0    0  501    0  0.00000000000E+00  0.00000000000E+00  0.74159817339E+03  0.74159817339E+03  0.00000000000E+00 0. -1.
         -1   -1    0    0    0  501 -0.00000000000E+00 -0.00000000000E+00 -0.17791441135E+04  0.17791441135E+04  0.00000000000E+00 0.  1.
         24    2    1    2    0    0 -0.62809203536E+03 -0.12130033430E+03  0.35776385203E+03  0.73697694581E+03  0.76984861244E+02 0.  0.
        254    2    1    2    0    0  0.62809203536E+03  0.12130033430E+03 -0.13953097921E+04  0.17837653411E+04  0.90868916577E+03 0.  0.
         23    2    4    4    0    0  0.18568814404E+03  0.26847660904E+03 -0.12372783979E+04  0.12828249273E+04  0.90676257230E+02 0.  0.
         23    2    4    4    0    0  0.44240389131E+03 -0.14717627474E+03 -0.15803139422E+03  0.50094041380E+03  0.92656989632E+02 0.  0.
          4    1    3    3  502    0 -0.55032484235E+03 -0.12754883213E+03  0.29796328948E+03  0.63867695947E+03  0.00000000000E+00 0. -1.
         -3    1    3    3    0  502 -0.77767193007E+02  0.62484978242E+01  0.59800562548E+02  0.98299986339E+02  0.00000000000E+00 0.  1.
         11    1    5    5    0    0  0.60554946770E+02  0.16384326283E+03 -0.59035803869E+03  0.61565747798E+03  0.00000000000E+00 0. -1.
        -11    1    5    5    0    0  0.12513319727E+03  0.10463334621E+03 -0.64692035923E+03  0.66716744929E+03  0.00000000000E+00 0.  1.
          1    1    6    6  503    0 -0.36713098460E+01 -0.27920183809E+01  0.26398658304E+01  0.53143931194E+01  0.00000000000E+00 0. -1.
         -1    1    6    6    0  503  0.44607520116E+03 -0.14438425636E+03 -0.16067126005E+03  0.49562602068E+03  0.00000000000E+00 0.  1.
<mgrwt>
<rscale>  0 0.22973115E+04</rscale>
<asrwt>0</asrwt>
<pdfrwt beam="1">  1        2 0.11409203E+00 0.22973115E+04</pdfrwt>
<pdfrwt beam="2">  1       -1 0.27371448E+00 0.22973115E+04</pdfrwt>
<totfact> 0.19246112E+00</totfact>
</mgrwt>
</event>
<event>
12    6  0.1530720E-007  0.1219527E+04  0.7818608E-02  0.9095934E-01
         -1   -1    0    0    0  501 -0.00000000000E+00  0.00000000000E+00  0.14058614602E+03  0.14058614602E+03  0.00000000000E+00 0.  1.
          2   -1    0    0  501    0  0.00000000000E+00 -0.00000000000E+00 -0.26447246637E+04  0.26447246637E+04  0.00000000000E+00 0. -1.
         24    2    1    2    0    0 -0.22879227578E+03 -0.22030891831E+03 -0.12382683794E+04  0.12809569650E+04  0.81610305102E+02 0.  0.
        254    2    1    2    0    0  0.22879227578E+03  0.22030891831E+03 -0.12658701384E+04  0.15043538448E+04  0.74817869399E+03 0.  0.
         23    2    4    4    0    0  0.21500538204E+03  0.15985508196E+02 -0.12589472245E+04  0.12802842723E+04  0.87731710132E+02 0.  0.
         23    2    4    4    0    0  0.13786893743E+02  0.20432341012E+03 -0.69229138392E+01  0.22406957249E+03  0.90670349165E+02 0.  0.
          4    1    3    3  502    0 -0.20041259701E+03 -0.14947345651E+03 -0.89167365455E+03  0.92606124498E+03  0.00000000000E+00 0. -1.
         -3    1    3    3    0  502 -0.28379678772E+02 -0.70835461802E+02 -0.34659472481E+03  0.35489572001E+03  0.00000000000E+00 0.  1.
         11    1    5    5    0    0  0.16502175420E+03  0.37699142962E+02 -0.77454344584E+03  0.79282466803E+03  0.00000000000E+00 0. -1.
        -11    1    5    5    0    0  0.49983627845E+02 -0.21713634766E+02 -0.48440377867E+03  0.48745960425E+03  0.00000000000E+00 0.  1.
          3    1    6    6  503    0  0.27972833569E+02  0.91699406099E+02  0.36429245699E+02  0.10255900955E+03  0.00000000000E+00 0. -1.
         -3    1    6    6    0  503 -0.14185939826E+02  0.11262400402E+03 -0.43352159538E+02  0.12151056294E+03  0.00000000000E+00 0.  1.
<mgrwt>
<rscale>  0 0.12195272E+04</rscale>
<asrwt>0</asrwt>
<pdfrwt beam="1">  1        2 0.40688072E+00 0.12195272E+04</pdfrwt>
<pdfrwt beam="2">  1       -1 0.21628638E-01 0.12195272E+04</pdfrwt>
<totfact> 0.58098776E+01</totfact>
</mgrwt>
</event>
<event>
12    6  0.1530720E-007  0.2088442E+04  0.7818608E-02  0.8566352E-01
          2   -1    0    0  501    0  0.00000000000E+00  0.00000000000E+00  0.21525314187E+04  0.21525314187E+04  0.00000000000E+00 0. -1.
         -1   -1    0    0    0  501 -0.00000000000E+00 -0.00000000000E+00 -0.50656505983E+03  0.50656505983E+03  0.00000000000E+00 0.  1.
         24    2    1    2    0    0  0.28114662389E+03  0.20916049625E+03 -0.31287980714E+03  0.47664311935E+03  0.80643364243E+02 0.  0.
        254    2    1    2    0    0 -0.28114662389E+03 -0.20916049625E+03  0.19588461660E+04  0.21824533592E+04  0.89623257337E+03 0.  0.
         23    2    4    4    0    0 -0.33406656846E+03 -0.30157662370E+03  0.19863557818E+04  0.20391602094E+04  0.10008064456E+03 0.  0.
         23    2    4    4    0    0  0.52919944566E+02  0.92416127453E+02 -0.27509615785E+02  0.14329314982E+03  0.91841639133E+02 0.  0.
          2    1    3    3  502    0  0.56455412467E+02  0.54025845238E+02 -0.30608635167E+02  0.83921952416E+02  0.00000000000E+00 0. -1.
         -1    1    3    3    0  502  0.22469121142E+03  0.15513465101E+03 -0.28227117197E+03  0.39272116694E+03  0.00000000000E+00 0.  1.
         11    1    5    5    0    0 -0.19316236246E+03 -0.21670091157E+03  0.10994022788E+04  0.11370823866E+04  0.00000000000E+00 0. -1.
        -11    1    5    5    0    0 -0.14090420600E+03 -0.84875712130E+02  0.88695350308E+03  0.90207782281E+03  0.00000000000E+00 0.  1.
          1    1    6    6  503    0  0.35725936613E+02  0.37012243218E+02 -0.58190904616E+02  0.77668720054E+02  0.00000000000E+00 0.  1.
         -1    1    6    6    0  503  0.17194007954E+02  0.55403884235E+02  0.30681288831E+02  0.65624429766E+02  0.00000000000E+00 0. -1.
<mgrwt>
<rscale>  0 0.20884417E+04</rscale>
<asrwt>0</asrwt>
<pdfrwt beam="1">  1        2 0.33115867E+00 0.20884417E+04</pdfrwt>
<pdfrwt beam="2">  1       -1 0.77933087E-01 0.20884417E+04</pdfrwt>
<totfact> 0.95076555E+00</totfact>
</mgrwt>
</event>
<event>
12    6  0.1530720E-007  0.2177177E+04  0.7818608E-02  0.8527988E-01
         -1   -1    0    0    0  501 -0.00000000000E+00  0.00000000000E+00  0.76734381757E+03  0.76734381757E+03  0.00000000000E+00 0.  1.
          2   -1    0    0  501    0  0.00000000000E+00 -0.00000000000E+00 -0.15443208848E+04  0.15443208848E+04  0.00000000000E+00 0. -1.
         24    2    1    2    0    0 -0.42349982842E+03  0.54044047174E+03 -0.92928294206E+03  0.11584789869E+04  0.84135417779E+02 0.  0.
        254    2    1    2    0    0  0.42349982842E+03 -0.54044047174E+03  0.15230587486E+03  0.11531857154E+04  0.91389945105E+03 0.  0.
         23    2    4    4    0    0 -0.27161490317E+03 -0.13216962080E+03  0.12707177586E+03  0.34144699633E+03  0.95892391757E+02 0.  0.
         23    2    4    4    0    0  0.69511473160E+03 -0.40827085094E+03  0.25234099000E+02  0.81173871911E+03  0.91724645244E+02 0.  0.
          4    1    3    3  502    0 -0.35939421941E+03  0.50058601577E+03 -0.83048403457E+03  0.10341442336E+04  0.00000000000E+00 0. -1.
         -3    1    3    3    0  502 -0.64105609020E+02  0.39854455970E+02 -0.98798907496E+02  0.12433475335E+03  0.00000000000E+00 0.  1.
         11    1    5    5    0    0 -0.16942262970E+03 -0.32401164771E+02  0.52345404935E+02  0.18026065669E+03  0.00000000000E+00 0. -1.
        -11    1    5    5    0    0 -0.10219227347E+03 -0.99768456026E+02  0.74726370924E+02  0.16118633964E+03  0.00000000000E+00 0.  1.
          4    1    6    6  503    0  0.15163051447E+03 -0.68245188408E+02 -0.27284208465E+02  0.16850414443E+03  0.00000000000E+00 0.  1.
         -4    1    6    6    0  503  0.54348421713E+03 -0.34002566253E+03  0.52518307465E+02  0.64323457468E+03  0.00000000000E+00 0. -1.
<mgrwt>
<rscale>  0 0.21771771E+04</rscale>
<asrwt>0</asrwt>
<pdfrwt beam="1">  1        2 0.23758783E+00 0.21771771E+04</pdfrwt>
<pdfrwt beam="2">  1       -1 0.11805290E+00 0.21771771E+04</pdfrwt>
<totfact> 0.80552155E+00</totfact>
</mgrwt>
</event>
<event>
12    6  0.1530720E-007  0.1923763E+04  0.7818608E-02  0.8643118E-01
          2   -1    0    0  501    0  0.00000000000E+00  0.00000000000E+00  0.10329426814E+04  0.10329426814E+04  0.00000000000E+00 0. -1.
         -1   -1    0    0    0  501 -0.00000000000E+00 -0.00000000000E+00 -0.89570859172E+03  0.89570859172E+03  0.00000000000E+00 0.  1.
         24    2    1    2    0    0 -0.30794745459E+03 -0.64440258808E+03 -0.15791056906E+03  0.73588257454E+03  0.80629308437E+02 0.  0.
        254    2    1    2    0    0  0.30794745459E+03  0.64440258808E+03  0.29514465871E+03  0.11927686986E+04  0.90857056323E+03 0.  0.
         23    2    4    4    0    0  0.10736184443E+02  0.56223521334E+03  0.54230939641E+03  0.78582306100E+03  0.84821583277E+02 0.  0.
         23    2    4    4    0    0  0.29721127015E+03  0.82167374739E+02 -0.24716473770E+03  0.40694563755E+03  0.97099576661E+02 0.  0.
          2    1    3    3  502    0 -0.98592639085E+02 -0.23152228186E+03 -0.18031802514E+02  0.25228599125E+03  0.00000000000E+00 0. -1.
         -1    1    3    3    0  502 -0.20935481550E+03 -0.41288030622E+03 -0.13987876654E+03  0.48359658329E+03  0.00000000000E+00 0.  1.
         11    1    5    5    0    0 -0.15000695932E+02  0.31552978320E+03  0.25281856171E+03  0.40460016078E+03  0.00000000000E+00 0.  1.
        -11    1    5    5    0    0  0.25736880374E+02  0.24670543015E+03  0.28949083470E+03  0.38122290022E+03  0.00000000000E+00 0. -1.
          1    1    6    6  503    0  0.21315355992E+03  0.57041223493E+02 -0.22771277790E+03  0.31708240333E+03  0.00000000000E+00 0. -1.
         -1    1    6    6    0  503  0.84057710222E+02  0.25126151246E+02 -0.19451959802E+02  0.89863234220E+02  0.00000000000E+00 0.  1.
<mgrwt>
<rscale>  0 0.19237626E+04</rscale>
<asrwt>0</asrwt>
<pdfrwt beam="1">  1        2 0.15891426E+00 0.19237626E+04</pdfrwt>
<pdfrwt beam="2">  1       -1 0.13780132E+00 0.19237626E+04</pdfrwt>
<totfact> 0.11178673E+01</totfact>
</mgrwt>
</event>
<event>
12    6  0.1530720E-007  0.1842739E+04  0.7818608E-02  0.8683896E-01
         -1   -1    0    0    0  501 -0.00000000000E+00  0.00000000000E+00  0.32886275995E+03  0.32886275995E+03  0.00000000000E+00 0.  1.
          2   -1    0    0  501    0  0.00000000000E+00 -0.00000000000E+00 -0.25813858297E+04  0.25813858297E+04  0.00000000000E+00 0. -1.
         24    2    1    2    0    0 -0.57337401152E+03  0.37961532280E+03 -0.98987792494E+03  0.12078779193E+04  0.79026648668E+02 0.  0.
        254    2    1    2    0    0  0.57337401152E+03 -0.37961532280E+03 -0.12626451448E+04  0.17023706704E+04  0.91155229541E+03 0.  0.
         23    2    4    4    0    0 -0.11230077451E+03  0.18895869167E+03 -0.19108052095E+03  0.30567876307E+03  0.92794879104E+02 0.  0.
         23    2    4    4    0    0  0.68567478603E+03 -0.56857401447E+03 -0.10715646239E+04  0.13966919073E+04  0.95242945759E+02 0.  0.
          4    1    3    3  502    0 -0.39178792548E+03  0.26220188960E+03 -0.74018893380E+03  0.87756895295E+03  0.00000000000E+00 0. -1.
         -3    1    3    3    0  502 -0.18158608604E+03  0.11741343320E+03 -0.24968899114E+03  0.33030896633E+03  0.00000000000E+00 0.  1.
         11    1    5    5    0    0 -0.11853696112E+03  0.15743929108E+03 -0.18966697951E+03  0.27351728399E+03  0.00000000000E+00 0. -1.
        -11    1    5    5    0    0  0.62361866053E+01  0.31519400587E+02 -0.14135414469E+01  0.32161479073E+02  0.00000000000E+00 0.  1.
          1    1    6    6  503    0  0.21768059037E+03 -0.19508288228E+03 -0.28593267029E+03  0.40890055309E+03  0.00000000000E+00 0. -1.
         -1    1    6    6    0  503  0.46799419567E+03 -0.37349113219E+03 -0.78563195358E+03  0.98779135423E+03  0.00000000000E+00 0.  1.
<mgrwt>
<rscale>  0 0.18427389E+04</rscale>
<asrwt>0</asrwt>
<pdfrwt beam="1">  1        2 0.39713628E+00 0.18427389E+04</pdfrwt>
<pdfrwt beam="2">  1       -1 0.50594271E-01 0.18427389E+04</pdfrwt>
<totfact> 0.13135820E+01</totfact>
</mgrwt>
</event>
<event>
12    6  0.1530720E-007  0.1136802E+04  0.7818608E-02  0.9170047E-01
         -1   -1    0    0    0  501 -0.00000000000E+00  0.00000000000E+00  0.19150583264E+03  0.19150583264E+03  0.00000000000E+00 0.  1.
          2   -1    0    0  501    0  0.00000000000E+00 -0.00000000000E+00 -0.16870482013E+04  0.16870482013E+04  0.00000000000E+00 0. -1.
         24    2    1    2    0    0 -0.48728299898E+02  0.83561040056E+02 -0.59122949798E+03  0.60437249969E+03  0.79730198003E+02 0.  0.
        254    2    1    2    0    0  0.48728299898E+02 -0.83561040056E+02 -0.90431287073E+03  0.12741815343E+04  0.89241241561E+03 0.  0.
         23    2    4    4    0    0  0.36761341319E+03 -0.30498840878E+03 -0.39756938902E+03  0.62967483436E+03  0.10134804825E+03 0.  0.
         23    2    4    4    0    0 -0.31888511330E+03  0.22142736873E+03 -0.50674348171E+03  0.64450669993E+03  0.88781388239E+02 0.  0.
          4    1    3    3  502    0 -0.69823128377E+02  0.74904223836E+02 -0.49458897851E+03  0.50507837973E+03  0.00000000000E+00 0. -1.
         -3    1    3    3    0  502  0.21094828479E+02  0.86568162197E+01 -0.96640519470E+02  0.99294119962E+02  0.00000000000E+00 0.  1.
         11    1    5    5    0    0  0.30879913534E+03 -0.29737223144E+03 -0.34207782003E+03  0.54845636561E+03  0.00000000000E+00 0.  1.
        -11    1    5    5    0    0  0.58814277857E+02 -0.76161773386E+01 -0.55491568985E+02  0.81218468746E+02  0.00000000000E+00 0. -1.
          2    1    6    6  503    0 -0.25440905307E+03  0.13387731402E+03 -0.39557230029E+03  0.48900362601E+03  0.00000000000E+00 0. -1.
         -2    1    6    6    0  503 -0.64476060231E+02  0.87550054702E+02 -0.11117118141E+03  0.15550307392E+03  0.00000000000E+00 0.  1.
<mgrwt>
<rscale>  0 0.11368018E+04</rscale>
<asrwt>0</asrwt>
<pdfrwt beam="1">  1        2 0.25954587E+00 0.11368018E+04</pdfrwt>
<pdfrwt beam="2">  1       -1 0.29462437E-01 0.11368018E+04</pdfrwt>
<totfact> 0.11852407E+02</totfact>
</mgrwt>
</event>
<event>
12    6  0.1530720E-007  0.2325677E+04  0.7818608E-02  0.8467865E-01
          2   -1    0    0  501    0  0.00000000000E+00  0.00000000000E+00  0.23417833756E+04  0.23417833756E+04  0.00000000000E+00 0. -1.
         -1   -1    0    0    0  501 -0.00000000000E+00 -0.00000000000E+00 -0.57742017266E+03  0.57742017266E+03  0.00000000000E+00 0.  1.
         24    2    1    2    0    0  0.56235962747E+03 -0.17519365151E+02 -0.26485013408E+03  0.62713504213E+03  0.81224927102E+02 0.  0.
        254    2    1    2    0    0 -0.56235962747E+03  0.17519365151E+02  0.20292133370E+04  0.22920685061E+04  0.90516075415E+03 0.  0.
         23    2    4    4    0    0 -0.26800005210E+02 -0.53437039831E+02 -0.64591364126E+02  0.12761892600E+03  0.92416386262E+02 0.  0.
         23    2    4    4    0    0 -0.53555962226E+03  0.70956404982E+02  0.20938047012E+04  0.21644495801E+04  0.94683356081E+02 0.  0.
          4    1    3    3  502    0  0.72853512943E+02 -0.51175914608E+01 -0.60398657247E+01  0.73282358508E+02  0.00000000000E+00 0. -1.
         -3    1    3    3    0  502  0.48950611452E+03 -0.12401773690E+02 -0.25881026836E+03  0.55385268362E+03  0.00000000000E+00 0.  1.
         11    1    5    5    0    0  0.19294261484E+02 -0.17443852773E+02  0.14091293394E+02  0.29582445391E+02  0.00000000000E+00 0. -1.
        -11    1    5    5    0    0 -0.46094266695E+02 -0.35993187058E+02 -0.78682657520E+02  0.98036480614E+02  0.00000000000E+00 0.  1.
          3    1    6    6  503    0 -0.21817025297E+03 -0.13882485065E+02  0.91139347915E+03  0.93724546225E+03  0.00000000000E+00 0. -1.
         -3    1    6    6    0  503 -0.31738936929E+03  0.84838890047E+02  0.11824112220E+04  0.12272041179E+04  0.00000000000E+00 0.  1.
<mgrwt>
<rscale>  0 0.23256766E+04</rscale>
<asrwt>0</asrwt>
<pdfrwt beam="1">  1        2 0.36027436E+00 0.23256766E+04</pdfrwt>
<pdfrwt beam="2">  1       -1 0.88833874E-01 0.23256766E+04</pdfrwt>
<totfact> 0.54920572E+00</totfact>
</mgrwt>
</event>
<event>
12    6  0.1530720E-007  0.1762798E+04  0.7818608E-02  0.8726337E-01
          2   -1    0    0  501    0  0.00000000000E+00  0.00000000000E+00  0.17002903733E+04  0.17002903733E+04  0.00000000000E+00 0. -1.
         -1   -1    0    0    0  501 -0.00000000000E+00 -0.00000000000E+00 -0.45690109761E+03  0.45690109761E+03  0.00000000000E+00 0.  1.
         24    2    1    2    0    0  0.63266821037E+03  0.93011107041E+02  0.60448910703E+03  0.88405656413E+03  0.85022336015E+02 0.  0.
        254    2    1    2    0    0 -0.63266821037E+03 -0.93011107041E+02  0.63890016865E+03  0.12731349068E+04  0.89652603693E+03 0.  0.
         23    2    4    4    0    0 -0.42415178855E+03  0.30680561271E+03  0.61286872385E+03  0.81130712874E+03  0.92610802466E+02 0.  0.
         23    2    4    4    0    0 -0.20851642181E+03 -0.39981671976E+03  0.26031444797E+02  0.46182777803E+03  0.96305518446E+02 0.  0.
          4    1    3    3  502    0  0.44663137142E+03  0.43836700341E+02  0.37713501636E+03  0.58620138075E+03  0.00000000000E+00 0. -1.
         -3    1    3    3    0  502  0.18603683895E+03  0.49174406700E+02  0.22735409067E+03  0.29785518338E+03  0.00000000000E+00 0.  1.
         11    1    5    5    0    0 -0.40676557395E+03  0.29614171142E+03  0.55099905526E+03  0.74616225065E+03  0.00000000000E+00 0.  1.
        -11    1    5    5    0    0 -0.17386214601E+02  0.10663901292E+02  0.61869668595E+02  0.65144878087E+02  0.00000000000E+00 0. -1.
          2    1    6    6  503    0 -0.66998619919E+02 -0.60452275342E+02  0.26806394805E+02  0.94137534849E+02  0.00000000000E+00 0. -1.
         -2    1    6    6    0  503 -0.14151780189E+03 -0.33936444441E+03 -0.77495000790E+00  0.36769024318E+03  0.00000000000E+00 0.  1.
<mgrwt>
<rscale>  0 0.17627984E+04</rscale>
<asrwt>0</asrwt>
<pdfrwt beam="1">  1        2 0.26158313E+00 0.17627984E+04</pdfrwt>
<pdfrwt beam="2">  1       -1 0.70292477E-01 0.17627984E+04</pdfrwt>
<totfact> 0.21628702E+01</totfact>
</mgrwt>
</event>
<event>
12    6  0.1530720E-007  0.2860395E+04  0.7818608E-02  0.8284760E-01
          2   -1    0    0  501    0  0.00000000000E+00  0.00000000000E+00  0.12793723283E+04  0.12793723283E+04  0.00000000000E+00 0. -1.
         -1   -1    0    0    0  501 -0.00000000000E+00 -0.00000000000E+00 -0.15988035663E+04  0.15988035663E+04  0.00000000000E+00 0.  1.
         24    2    1    2    0    0  0.70441280690E+03  0.10205637581E+04  0.20332349974E+03  0.12585868342E+04  0.70374617469E+02 0.  0.
        254    2    1    2    0    0 -0.70441280690E+03 -0.10205637581E+04 -0.52275473773E+03  0.16195890604E+04  0.90113729365E+03 0.  0.
         23    2    4    4    0    0 -0.51877759807E+03 -0.84206048747E+03 -0.76728338061E+03  0.12551503012E+04  0.92100117800E+02 0.  0.
         23    2    4    4    0    0 -0.18563520882E+03 -0.17850327058E+03  0.24452864288E+03  0.36443875918E+03  0.81838277350E+02 0.  0.
          2    1    3    3  502    0  0.62541954976E+03  0.86300856393E+03  0.17565650340E+03  0.10801798933E+04  0.00000000000E+00 0. -1.
         -1    1    3    3    0  502  0.78993257134E+02  0.15755519413E+03  0.27666996331E+02  0.17840694088E+03  0.00000000000E+00 0.  1.
         11    1    5    5    0    0 -0.65418136019E+02 -0.17200165926E+03 -0.13084859076E+03  0.22579959480E+03  0.00000000000E+00 0.  1.
        -11    1    5    5    0    0 -0.45335946205E+03 -0.67005882821E+03 -0.63643478985E+03  0.10293507064E+04  0.00000000000E+00 0. -1.
          1    1    6    6  503    0 -0.15915795719E+03 -0.17628895079E+03  0.23969018236E+03  0.33743211618E+03  0.00000000000E+00 0. -1.
         -1    1    6    6    0  503 -0.26477251631E+02 -0.22143197971E+01  0.48384605188E+01  0.27006643003E+02  0.00000000000E+00 0.  1.
<mgrwt>
<rscale>  0 0.28603951E+04</rscale>
<asrwt>0</asrwt>
<pdfrwt beam="1">  1        2 0.19682651E+00 0.28603951E+04</pdfrwt>
<pdfrwt beam="2">  1       -1 0.24596978E+00 0.28603951E+04</pdfrwt>
<totfact> 0.12420699E+00</totfact>
</mgrwt>
</event>
<event>
12    6  0.1530720E-007  0.1945074E+04  0.7818608E-02  0.8632740E-01
          2   -1    0    0  501    0  0.00000000000E+00  0.00000000000E+00  0.82934859250E+03  0.82934859250E+03  0.00000000000E+00 0. -1.
         -1   -1    0    0    0  501 -0.00000000000E+00 -0.00000000000E+00 -0.11404469961E+04  0.11404469961E+04  0.00000000000E+00 0.  1.
         24    2    1    2    0    0  0.44352395297E+03 -0.89608702205E+02  0.49484252313E+03  0.67535455440E+03  0.80569442558E+02 0.  0.
        254    2    1    2    0    0 -0.44352395297E+03  0.89608702205E+02 -0.80594092674E+03  0.12944410342E+04  0.90625250195E+03 0.  0.
         23    2    4    4    0    0 -0.40002507796E+03 -0.14346070856E+03  0.13677953296E+02  0.43648509586E+03  0.98646411995E+02 0.  0.
         23    2    4    4    0    0 -0.43498875007E+02  0.23306941077E+03 -0.81961888003E+03  0.85795593835E+03  0.89998784924E+02 0.  0.
          2    1    3    3  502    0  0.41926761806E+03 -0.97219746640E+02  0.48409473084E+03  0.64775359753E+03  0.00000000000E+00 0. -1.
         -1    1    3    3    0  502  0.24256334908E+02  0.76110444345E+01  0.10747792295E+02  0.27600956863E+02  0.00000000000E+00 0.  1.
         11    1    5    5    0    0 -0.33856039217E+03 -0.14161911455E+03  0.40857585030E+02  0.36925391672E+03  0.00000000000E+00 0. -1.
        -11    1    5    5    0    0 -0.61464685791E+02 -0.18415940095E+01 -0.27179631734E+02  0.67231179144E+02  0.00000000000E+00 0.  1.
          2    1    6    6  503    0 -0.52737541804E+02  0.13657157592E+03 -0.60497497657E+03  0.62243695740E+03  0.00000000000E+00 0. -1.
         -2    1    6    6    0  503  0.92386667975E+01  0.96497834847E+02 -0.21464390346E+03  0.23551898095E+03  0.00000000000E+00 0.  1.
<mgrwt>
<rscale>  0 0.19450739E+04</rscale>
<asrwt>0</asrwt>
<pdfrwt beam="1">  1        2 0.12759209E+00 0.19450739E+04</pdfrwt>
<pdfrwt beam="2">  1       -1 0.17545338E+00 0.19450739E+04</pdfrwt>
<totfact> 0.78455161E+00</totfact>
</mgrwt>
</event>
<event>
12    6  0.1530720E-007  0.1631200E+04  0.7818608E-02  0.8801607E-01
         -1   -1    0    0    0  501 -0.00000000000E+00  0.00000000000E+00  0.24016969101E+03  0.24016969101E+03  0.00000000000E+00 0.  1.
          2   -1    0    0  501    0  0.00000000000E+00 -0.00000000000E+00 -0.27697214882E+04  0.27697214882E+04  0.00000000000E+00 0. -1.
         24    2    1    2    0    0  0.21082696897E+03  0.35460898037E+03 -0.16002251391E+04  0.16544005944E+04  0.78264240034E+02 0.  0.
        254    2    1    2    0    0 -0.21082696897E+03 -0.35460898037E+03 -0.92932665807E+03  0.13554905848E+04  0.89638783357E+03 0.  0.
         23    2    4    4    0    0  0.13919489308E+03 -0.45310010870E+03 -0.84087287823E+03  0.96950336647E+03  0.90524325380E+02 0.  0.
         23    2    4    4    0    0 -0.35002186205E+03  0.98491128328E+02 -0.88453779839E+02  0.38598721829E+03  0.94584645907E+02 0.  0.
          4    1    3    3  502    0  0.13100451671E+03  0.22940772853E+03 -0.11638423989E+04  0.11934484567E+04  0.00000000000E+00 0. -1.
         -3    1    3    3    0  502  0.79822452255E+02  0.12520125184E+03 -0.43638274018E+03  0.46095213773E+03  0.00000000000E+00 0.  1.
         11    1    5    5    0    0  0.44668840451E+01 -0.13778007221E+03 -0.20442805443E+03  0.24656465844E+03  0.00000000000E+00 0. -1.
        -11    1    5    5    0    0  0.13472800904E+03 -0.31532003650E+03 -0.63644482380E+03  0.72293870803E+03  0.00000000000E+00 0.  1.
          2    1    6    6  503    0 -0.14461297409E+03  0.17609160723E+02 -0.77365039276E+02  0.16494951991E+03  0.00000000000E+00 0. -1.
         -2    1    6    6    0  503 -0.20540888796E+03  0.80881967605E+02 -0.11088740562E+02  0.22103769838E+03  0.00000000000E+00 0.  1.
<mgrwt>
<rscale>  0 0.16311997E+04</rscale>
<asrwt>0</asrwt>
<pdfrwt beam="1">  1        2 0.42611103E+00 0.16311997E+04</pdfrwt>
<pdfrwt beam="2">  1       -1 0.36949180E-01 0.16311997E+04</pdfrwt>
<totfact> 0.18558777E+01</totfact>
</mgrwt>
</event>
<event>
12    6  0.1530720E-007  0.1574179E+04  0.7818608E-02  0.8836570E-01
          2   -1    0    0  501    0  0.00000000000E+00  0.00000000000E+00  0.22716884203E+04  0.22716884203E+04  0.00000000000E+00 0. -1.
         -1   -1    0    0    0  501 -0.00000000000E+00 -0.00000000000E+00 -0.27270885216E+03  0.27270885216E+03  0.00000000000E+00 0.  1.
         24    2    1    2    0    0 -0.12256785480E+02  0.96260850597E+02 -0.15839123576E+03  0.20180530358E+03  0.78874690730E+02 0.  0.
        254    2    1    2    0    0  0.12256785480E+02 -0.96260850597E+02  0.21573708039E+04  0.23425919688E+04  0.90778409710E+03 0.  0.
         23    2    4    4    0    0 -0.43363695747E+03 -0.71369796578E+01  0.11895190880E+04  0.12694254753E+04  0.91615661150E+02 0.  0.
         23    2    4    4    0    0  0.44589374295E+03 -0.89123870940E+02  0.96785171590E+03  0.10731664935E+04  0.90471456775E+02 0.  0.
          2    1    3    3  502    0 -0.25755055480E+02  0.11021213119E+02 -0.92636126475E+01  0.29506008552E+02  0.00000000000E+00 0. -1.
         -1    1    3    3    0  502  0.13498270000E+02  0.85239637479E+02 -0.14912762312E+03  0.17229929503E+03  0.00000000000E+00 0.  1.
         11    1    5    5    0    0 -0.40601019079E+03 -0.29018216321E+02  0.11154800077E+04  0.11874266207E+04  0.00000000000E+00 0.  1.
        -11    1    5    5    0    0 -0.27626766679E+02  0.21881236664E+02  0.74039080256E+02  0.81998854627E+02  0.00000000000E+00 0. -1.
          1    1    6    6  503    0  0.46383092287E+02  0.23332555738E+01  0.16966907097E+03  0.17591028672E+03  0.00000000000E+00 0. -1.
         -1    1    6    6    0  503  0.39951065066E+03 -0.91457126513E+02  0.79818264494E+03  0.89725620681E+03  0.00000000000E+00 0.  1.
<mgrwt>
<rscale>  0 0.15741786E+04</rscale>
<asrwt>0</asrwt>
<pdfrwt beam="1">  1        2 0.34949051E+00 0.15741786E+04</pdfrwt>
<pdfrwt beam="2">  1       -1 0.41955210E-01 0.15741786E+04</pdfrwt>
<totfact> 0.28750435E+01</totfact>
</mgrwt>
</event>
<event>
12    6  0.1530720E-007  0.1751575E+04  0.7818608E-02  0.8732484E-01
          2   -1    0    0  501    0  0.00000000000E+00  0.00000000000E+00  0.36169112477E+04  0.36169112477E+04  0.00000000000E+00 0. -1.
         -1   -1    0    0    0  501 -0.00000000000E+00 -0.00000000000E+00 -0.21206031264E+03  0.21206031264E+03  0.00000000000E+00 0.  1.
         24    2    1    2    0    0 -0.27341407775E+03 -0.50427954337E+03  0.83695260874E+03  0.10177352461E+04  0.79007885775E+02 0.  0.
        254    2    1    2    0    0  0.27341407775E+03  0.50427954337E+03  0.25678983263E+04  0.28112363143E+04  0.98989629999E+03 0.  0.
         23    2    4    4    0    0 -0.70713489632E+02  0.63459897741E+03  0.21592495115E+04  0.22534760344E+04  0.89886178759E+02 0.  0.
         23    2    4    4    0    0  0.34412756738E+03 -0.13031943404E+03  0.40864881486E+03  0.55776027990E+03  0.93250943281E+02 0.  0.
          4    1    3    3  502    0 -0.25809277893E+03 -0.44008771033E+03  0.70545959872E+03  0.87061031510E+03  0.00000000000E+00 0. -1.
         -3    1    3    3    0  502 -0.15321298813E+02 -0.64191833040E+02  0.13149301002E+03  0.14712493096E+03  0.00000000000E+00 0.  1.
         11    1    5    5    0    0 -0.20244065672E+02  0.47442315087E+03  0.15133376834E+04  0.15860889295E+04  0.00000000000E+00 0.  1.
        -11    1    5    5    0    0 -0.50469423960E+02  0.16017582654E+03  0.64591182809E+03  0.66738710493E+03  0.00000000000E+00 0. -1.
          3    1    6    6  503    0  0.49053068882E+02  0.64154923381E+01  0.27064443922E+02  0.56390125318E+02  0.00000000000E+00 0. -1.
         -3    1    6    6    0  503  0.29507449850E+03 -0.13673492638E+03  0.38158437094E+03  0.50137015458E+03  0.00000000000E+00 0.  1.
<mgrwt>
<rscale>  0 0.17515745E+04</rscale>
<asrwt>0</asrwt>
<pdfrwt beam="1">  1        2 0.55644784E+00 0.17515745E+04</pdfrwt>
<pdfrwt beam="2">  1       -1 0.32624666E-01 0.17515745E+04</pdfrwt>
<totfact> 0.64390256E+00</totfact>
</mgrwt>
</event>
<event>
12    6  0.1530720E-007  0.3254331E+04  0.7818608E-02  0.8174614E-01
         -1   -1    0    0    0  501 -0.00000000000E+00  0.00000000000E+00  0.73182452702E+03  0.73182452702E+03  0.00000000000E+00 0.  1.
          2   -1    0    0  501    0  0.00000000000E+00 -0.00000000000E+00 -0.36178998674E+04  0.36178998674E+04  0.00000000000E+00 0. -1.
         24    2    1    2    0    0 -0.21714206269E+03  0.17541702464E+03  0.64948013861E+03  0.71207978856E+03  0.85506531320E+02 0.  0.
        254    2    1    2    0    0  0.21714206269E+03 -0.17541702464E+03 -0.35355554790E+04  0.36376446058E+04  0.80894000119E+03 0.  0.
         23    2    4    4    0    0 -0.10073821199E+03 -0.38620948573E+03 -0.24269533180E+04  0.24614816472E+04  0.97383457331E+02 0.  0.
         23    2    4    4    0    0  0.31788027467E+03  0.21079246109E+03 -0.11086021610E+04  0.11761629586E+04  0.94229629960E+02 0.  0.
          4    1    3    3  502    0 -0.33511520379E+02  0.75469770167E+02  0.16956286961E+03  0.18860083499E+03  0.00000000000E+00 0. -1.
         -3    1    3    3    0  502 -0.18363054231E+03  0.99947254469E+02  0.47991726900E+03  0.52347895357E+03  0.00000000000E+00 0.  1.
         11    1    5    5    0    0 -0.11956774891E+03 -0.30863654389E+03 -0.19663588323E+04  0.19940210681E+04  0.00000000000E+00 0.  1.
        -11    1    5    5    0    0  0.18829536921E+02 -0.77572941837E+02 -0.46059448568E+03  0.46746057909E+03  0.00000000000E+00 0. -1.
          2    1    6    6  503    0  0.15023588217E+03  0.15168407311E+03 -0.65789080701E+03  0.69166407473E+03  0.00000000000E+00 0.  1.
         -2    1    6    6    0  503  0.16764439250E+03  0.59108387979E+02 -0.45071135401E+03  0.48449888390E+03  0.00000000000E+00 0. -1.
<mgrwt>
<rscale>  0 0.32543312E+04</rscale>
<asrwt>0</asrwt>
<pdfrwt beam="1">  1        2 0.55659996E+00 0.32543312E+04</pdfrwt>
<pdfrwt beam="2">  1       -1 0.11258839E+00 0.32543312E+04</pdfrwt>
<totfact> 0.45998101E-01</totfact>
</mgrwt>
</event>
<event>
12    6  0.1530720E-007  0.1955730E+04  0.7818608E-02  0.8627603E-01
          2   -1    0    0  501    0  0.00000000000E+00  0.00000000000E+00  0.24171725894E+04  0.24171725894E+04  0.00000000000E+00 0. -1.
         -1   -1    0    0    0  501 -0.00000000000E+00 -0.00000000000E+00 -0.39559434780E+03  0.39559434780E+03  0.00000000000E+00 0.  1.
         24    2    1    2    0    0 -0.26188934359E+03 -0.43241077668E+03 -0.37597085086E+02  0.51307881258E+03  0.79191028761E+02 0.  0.
        254    2    1    2    0    0  0.26188934359E+03  0.43241077668E+03  0.20591753267E+04  0.22996881246E+04  0.89039167585E+03 0.  0.
         23    2    4    4    0    0  0.43688356457E+03  0.28563758391E+03  0.19666101210E+04  0.20368442228E+04  0.93396689876E+02 0.  0.
         23    2    4    4    0    0 -0.17499422098E+03  0.14677319276E+03  0.92565205708E+02  0.26284390182E+03  0.91396126424E+02 0.  0.
          2    1    3    3  502    0 -0.18834175861E+03 -0.26006292978E+03 -0.51392745035E+02  0.32518696119E+03  0.00000000000E+00 0. -1.
         -1    1    3    3    0  502 -0.73547584979E+02 -0.17234784689E+03  0.13795659949E+02  0.18789185139E+03  0.00000000000E+00 0.  1.
         11    1    5    5    0    0  0.20475800689E+03  0.82551322713E+02  0.88471660167E+03  0.91184649341E+03  0.00000000000E+00 0.  1.
        -11    1    5    5    0    0  0.23212555768E+03  0.20308626120E+03  0.10818935193E+04  0.11249977294E+04  0.00000000000E+00 0. -1.
          4    1    6    6  503    0 -0.30653875883E-01  0.28753283103E+01 -0.12716684052E+02  0.13037733922E+02  0.00000000000E+00 0. -1.
         -4    1    6    6    0  503 -0.17496356711E+03  0.14389786445E+03  0.10528188976E+03  0.24980616790E+03  0.00000000000E+00 0.  1.
<mgrwt>
<rscale>  0 0.19557299E+04</rscale>
<asrwt>0</asrwt>
<pdfrwt beam="1">  1        2 0.37187270E+00 0.19557299E+04</pdfrwt>
<pdfrwt beam="2">  1       -1 0.60860670E-01 0.19557299E+04</pdfrwt>
<totfact> 0.11299612E+01</totfact>
</mgrwt>
</event>
<event>
12    6  0.1530720E-007  0.4366754E+04  0.7818608E-02  0.7934389E-01
         -1   -1    0    0    0  501 -0.00000000000E+00  0.00000000000E+00  0.14492215218E+04  0.14492215218E+04  0.00000000000E+00 0.  1.
          2   -1    0    0  501    0  0.00000000000E+00 -0.00000000000E+00 -0.32894456472E+04  0.32894456472E+04  0.00000000000E+00 0. -1.
         24    2    1    2    0    0 -0.48548961580E+03  0.13041663216E+04  0.81024132372E+03  0.16122599138E+04  0.79630806664E+02 0.  0.
        254    2    1    2    0    0  0.48548961580E+03 -0.13041663216E+04 -0.26504654491E+04  0.31264072551E+04  0.90161259223E+03 0.  0.
         23    2    4    4    0    0  0.15465227874E+03 -0.37216912490E+02 -0.10043945762E+04  0.10211803143E+04  0.93264911813E+02 0.  0.
         23    2    4    4    0    0  0.33083733706E+03 -0.12669494091E+04 -0.16460708729E+04  0.21052269408E+04  0.88413826561E+02 0.  0.
          4    1    3    3  502    0 -0.48950965287E+02  0.10259263002E+03  0.44604929455E+02  0.12211078768E+03  0.00000000000E+00 0. -1.
         -3    1    3    3    0  502 -0.43653865052E+03  0.12015736916E+04  0.76563639427E+03  0.14901491261E+04  0.00000000000E+00 0.  1.
         11    1    5    5    0    0  0.12726916066E+03  0.11822809528E+02 -0.72821786642E+03  0.73935003825E+03  0.00000000000E+00 0.  1.
        -11    1    5    5    0    0  0.27383118075E+02 -0.49039722019E+02 -0.27617670977E+03  0.28183027608E+03  0.00000000000E+00 0. -1.
          1    1    6    6  503    0  0.52705083322E+02 -0.14161113042E+03 -0.15362425567E+03  0.21548074160E+03  0.00000000000E+00 0. -1.
         -1    1    6    6    0  503  0.27813225374E+03 -0.11253382787E+04 -0.14924466173E+04  0.18897461992E+04  0.00000000000E+00 0.  1.
<mgrwt>
<rscale>  0 0.43667541E+04</rscale>
<asrwt>0</asrwt>
<pdfrwt beam="1">  1        2 0.50606856E+00 0.43667541E+04</pdfrwt>
<pdfrwt beam="2">  1       -1 0.22295716E+00 0.43667541E+04</pdfrwt>
<totfact> 0.10338489E-01</totfact>
</mgrwt>
</event>
<event>
12    6  0.1530720E-007  0.2219983E+04  0.7818608E-02  0.8510157E-01
         -1   -1    0    0    0  501 -0.00000000000E+00  0.00000000000E+00  0.41932852620E+03  0.41932852620E+03  0.00000000000E+00 0.  1.
          2   -1    0    0  501    0  0.00000000000E+00 -0.00000000000E+00 -0.29382226596E+04  0.29382226596E+04  0.00000000000E+00 0. -1.
         24    2    1    2    0    0 -0.63471892705E+03  0.67347164170E+03 -0.11651787547E+04  0.14900374854E+04  0.78345446734E+02 0.  0.
        254    2    1    2    0    0  0.63471892705E+03 -0.67347164170E+03 -0.13537153787E+04  0.18675137004E+04  0.89366096818E+03 0.  0.
         23    2    4    4    0    0  0.69540164188E+03 -0.82571763326E+03 -0.12424669074E+04  0.16486727039E+04  0.94892649446E+02 0.  0.
         23    2    4    4    0    0 -0.60682714826E+02  0.15224599156E+03 -0.11124847129E+03  0.21884099656E+03  0.93026477881E+02 0.  0.
          2    1    3    3  502    0 -0.20436562947E+03  0.17913295864E+03 -0.38171901739E+03  0.46857585898E+03  0.00000000000E+00 0. -1.
         -1    1    3    3    0  502 -0.43035329759E+03  0.49433868306E+03 -0.78345973730E+03  0.10214616264E+04  0.00000000000E+00 0.  1.
         11    1    5    5    0    0  0.57408657099E+03 -0.68265841825E+03 -0.10783236299E+04  0.13994212224E+04  0.00000000000E+00 0.  1.
        -11    1    5    5    0    0  0.12131507089E+03 -0.14305921501E+03 -0.16414327753E+03  0.24925148141E+03  0.00000000000E+00 0. -1.
          2    1    6    6  503    0 -0.40458260076E+02  0.32514019965E+02  0.31671803378E+01  0.52000608976E+02  0.00000000000E+00 0. -1.
         -2    1    6    6    0  503 -0.20224454750E+02  0.11973197159E+03 -0.11441565163E+03  0.16684038758E+03  0.00000000000E+00 0.  1.
<mgrwt>
<rscale>  0 0.22199825E+04</rscale>
<asrwt>0</asrwt>
<pdfrwt beam="1">  1        2 0.45203425E+00 0.22199825E+04</pdfrwt>
<pdfrwt beam="2">  1       -1 0.64512082E-01 0.22199825E+04</pdfrwt>
<totfact> 0.48180170E+00</totfact>
</mgrwt>
</event>
<event>
12    6  0.1530720E-007  0.2587010E+04  0.7818608E-02  0.8372627E-01
          2   -1    0    0  501    0  0.00000000000E+00  0.00000000000E+00  0.81317443260E+03  0.81317443260E+03  0.00000000000E+00 0. -1.
         -1   -1    0    0    0  501 -0.00000000000E+00 -0.00000000000E+00 -0.20575599561E+04  0.20575599561E+04  0.00000000000E+00 0.  1.
         24    2    1    2    0    0  0.49977657261E+03  0.10081028699E+04 -0.35585331308E+03  0.11835950748E+04  0.90651540564E+02 0.  0.
        254    2    1    2    0    0 -0.49977657261E+03 -0.10081028699E+04 -0.88853221043E+03  0.16871393139E+04  0.88932646234E+03 0.  0.
         23    2    4    4    0    0  0.98969534488E+02  0.54450131657E+02  0.34953666863E+02  0.15452028590E+03  0.99473485582E+02 0.  0.
         23    2    4    4    0    0 -0.59874610710E+03 -0.10625530016E+04 -0.92348587729E+03  0.15326190280E+04  0.92623633287E+02 0.  0.
          4    1    3    3  502    0  0.88197994866E+02  0.23829122619E+03 -0.52494083181E+02  0.25945562925E+03  0.00000000000E+00 0. -1.
         -3    1    3    3    0  502  0.41157857775E+03  0.76981164374E+03 -0.30335922990E+03  0.92413944557E+03  0.00000000000E+00 0.  1.
         11    1    5    5    0    0 -0.11800906161E+02  0.36109636135E+02  0.50137552349E+01  0.38318467475E+02  0.00000000000E+00 0.  1.
        -11    1    5    5    0    0  0.11077044065E+03  0.18340495522E+02  0.29939911629E+02  0.11620181843E+03  0.00000000000E+00 0. -1.
          4    1    6    6  503    0 -0.54229289730E+03 -0.89689941450E+03 -0.79579710625E+03  0.13159799316E+04  0.00000000000E+00 0. -1.
         -4    1    6    6    0  503 -0.56453209803E+02 -0.16565358709E+03 -0.12768877105E+03  0.21663909634E+03  0.00000000000E+00 0.  1.
<mgrwt>
<rscale>  0 0.25870100E+04</rscale>
<asrwt>0</asrwt>
<pdfrwt beam="1">  1        2 0.12510376E+00 0.25870100E+04</pdfrwt>
<pdfrwt beam="2">  1       -1 0.31654768E+00 0.25870100E+04</pdfrwt>
<totfact> 0.87738088E-01</totfact>
</mgrwt>
</event>
<event>
12    6  0.1735112E-007  0.2099578E+04  0.7818608E-02  0.8561429E-01
         -1   -1    0    0    0  501 -0.00000000000E+00  0.00000000000E+00  0.88967526969E+03  0.88967526969E+03  0.00000000000E+00 0.  1.
          2   -1    0    0  501    0  0.00000000000E+00 -0.00000000000E+00 -0.12387177296E+04  0.12387177296E+04  0.00000000000E+00 0. -1.
         24    2    1    2    0    0 -0.29820068689E+03  0.44368922716E+03 -0.82127695126E+03  0.98337149431E+03  0.82096803735E+02 0.  0.
        254    2    1    2    0    0  0.29820068689E+03 -0.44368922716E+03  0.47223449131E+03  0.11450215050E+04  0.89570366316E+03 0.  0.
         23    2    4    4    0    0 -0.85141044604E+02 -0.35059795115E+03  0.61319837702E+03  0.71749791150E+03  0.92860554598E+02 0.  0.
         23    2    4    4    0    0  0.38334173149E+03 -0.93091276019E+02 -0.14096388571E+03  0.42752359352E+03  0.85374101238E+02 0.  0.
          2    1    3    3  502    0 -0.27450424697E+03  0.40113511398E+03 -0.69571898704E+03  0.84869716048E+03  0.00000000000E+00 0. -1.
         -1    1    3    3    0  502 -0.23696439916E+02  0.42554113183E+02 -0.12555796422E+03  0.13467433383E+03  0.00000000000E+00 0.  1.
         11    1    5    5    0    0 -0.35998872057E+02 -0.37076338799E+02  0.55533499154E+02  0.75858705607E+02  0.00000000000E+00 0. -1.
        -11    1    5    5    0    0 -0.49142172548E+02 -0.31352161235E+03  0.55766487787E+03  0.64163920589E+03  0.00000000000E+00 0.  1.
          3    1    6    6  503    0  0.93451017795E+02 -0.46830352258E+02 -0.67708608367E+01  0.10474740654E+03  0.00000000000E+00 0. -1.
         -3    1    6    6    0  503  0.28989071370E+03 -0.46260923761E+02 -0.13419302488E+03  0.32277618698E+03  0.00000000000E+00 0.  1.
<mgrwt>
<rscale>  0 0.20995776E+04</rscale>
<asrwt>0</asrwt>
<pdfrwt beam="1">  1        2 0.19057196E+00 0.20995776E+04</pdfrwt>
<pdfrwt beam="2">  1       -1 0.13687312E+00 0.20995776E+04</pdfrwt>
<totfact> 0.83898980E+00</totfact>
</mgrwt>
</event>
<event>
12    6  0.1530720E-007  0.1301071E+04  0.7818608E-02  0.9028716E-01
          2   -1    0    0  501    0  0.00000000000E+00  0.00000000000E+00  0.26728340601E+04  0.26728340601E+04  0.00000000000E+00 0. -1.
         -1   -1    0    0    0  501 -0.00000000000E+00 -0.00000000000E+00 -0.15833250069E+03  0.15833250069E+03  0.00000000000E+00 0.  1.
         24    2    1    2    0    0  0.82699001650E+02 -0.31973983415E+03  0.61724265992E+03  0.70461697248E+03  0.80149175108E+02 0.  0.
        254    2    1    2    0    0 -0.82699001650E+02  0.31973983415E+03  0.18972588995E+04  0.21265495883E+04  0.90196958563E+03 0.  0.
         23    2    4    4    0    0 -0.44161493955E+03  0.18002457192E+03  0.60893038287E+03  0.77878377665E+03  0.90968996104E+02 0.  0.
         23    2    4    4    0    0  0.35891593790E+03  0.13971526222E+03  0.12883285166E+04  0.13477658116E+04  0.91330779978E+02 0.  0.
          4    1    3    3  502    0 -0.38279624212E+01  0.34587112613E+00  0.29887027722E+02  0.30133160292E+02  0.00000000000E+00 0. -1.
         -3    1    3    3    0  502  0.86526964071E+02 -0.32008570527E+03  0.58735563220E+03  0.67448381219E+03  0.00000000000E+00 0.  1.
         11    1    5    5    0    0 -0.10478556218E+03  0.79837029154E+02  0.20148800035E+03  0.24073092770E+03  0.00000000000E+00 0. -1.
        -11    1    5    5    0    0 -0.33682937737E+03  0.10018754277E+03  0.40744238252E+03  0.53805284895E+03  0.00000000000E+00 0.  1.
          1    1    6    6  503    0  0.29481131642E+03  0.75500224316E+02  0.10264482798E+04  0.10706120059E+04  0.00000000000E+00 0. -1.
         -1    1    6    6    0  503  0.64104621481E+02  0.64215037908E+02  0.26188023682E+03  0.27715380572E+03  0.00000000000E+00 0.  1.
<mgrwt>
<rscale>  0 0.13010711E+04</rscale>
<asrwt>0</asrwt>
<pdfrwt beam="1">  1        2 0.41120521E+00 0.13010711E+04</pdfrwt>
<pdfrwt beam="2">  1       -1 0.24358848E-01 0.13010711E+04</pdfrwt>
<totfact> 0.45364992E+01</totfact>
</mgrwt>
</event>
<event>
12    6  0.1530720E-007  0.1616107E+04  0.7818608E-02  0.8810714E-01
         -1   -1    0    0    0  501 -0.00000000000E+00  0.00000000000E+00  0.23490633613E+04  0.23490633613E+04  0.00000000000E+00 0.  1.
          2   -1    0    0  501    0  0.00000000000E+00 -0.00000000000E+00 -0.27796205994E+03  0.27796205994E+03  0.00000000000E+00 0. -1.
         24    2    1    2    0    0 -0.33001590695E+03  0.32807104002E+02 -0.38059480092E+01  0.34146726945E+03  0.81231803800E+02 0.  0.
        254    2    1    2    0    0  0.33001590695E+03 -0.32807104002E+02  0.20749072494E+04  0.22855581518E+04  0.89919362030E+03 0.  0.
         23    2    4    4    0    0  0.55725013352E+03  0.17380430628E+03  0.97617825961E+03  0.11410233443E+04  0.90964990703E+02 0.  0.
         23    2    4    4    0    0 -0.22723422657E+03 -0.20661141028E+03  0.10987289898E+04  0.11445348075E+04  0.91819736489E+02 0.  0.
          2    1    3    3  502    0 -0.25122534423E+03  0.78741915725E+00  0.23044239198E+02  0.25228125291E+03  0.00000000000E+00 0. -1.
         -1    1    3    3    0  502 -0.78790562724E+02  0.32019684845E+02 -0.26850187207E+02  0.89186016533E+02  0.00000000000E+00 0.  1.
         11    1    5    5    0    0  0.42968725794E+03  0.11922217359E+03  0.80910418162E+03  0.92384773801E+03  0.00000000000E+00 0.  1.
        -11    1    5    5    0    0  0.12756287558E+03  0.54582132690E+02  0.16707407799E+03  0.21717560630E+03  0.00000000000E+00 0. -1.
          2    1    6    6  503    0 -0.13507061608E+03 -0.61026169208E+02  0.50014900471E+03  0.52164862846E+03  0.00000000000E+00 0.  1.
         -2    1    6    6    0  503 -0.92163610486E+02 -0.14558524107E+03  0.59857998504E+03  0.62288617901E+03  0.00000000000E+00 0. -1.
<mgrwt>
<rscale>  0 0.16161070E+04</rscale>
<asrwt>0</asrwt>
<pdfrwt beam="1">  1        2 0.42763395E-01 0.16161070E+04</pdfrwt>
<pdfrwt beam="2">  1       -1 0.36139435E+00 0.16161070E+04</pdfrwt>
<totfact> 0.17178788E+00</totfact>
</mgrwt>
</event>
<event>
12    6  0.1530720E-007  0.2177663E+04  0.7818608E-02  0.8527783E-01
         -1   -1    0    0    0  501 -0.00000000000E+00  0.00000000000E+00  0.23480006662E+03  0.23480006662E+03  0.00000000000E+00 0.  1.
          2   -1    0    0  501    0  0.00000000000E+00 -0.00000000000E+00 -0.50492057814E+04  0.50492057814E+04  0.00000000000E+00 0. -1.
         24    2    1    2    0    0  0.24454704257E+03 -0.79407759083E+03 -0.11715658425E+04  0.14386005494E+04  0.81501785410E+02 0.  0.
        254    2    1    2    0    0 -0.24454704257E+03  0.79407759083E+03 -0.36428398723E+04  0.38454052986E+04  0.90911885891E+03 0.  0.
         23    2    4    4    0    0 -0.45922160378E+03  0.86686279394E+03 -0.28555564582E+04  0.30207660979E+04  0.92138739430E+02 0.  0.
         23    2    4    4    0    0  0.21467456121E+03 -0.72785203103E+02 -0.78728341405E+03  0.82463920075E+03  0.93977573625E+02 0.  0.
          4    1    3    3  502    0  0.52775788599E+02 -0.29459398983E+03 -0.39540298327E+03  0.49589759214E+03  0.00000000000E+00 0. -1.
         -3    1    3    3    0  502  0.19177125397E+03 -0.49948360100E+03 -0.77616285924E+03  0.94270295723E+03  0.00000000000E+00 0.  1.
         11    1    5    5    0    0 -0.11795879024E+03  0.27390726572E+03 -0.76310817905E+03  0.81931285803E+03  0.00000000000E+00 0.  1.
        -11    1    5    5    0    0 -0.34126281354E+03  0.59295552822E+03 -0.20924482792E+04  0.22014532399E+04  0.00000000000E+00 0. -1.
          3    1    6    6  503    0  0.22243291268E+03 -0.68898865687E+02 -0.77720945889E+03  0.81134332888E+03  0.00000000000E+00 0. -1.
         -3    1    6    6    0  503 -0.77583514665E+01 -0.38863374161E+01 -0.10073955160E+02  0.13295871861E+02  0.00000000000E+00 0.  1.
<mgrwt>
<rscale>  0 0.21776628E+04</rscale>
<asrwt>0</asrwt>
<pdfrwt beam="1">  1        2 0.77680082E+00 0.21776628E+04</pdfrwt>
<pdfrwt beam="2">  1       -1 0.36123091E-01 0.21776628E+04</pdfrwt>
<totfact> 0.23126101E-01</totfact>
</mgrwt>
</event>
<event>
12    6  0.1530720E-007  0.2679701E+04  0.7818608E-02  0.8341621E-01
         -1   -1    0    0    0  501 -0.00000000000E+00  0.00000000000E+00  0.81755778856E+03  0.81755778856E+03  0.00000000000E+00 0.  1.
          2   -1    0    0  501    0  0.00000000000E+00 -0.00000000000E+00 -0.21958074114E+04  0.21958074114E+04  0.00000000000E+00 0. -1.
         24    2    1    2    0    0 -0.73141868380E+03  0.90918002142E+03 -0.84442406983E+03  0.14426042946E+04  0.80458303525E+02 0.  0.
        254    2    1    2    0    0  0.73141868380E+03 -0.90918002142E+03 -0.53382555301E+03  0.15707609054E+04  0.90594618967E+03 0.  0.
         23    2    4    4    0    0  0.12860246491E+03  0.87618078659E+02 -0.34196896484E+03  0.38666151003E+03  0.91371925307E+02 0.  0.
         23    2    4    4    0    0  0.60281621888E+03 -0.99679810008E+03 -0.19185658817E+03  0.11840993954E+04  0.91041647948E+02 0.  0.
          2    1    3    3  502    0 -0.42203138182E+03  0.53965765846E+03 -0.54283467126E+03  0.87407685926E+03  0.00000000000E+00 0. -1.
         -1    1    3    3    0  502 -0.30938730197E+03  0.36952236296E+03 -0.30158939857E+03  0.56852743529E+03  0.00000000000E+00 0.  1.
         11    1    5    5    0    0  0.11318909719E+03  0.10186475961E+03 -0.32749295376E+03  0.36116455493E+03  0.00000000000E+00 0.  1.
        -11    1    5    5    0    0  0.15413367726E+02 -0.14246680950E+02 -0.14476011082E+02  0.25496955105E+02  0.00000000000E+00 0. -1.
          3    1    6    6  503    0  0.24097843560E+03 -0.33913729054E+03 -0.99880701903E+02  0.42785612403E+03  0.00000000000E+00 0. -1.
         -3    1    6    6    0  503  0.36183778329E+03 -0.65766080954E+03 -0.91975886265E+02  0.75624327136E+03  0.00000000000E+00 0.  1.
<mgrwt>
<rscale>  0 0.26797011E+04</rscale>
<asrwt>0</asrwt>
<pdfrwt beam="1">  1        2 0.33781653E+00 0.26797011E+04</pdfrwt>
<pdfrwt beam="2">  1       -1 0.12577812E+00 0.26797011E+04</pdfrwt>
<totfact> 0.28590674E+00</totfact>
</mgrwt>
</event>
<event>
12    6  0.1530720E-007  0.2748496E+04  0.7818608E-02  0.8319439E-01
          2   -1    0    0  501    0  0.00000000000E+00  0.00000000000E+00  0.22296098767E+04  0.22296098767E+04  0.00000000000E+00 0. -1.
         -1   -1    0    0    0  501 -0.00000000000E+00 -0.00000000000E+00 -0.84703472296E+03  0.84703472296E+03  0.00000000000E+00 0.  1.
         24    2    1    2    0    0  0.44128418333E+02  0.79833629745E+03  0.16619833437E+04  0.18460582086E+04  0.80337497202E+02 0.  0.
        254    2    1    2    0    0 -0.44128418333E+02 -0.79833629745E+03 -0.27940818995E+03  0.12305863911E+04  0.89274059404E+03 0.  0.
         23    2    4    4    0    0 -0.33997879413E+03 -0.14161122266E+02 -0.46927619498E+02  0.35587893027E+03  0.93067146166E+02 0.  0.
         23    2    4    4    0    0  0.29585037580E+03 -0.78417517519E+03 -0.23248057046E+03  0.87470746085E+03  0.92778101812E+02 0.  0.
          2    1    3    3  502    0  0.55745335146E+02  0.71496123683E+03  0.14409766744E+04  0.16095623283E+04  0.00000000000E+00 0. -1.
         -1    1    3    3    0  502 -0.11616916813E+02  0.83375060621E+02  0.22100666932E+03  0.23649588025E+03  0.00000000000E+00 0.  1.
         11    1    5    5    0    0 -0.27624994240E+03 -0.43936100289E+02 -0.19573564243E+02  0.28040601991E+03  0.00000000000E+00 0. -1.
        -11    1    5    5    0    0 -0.63728851728E+02  0.29774978023E+02 -0.27354055255E+02  0.75472910357E+02  0.00000000000E+00 0.  1.
          3    1    6    6  503    0  0.13634149638E+03 -0.24670910911E+03 -0.95072526162E+02  0.29747802168E+03  0.00000000000E+00 0. -1.
         -3    1    6    6    0  503  0.15950887942E+03 -0.53746606608E+03 -0.13740804429E+03  0.57722943916E+03  0.00000000000E+00 0.  1.
<mgrwt>
<rscale>  0 0.27484956E+04</rscale>
<asrwt>0</asrwt>
<pdfrwt beam="1">  1        2 0.34301690E+00 0.27484956E+04</pdfrwt>
<pdfrwt beam="2">  1       -1 0.13031304E+00 0.27484956E+04</pdfrwt>
<totfact> 0.24888577E+00</totfact>
</mgrwt>
</event>
<event>
12    6  0.1530720E-007  0.2159725E+04  0.7818608E-02  0.8535381E-01
          2   -1    0    0  501    0  0.00000000000E+00  0.00000000000E+00  0.30289759220E+04  0.30289759220E+04  0.00000000000E+00 0. -1.
         -1   -1    0    0    0  501 -0.00000000000E+00 -0.00000000000E+00 -0.38498277299E+03  0.38498277299E+03  0.00000000000E+00 0.  1.
         24    2    1    2    0    0 -0.28916239890E+03 -0.55587235494E+03  0.20946698100E+04  0.21878549990E+04  0.80367378563E+02 0.  0.
        254    2    1    2    0    0  0.28916239890E+03  0.55587235494E+03  0.54932333899E+03  0.12261036960E+04  0.89942491334E+03 0.  0.
         23    2    4    4    0    0  0.47482762353E+03  0.29602936453E+03  0.66593812451E+03  0.87437723764E+03  0.89259796631E+02 0.  0.
         23    2    4    4    0    0 -0.18566522463E+03  0.25984299041E+03 -0.11661478552E+03  0.35172645839E+03  0.90125124319E+02 0.  0.
          4    1    3    3  502    0 -0.10718393298E+03 -0.28065838061E+03  0.10699591481E+04  0.11113370779E+04  0.00000000000E+00 0. -1.
         -3    1    3    3    0  502 -0.18197846593E+03 -0.27521397433E+03  0.10247106620E+04  0.10765179211E+04  0.00000000000E+00 0.  1.
         11    1    5    5    0    0  0.21900113726E+03  0.18911607414E+03  0.34004136410E+03  0.44649134025E+03  0.00000000000E+00 0. -1.
        -11    1    5    5    0    0  0.25582648627E+03  0.10691329039E+03  0.32589676040E+03  0.42788589738E+03  0.00000000000E+00 0.  1.
          1    1    6    6  503    0 -0.38375736349E+02  0.51638018572E+02 -0.65124256431E+02  0.91544256390E+02  0.00000000000E+00 0. -1.
         -1    1    6    6    0  503 -0.14728948828E+03  0.20820497183E+03 -0.51490529089E+02  0.26018220200E+03  0.00000000000E+00 0.  1.
<mgrwt>
<rscale>  0 0.21597255E+04</rscale>
<asrwt>0</asrwt>
<pdfrwt beam="1">  1        2 0.46599628E+00 0.21597255E+04</pdfrwt>
<pdfrwt beam="2">  1       -1 0.59228121E-01 0.21597255E+04</pdfrwt>
<totfact> 0.50425621E+00</totfact>
</mgrwt>
</event>
<event>
12    6  0.1530720E-007  0.1490319E+04  0.7818608E-02  0.8890916E-01
         -1   -1    0    0    0  501 -0.00000000000E+00  0.00000000000E+00  0.32037317965E+03  0.32037317965E+03  0.00000000000E+00 0.  1.
          2   -1    0    0  501    0  0.00000000000E+00 -0.00000000000E+00 -0.17331752197E+04  0.17331752197E+04  0.00000000000E+00 0. -1.
         24    2    1    2    0    0  0.42202171220E+03  0.12499778981E+03 -0.24136651585E+03  0.50820553331E+03  0.79298777367E+02 0.  0.
        254    2    1    2    0    0 -0.42202171220E+03 -0.12499778981E+03 -0.11714355242E+04  0.15453428661E+04  0.90669543578E+03 0.  0.
         23    2    4    4    0    0 -0.86163823239E+02 -0.88126665382E+02 -0.11850295098E+04  0.11948772421E+04  0.90808431021E+02 0.  0.
         23    2    4    4    0    0 -0.33585788896E+03 -0.36871124426E+02  0.13593985516E+02  0.35046562396E+03  0.92094276403E+02 0.  0.
          2    1    3    3  502    0  0.29887818066E+02 -0.83381559996E+01 -0.53199472573E+01  0.31481873404E+02  0.00000000000E+00 0. -1.
         -1    1    3    3    0  502  0.39213389413E+03  0.13333594581E+03 -0.23604656859E+03  0.47672365990E+03  0.00000000000E+00 0.  1.
         11    1    5    5    0    0 -0.55891317155E+02 -0.66350931099E+02 -0.41628242486E+03  0.42522622524E+03  0.00000000000E+00 0. -1.
        -11    1    5    5    0    0 -0.30272506084E+02 -0.21775734282E+02 -0.76874708490E+03  0.76965101687E+03  0.00000000000E+00 0.  1.
          4    1    6    6  503    0 -0.12323623800E+03  0.15923560238E+02  0.38224831660E+02  0.13000718396E+03  0.00000000000E+00 0. -1.
         -4    1    6    6    0  503 -0.21262165096E+03 -0.52794684663E+02 -0.24630846144E+02  0.22045844000E+03  0.00000000000E+00 0.  1.
<mgrwt>
<rscale>  0 0.14903192E+04</rscale>
<asrwt>0</asrwt>
<pdfrwt beam="1">  1        2 0.26664234E+00 0.14903192E+04</pdfrwt>
<pdfrwt beam="2">  1       -1 0.49288181E-01 0.14903192E+04</pdfrwt>
<totfact> 0.42704585E+01</totfact>
</mgrwt>
</event>
<event>
12    6  0.1530720E-007  0.1792255E+04  0.7818608E-02  0.8710429E-01
          2   -1    0    0  501    0  0.00000000000E+00  0.00000000000E+00  0.12048219005E+04  0.12048219005E+04  0.00000000000E+00 0. -1.
         -1   -1    0    0    0  501 -0.00000000000E+00 -0.00000000000E+00 -0.66652512881E+03  0.66652512881E+03  0.00000000000E+00 0.  1.
         24    2    1    2    0    0 -0.18479145904E+03  0.20145558965E+03  0.83567014558E+03  0.88238910966E+03  0.74388915114E+02 0.  0.
        254    2    1    2    0    0  0.18479145904E+03 -0.20145558965E+03 -0.29737337386E+03  0.98895791968E+03  0.90270405200E+03 0.  0.
         23    2    4    4    0    0 -0.15853882445E+02  0.29710334517E+03 -0.31664794690E+03  0.44350079794E+03  0.88911710113E+02 0.  0.
         23    2    4    4    0    0  0.20064534149E+03 -0.49855893482E+03  0.19274573048E+02  0.54545712174E+03  0.91281969438E+02 0.  0.
          4    1    3    3  502    0 -0.16155667083E+03  0.16533280361E+03  0.60303766200E+03  0.64582498839E+03  0.00000000000E+00 0. -1.
         -3    1    3    3    0  502 -0.23234788215E+02  0.36122786043E+02  0.23263248358E+03  0.23656412126E+03  0.00000000000E+00 0.  1.
         11    1    5    5    0    0 -0.47529209566E+02  0.10177763847E+03 -0.12444244716E+03  0.16764139139E+03  0.00000000000E+00 0. -1.
        -11    1    5    5    0    0  0.31675327121E+02  0.19532570670E+03 -0.19220549975E+03  0.27585940655E+03  0.00000000000E+00 0.  1.
          2    1    6    6  503    0  0.17361833538E+03 -0.48435926893E+03  0.16487430106E+02  0.51480002247E+03  0.00000000000E+00 0. -1.
         -2    1    6    6    0  503  0.27027006103E+02 -0.14199665891E+02  0.27871429422E+01  0.30657099277E+02  0.00000000000E+00 0.  1.
<mgrwt>
<rscale>  0 0.17922545E+04</rscale>
<asrwt>0</asrwt>
<pdfrwt beam="1">  1        2 0.18535722E+00 0.17922545E+04</pdfrwt>
<pdfrwt beam="2">  1       -1 0.10254233E+00 0.17922545E+04</pdfrwt>
<totfact> 0.18232576E+01</totfact>
</mgrwt>
</event>
<event>
12    6  0.1530720E-007  0.1917205E+04  0.7818608E-02  0.8646340E-01
         -1   -1    0    0    0  501 -0.00000000000E+00  0.00000000000E+00  0.21103745334E+04  0.21103745334E+04  0.00000000000E+00 0.  1.
          2   -1    0    0  501    0  0.00000000000E+00 -0.00000000000E+00 -0.43542911663E+03  0.43542911663E+03  0.00000000000E+00 0. -1.
         24    2    1    2    0    0 -0.60846136147E+03  0.49434953571E+01  0.91866172259E+02  0.62063946420E+03  0.80649143620E+02 0.  0.
        254    2    1    2    0    0  0.60846136147E+03 -0.49434953571E+01  0.15830792445E+04  0.19251641859E+04  0.91097068093E+03 0.  0.
         23    2    4    4    0    0  0.44326652320E+02 -0.10560192209E+03 -0.76970948354E+02  0.16659264996E+03  0.93337913373E+02 0.  0.
         23    2    4    4    0    0  0.56413470915E+03  0.10065842674E+03  0.16600501929E+04  0.17585715359E+04  0.91799319549E+02 0.  0.
          2    1    3    3  502    0 -0.59761365388E+03  0.23087165970E+00  0.78428146442E+02  0.60273800839E+03  0.00000000000E+00 0. -1.
         -1    1    3    3    0  502 -0.10847707585E+02  0.47126236974E+01  0.13438025817E+02  0.17901455801E+02  0.00000000000E+00 0.  1.
         11    1    5    5    0    0 -0.23942470423E+02 -0.50278637525E+02 -0.49553374488E+02  0.74543411543E+02  0.00000000000E+00 0. -1.
        -11    1    5    5    0    0  0.68269122743E+02 -0.55323284569E+02 -0.27417573866E+02  0.92049238413E+02  0.00000000000E+00 0.  1.
          3    1    6    6  503    0  0.18994033072E+01 -0.23782897469E+01  0.19119880319E+00  0.30496806433E+01  0.00000000000E+00 0. -1.
         -3    1    6    6    0  503  0.56223530584E+03  0.10303671648E+03  0.16598589941E+04  0.17555218553E+04  0.00000000000E+00 0.  1.
<mgrwt>
<rscale>  0 0.19172048E+04</rscale>
<asrwt>0</asrwt>
<pdfrwt beam="1">  1        2 0.66989096E-01 0.19172048E+04</pdfrwt>
<pdfrwt beam="2">  1       -1 0.32467300E+00 0.19172048E+04</pdfrwt>
<totfact> 0.17634176E+00</totfact>
</mgrwt>
</event>
<event>
12    6  0.1530720E-007  0.1663976E+04  0.7818608E-02  0.8782181E-01
          2   -1    0    0  501    0  0.00000000000E+00  0.00000000000E+00  0.93051656426E+03  0.93051656426E+03  0.00000000000E+00 0. -1.
         -1   -1    0    0    0  501 -0.00000000000E+00 -0.00000000000E+00 -0.74389203917E+03  0.74389203917E+03  0.00000000000E+00 0.  1.
         24    2    1    2    0    0  0.99863798881E+02  0.35150032776E+03  0.52533140398E+03  0.64494973774E+03  0.80385455483E+02 0.  0.
        254    2    1    2    0    0 -0.99863798881E+02 -0.35150032776E+03 -0.33870687889E+03  0.10294588657E+04  0.90085401015E+03 0.  0.
         23    2    4    4    0    0  0.51028072672E+02 -0.35564836681E+03 -0.60545147904E+03  0.70977261207E+03  0.90089080133E+02 0.  0.
         23    2    4    4    0    0 -0.15089187155E+03  0.41480390419E+01  0.26674460015E+03  0.31968625363E+03  0.90890351095E+02 0.  0.
          4    1    3    3  502    0  0.78464232802E+02  0.32661075631E+03  0.44028570332E+03  0.55378942074E+03  0.00000000000E+00 0. -1.
         -3    1    3    3    0  502  0.21399566079E+02  0.24889571452E+02  0.85045700656E+02  0.91160316999E+02  0.00000000000E+00 0.  1.
         11    1    5    5    0    0  0.31058892883E+01 -0.41547088608E+02 -0.14107843001E+03  0.14710176931E+03  0.00000000000E+00 0. -1.
        -11    1    5    5    0    0  0.47922183383E+02 -0.31410127820E+03 -0.46437304903E+03  0.56267084276E+03  0.00000000000E+00 0.  1.
          2    1    6    6  503    0 -0.32013230498E+02  0.39634632423E+02  0.95276024622E+02  0.10804291685E+03  0.00000000000E+00 0.  1.
         -2    1    6    6    0  503 -0.11887864105E+03 -0.35486593381E+02  0.17146857552E+03  0.21164333677E+03  0.00000000000E+00 0. -1.
<mgrwt>
<rscale>  0 0.16639758E+04</rscale>
<asrwt>0</asrwt>
<pdfrwt beam="1">  1        2 0.14315640E+00 0.16639758E+04</pdfrwt>
<pdfrwt beam="2">  1       -1 0.11444493E+00 0.16639758E+04</pdfrwt>
<totfact> 0.21153975E+01</totfact>
</mgrwt>
</event>
<event>
12    6  0.1530720E-007  0.1571740E+04  0.7818608E-02  0.8838100E-01
          2   -1    0    0  501    0  0.00000000000E+00  0.00000000000E+00  0.15927280477E+04  0.15927280477E+04  0.00000000000E+00 0. -1.
         -1   -1    0    0    0  501 -0.00000000000E+00 -0.00000000000E+00 -0.38775722149E+03  0.38775722149E+03  0.00000000000E+00 0.  1.
         24    2    1    2    0    0  0.27915186116E+03 -0.37246233986E+03  0.10477926819E+03  0.48394795508E+03  0.81073867407E+02 0.  0.
        254    2    1    2    0    0 -0.27915186116E+03  0.37246233986E+03  0.11001915581E+04  0.14965373141E+04  0.90141472809E+03 0.  0.
         23    2    4    4    0    0 -0.14251887889E+03 -0.13899110811E+03  0.89676825661E+03  0.92366728399E+03  0.96632222818E+02 0.  0.
         23    2    4    4    0    0 -0.13663298227E+03  0.51145344797E+03  0.20342330145E+03  0.57287003015E+03  0.80906307481E+02 0.  0.
          4    1    3    3  502    0  0.84479354623E+02 -0.13942285393E+03  0.73061753705E+02  0.17864353727E+03  0.00000000000E+00 0. -1.
         -3    1    3    3    0  502  0.19467250654E+03 -0.23303948593E+03  0.31717514489E+02  0.30530441780E+03  0.00000000000E+00 0.  1.
         11    1    5    5    0    0 -0.22166110831E+02 -0.87661629938E+02  0.37329169950E+03  0.38408669692E+03  0.00000000000E+00 0. -1.
        -11    1    5    5    0    0 -0.12035276806E+03 -0.51329478173E+02  0.52347655711E+03  0.53958058708E+03  0.00000000000E+00 0.  1.
          1    1    6    6  503    0 -0.76790456514E+02  0.15604082443E+03  0.84397639952E+02  0.19330927223E+03  0.00000000000E+00 0. -1.
         -1    1    6    6    0  503 -0.59842525760E+02  0.35541262354E+03  0.11902566149E+03  0.37956075792E+03  0.00000000000E+00 0.  1.
<mgrwt>
<rscale>  0 0.15717402E+04</rscale>
<asrwt>0</asrwt>
<pdfrwt beam="1">  1        2 0.24503508E+00 0.15717402E+04</pdfrwt>
<pdfrwt beam="2">  1       -1 0.59654958E-01 0.15717402E+04</pdfrwt>
<totfact> 0.35112150E+01</totfact>
</mgrwt>
</event>
<event>
12    6  0.1530720E-007  0.1518019E+04  0.7818608E-02  0.8872558E-01
          2   -1    0    0  501    0  0.00000000000E+00  0.00000000000E+00  0.88435008758E+03  0.88435008758E+03  0.00000000000E+00 0. -1.
         -1   -1    0    0    0  501 -0.00000000000E+00 -0.00000000000E+00 -0.65143371860E+03  0.65143371860E+03  0.00000000000E+00 0.  1.
         24    2    1    2    0    0  0.20003771929E+02  0.28390492696E+03  0.47202189280E+03  0.55664537203E+03  0.77764030709E+02 0.  0.
        254    2    1    2    0    0 -0.20003771929E+02 -0.28390492696E+03 -0.23910552383E+03  0.97913843415E+03  0.90583578162E+03 0.  0.
         23    2    4    4    0    0 -0.42998267179E+02 -0.52081527400E+03  0.11517877115E+03  0.54286270671E+03  0.91303715196E+02 0.  0.
         23    2    4    4    0    0  0.22994495250E+02  0.23691034704E+03 -0.35428429498E+03  0.43627572744E+03  0.90354243597E+02 0.  0.
          2    1    3    3  502    0  0.14832179212E+02  0.73072152398E+02  0.19289242249E+03  0.20680188503E+03  0.00000000000E+00 0. -1.
         -1    1    3    3    0  502  0.51715927169E+01  0.21083277456E+03  0.27912947031E+03  0.34984348700E+03  0.00000000000E+00 0.  1.
         11    1    5    5    0    0 -0.31200774322E+02 -0.14216844801E+03  0.69482644872E+02  0.16128606222E+03  0.00000000000E+00 0. -1.
        -11    1    5    5    0    0 -0.11797492857E+02 -0.37864682598E+03  0.45696126282E+02  0.38157664449E+03  0.00000000000E+00 0.  1.
          1    1    6    6  503    0 -0.65746377424E+00  0.12797087575E+03 -0.26189666953E+03  0.29149072509E+03  0.00000000000E+00 0. -1.
         -1    1    6    6    0  503  0.23651959025E+02  0.10893947129E+03 -0.92387625445E+02  0.14478500235E+03  0.00000000000E+00 0.  1.
<mgrwt>
<rscale>  0 0.15180191E+04</rscale>
<asrwt>0</asrwt>
<pdfrwt beam="1">  1        2 0.13605386E+00 0.15180191E+04</pdfrwt>
<pdfrwt beam="2">  1       -1 0.10022057E+00 0.15180191E+04</pdfrwt>
<totfact> 0.31392870E+01</totfact>
</mgrwt>
</event>
<event>
12    6  0.1530720E-007  0.1822505E+04  0.7818608E-02  0.8694422E-01
         -1   -1    0    0    0  501 -0.00000000000E+00  0.00000000000E+00  0.80876732452E+03  0.80876732452E+03  0.00000000000E+00 0.  1.
          2   -1    0    0  501    0  0.00000000000E+00 -0.00000000000E+00 -0.10267244518E+04  0.10267244518E+04  0.00000000000E+00 0. -1.
         24    2    1    2    0    0  0.19769786928E+03  0.48470946719E+03 -0.52531933240E+03  0.74575347467E+03  0.78486488571E+02 0.  0.
        254    2    1    2    0    0 -0.19769786928E+03 -0.48470946719E+03  0.30736220509E+03  0.10897383017E+04  0.90500294250E+03 0.  0.
         23    2    4    4    0    0 -0.27791522848E+03  0.13201477431E+03 -0.10507477104E+03  0.33785596242E+03  0.91875834568E+02 0.  0.
         23    2    4    4    0    0  0.80217359204E+02 -0.61672424150E+03  0.41243697613E+03  0.75188233926E+03  0.91864998998E+02 0.  0.
          2    1    3    3  502    0  0.11235984835E+03  0.34509877437E+03 -0.39634041645E+03  0.53740452669E+03  0.00000000000E+00 0. -1.
         -1    1    3    3    0  502  0.85338020926E+02  0.13961069282E+03 -0.12897891595E+03  0.20834894798E+03  0.00000000000E+00 0.  1.
         11    1    5    5    0    0 -0.85510246071E+02  0.38724622587E+02 -0.78527992286E+02  0.12238563703E+03  0.00000000000E+00 0. -1.
        -11    1    5    5    0    0 -0.19240498241E+03  0.93290151722E+02 -0.26546778755E+02  0.21547032540E+03  0.00000000000E+00 0.  1.
          4    1    6    6  503    0  0.35353608770E+02 -0.48687247362E+03  0.35179820294E+03  0.60171144148E+03  0.00000000000E+00 0. -1.
         -4    1    6    6    0  503  0.44863750434E+02 -0.12985176788E+03  0.60638773188E+02  0.15017089778E+03  0.00000000000E+00 0.  1.
<mgrwt>
<rscale>  0 0.18225051E+04</rscale>
<asrwt>0</asrwt>
<pdfrwt beam="1">  1        2 0.15795761E+00 0.18225051E+04</pdfrwt>
<pdfrwt beam="2">  1       -1 0.12442574E+00 0.18225051E+04</pdfrwt>
<totfact> 0.14738627E+01</totfact>
</mgrwt>
</event>
<event>
12    6  0.1530720E-007  0.1005241E+04  0.7818608E-02  0.9302815E-01
         -1   -1    0    0    0  501 -0.00000000000E+00  0.00000000000E+00  0.16235988677E+03  0.16235988677E+03  0.00000000000E+00 0.  1.
          2   -1    0    0  501    0  0.00000000000E+00 -0.00000000000E+00 -0.15559709990E+04  0.15559709990E+04  0.00000000000E+00 0. -1.
         24    2    1    2    0    0  0.60242212674E+02  0.64335244281E+01 -0.25465442520E+03  0.27376282175E+03  0.80166650648E+02 0.  0.
        254    2    1    2    0    0 -0.60242212674E+02 -0.64335244281E+01 -0.11389566870E+04  0.14445680640E+04  0.88650101084E+03 0.  0.
         23    2    4    4    0    0  0.19519299777E+03  0.65760905302E+02 -0.11422501033E+04  0.11643027366E+04  0.91873613705E+02 0.  0.
         23    2    4    4    0    0 -0.25543521044E+03 -0.72194429730E+02  0.32934162526E+01  0.28026532744E+03  0.89881170219E+02 0.  0.
          2    1    3    3  502    0  0.37672031665E+02  0.28400329501E+02 -0.22699636279E+03  0.23184716821E+03  0.00000000000E+00 0. -1.
         -1    1    3    3    0  502  0.22570181009E+02 -0.21966805073E+02 -0.27658062405E+02  0.41915653542E+02  0.00000000000E+00 0.  1.
         11    1    5    5    0    0  0.17668552073E+03  0.85440340023E+02 -0.94108474309E+03  0.96133153419E+03  0.00000000000E+00 0. -1.
        -11    1    5    5    0    0  0.18507477034E+02 -0.19679434722E+02 -0.20116536020E+03  0.20297120239E+03  0.00000000000E+00 0.  1.
          1    1    6    6  503    0 -0.15628714446E+03 -0.87580864558E+02 -0.77710997935E+01  0.17932225002E+03  0.00000000000E+00 0. -1.
         -1    1    6    6    0  503 -0.99148065983E+02  0.15386434829E+02  0.11064516046E+02  0.10094307743E+03  0.00000000000E+00 0.  1.
<mgrwt>
<rscale>  0 0.10052408E+04</rscale>
<asrwt>0</asrwt>
<pdfrwt beam="1">  1        2 0.23938016E+00 0.10052408E+04</pdfrwt>
<pdfrwt beam="2">  1       -1 0.24978443E-01 0.10052408E+04</pdfrwt>
<totfact> 0.18820868E+02</totfact>
</mgrwt>
</event>
<event>
12    6  0.1530720E-007  0.1319604E+04  0.7818608E-02  0.9014162E-01
         -1   -1    0    0    0  501 -0.00000000000E+00  0.00000000000E+00  0.34126118387E+03  0.34126118387E+03  0.00000000000E+00 0.  1.
          2   -1    0    0  501    0  0.00000000000E+00 -0.00000000000E+00 -0.12756751202E+04  0.12756751202E+04  0.00000000000E+00 0. -1.
         24    2    1    2    0    0 -0.22151500589E+03  0.20402171064E+03 -0.56570879306E+02  0.31649024357E+03  0.79196298155E+02 0.  0.
        254    2    1    2    0    0  0.22151500589E+03 -0.20402171064E+03 -0.87784305701E+03  0.13004460605E+04  0.91096529419E+03 0.  0.
         23    2    4    4    0    0  0.48263002800E+03 -0.15614286116E+03 -0.87947721176E+03  0.10192961633E+04  0.90400030686E+02 0.  0.
         23    2    4    4    0    0 -0.26111502211E+03 -0.47878849478E+02  0.16341547481E+01  0.28114989715E+03  0.92569731604E+02 0.  0.
          4    1    3    3  502    0 -0.74769024868E+02  0.41756620853E+02 -0.46570767070E+02  0.97482607732E+02  0.00000000000E+00 0. -1.
         -3    1    3    3    0  502 -0.14674598103E+03  0.16226508979E+03 -0.10000112236E+02  0.21900763584E+03  0.00000000000E+00 0.  1.
         11    1    5    5    0    0  0.20320056071E+02 -0.12395372642E+02 -0.90855404060E+02  0.93921533146E+02  0.00000000000E+00 0.  1.
        -11    1    5    5    0    0  0.46230997193E+03 -0.14374748852E+03 -0.78862180770E+03  0.92537463018E+03  0.00000000000E+00 0. -1.
          2    1    6    6  503    0 -0.44691438624E+02 -0.40468440996E+02 -0.19999274869E+02  0.63521574274E+02  0.00000000000E+00 0.  1.
         -2    1    6    6    0  503 -0.21642358348E+03 -0.74104084815E+01  0.21633429617E+02  0.21762832288E+03  0.00000000000E+00 0. -1.
<mgrwt>
<rscale>  0 0.13196036E+04</rscale>
<asrwt>0</asrwt>
<pdfrwt beam="1">  1        2 0.19625771E+00 0.13196036E+04</pdfrwt>
<pdfrwt beam="2">  1       -1 0.52501722E-01 0.13196036E+04</pdfrwt>
<totfact> 0.69663914E+01</totfact>
</mgrwt>
</event>
<event>
12    6  0.1530720E-007  0.2811046E+04  0.7818608E-02  0.8299847E-01
          2   -1    0    0  501    0  0.00000000000E+00  0.00000000000E+00  0.38798475031E+04  0.38798475031E+04  0.00000000000E+00 0. -1.
         -1   -1    0    0    0  501 -0.00000000000E+00 -0.00000000000E+00 -0.50916810604E+03  0.50916810604E+03  0.00000000000E+00 0.  1.
         24    2    1    2    0    0 -0.11983681105E+04  0.29058548800E+03  0.10888331628E+04  0.16469745953E+04  0.80259623294E+02 0.  0.
        254    2    1    2    0    0  0.11983681105E+04 -0.29058548800E+03  0.22818462343E+04  0.27420410138E+04  0.88962949053E+03 0.  0.
         23    2    4    4    0    0  0.22609328341E+03 -0.46833424520E+03  0.77819179508E+03  0.94035044479E+03  0.90671666153E+02 0.  0.
         23    2    4    4    0    0  0.97227482711E+03  0.17774875720E+03  0.15036544392E+04  0.18016905691E+04  0.90549842105E+02 0.  0.
          2    1    3    3  502    0 -0.16438381126E+03  0.40082756510E+02  0.18796255825E+03  0.25290035207E+03  0.00000000000E+00 0. -1.
         -3    1    3    3    0  502 -0.10339842993E+04  0.25050273149E+03  0.90087060453E+03  0.13940742432E+04  0.00000000000E+00 0.  1.
         11    1    5    5    0    0  0.57758412490E+02 -0.22293739510E+03  0.34316605123E+03  0.41327963301E+03  0.00000000000E+00 0.  1.
        -11    1    5    5    0    0  0.16833487092E+03 -0.24539685010E+03  0.43502574385E+03  0.52707081177E+03  0.00000000000E+00 0. -1.
          1    1    6    6  503    0  0.64265763889E+03  0.16058721944E+03  0.99531337299E+03  0.11955943318E+04  0.00000000000E+00 0. -1.
         -1    1    6    6    0  503  0.32961718821E+03  0.17161537762E+02  0.50834106624E+03  0.60609623722E+03  0.00000000000E+00 0.  1.
<mgrwt>
<rscale>  0 0.28110458E+04</rscale>
<asrwt>0</asrwt>
<pdfrwt beam="1">  1        2 0.59689960E+00 0.28110458E+04</pdfrwt>
<pdfrwt beam="2">  1       -1 0.78333557E-01 0.28110458E+04</pdfrwt>
<totfact> 0.68733135E-01</totfact>
</mgrwt>
</event>
<event>
12    6  0.1530720E-007  0.1319973E+04  0.7818608E-02  0.9013875E-01
          2   -1    0    0  501    0  0.00000000000E+00  0.00000000000E+00  0.41153913405E+03  0.41153913405E+03  0.00000000000E+00 0. -1.
         -1   -1    0    0    0  501 -0.00000000000E+00 -0.00000000000E+00 -0.10584222976E+04  0.10584222976E+04  0.00000000000E+00 0.  1.
         24    2    1    2    0    0  0.47753945715E+02  0.28123262833E+03 -0.40086514523E+03  0.49844535661E+03  0.79891666032E+02 0.  0.
        254    2    1    2    0    0 -0.47753945715E+02 -0.28123262833E+03 -0.24601801833E+03  0.97151607503E+03  0.89551459404E+03 0.  0.
         23    2    4    4    0    0 -0.14301658133E+02 -0.58033454967E+03 -0.24113369733E+02  0.58687111820E+03  0.82725617663E+02 0.  0.
         23    2    4    4    0    0 -0.33452287583E+02  0.29910192134E+03 -0.22190464859E+03  0.38464495682E+03  0.90161271351E+02 0.  0.
          4    1    3    3  502    0  0.23786806881E+02  0.17732557336E+03 -0.18324450111E+03  0.25610294481E+03  0.00000000000E+00 0. -1.
         -3    1    3    3    0  502  0.23967138834E+02  0.10390705497E+03 -0.21762064411E+03  0.24234241181E+03  0.00000000000E+00 0.  1.
         11    1    5    5    0    0  0.33033823006E+02 -0.31850991298E+03 -0.81074670175E+01  0.32032097831E+03  0.00000000000E+00 0. -1.
        -11    1    5    5    0    0 -0.47335481139E+02 -0.26182463669E+03 -0.16005902716E+02  0.26655013989E+03  0.00000000000E+00 0.  1.
          1    1    6    6  503    0 -0.37340374155E+02  0.27884500942E+03 -0.22908231965E+03  0.36280511572E+03  0.00000000000E+00 0. -1.
         -1    1    6    6    0  503  0.38880865728E+01  0.20256911915E+02  0.71776710532E+01  0.21839841100E+02  0.00000000000E+00 0.  1.
<mgrwt>
<rscale>  0 0.13199730E+04</rscale>
<asrwt>0</asrwt>
<pdfrwt beam="1">  1        2 0.63313715E-01 0.13199730E+04</pdfrwt>
<pdfrwt beam="2">  1       -1 0.16283419E+00 0.13199730E+04</pdfrwt>
<totfact> 0.23991325E+01</totfact>
</mgrwt>
</event>
<event>
12    6  0.1530720E-007  0.3798239E+04  0.7818608E-02  0.8046533E-01
         -1   -1    0    0    0  501 -0.00000000000E+00  0.00000000000E+00  0.18208385105E+04  0.18208385105E+04  0.00000000000E+00 0.  1.
          2   -1    0    0  501    0  0.00000000000E+00 -0.00000000000E+00 -0.19807659255E+04  0.19807659255E+04  0.00000000000E+00 0. -1.
         24    2    1    2    0    0 -0.17588497490E+04  0.12287915206E+03  0.11475544230E+03  0.17686978168E+04  0.80445197462E+02 0.  0.
        254    2    1    2    0    0  0.17588497490E+04 -0.12287915206E+03 -0.27468285731E+03  0.20329066192E+04  0.97396453976E+03 0.  0.
         23    2    4    4    0    0  0.11871772735E+04 -0.52697194763E+03 -0.25289265528E+03  0.13264542887E+04  0.91852994480E+02 0.  0.
         23    2    4    4    0    0  0.57167247551E+03  0.40409279557E+03 -0.21790202028E+02  0.70645233051E+03  0.92193685740E+02 0.  0.
          4    1    3    3  502    0 -0.33425993960E+03  0.15631873692E+02 -0.88255654666E+01  0.33474162171E+03  0.00000000000E+00 0. -1.
         -3    1    3    3    0  502 -0.14245898094E+04  0.10724727836E+03  0.12358100776E+03  0.14339561951E+04  0.00000000000E+00 0.  1.
         11    1    5    5    0    0  0.68177546492E+03 -0.34762256224E+03 -0.12954397076E+03  0.77617064535E+03  0.00000000000E+00 0. -1.
        -11    1    5    5    0    0  0.50540180862E+03 -0.17934938539E+03 -0.12334868453E+03  0.55028364338E+03  0.00000000000E+00 0.  1.
          2    1    6    6  503    0  0.30871449725E+03  0.22214923175E+03  0.34014715103E+02  0.38185327395E+03  0.00000000000E+00 0.  1.
         -2    1    6    6    0  503  0.26295797826E+03  0.18194356382E+03 -0.55804917131E+02  0.32459905656E+03  0.00000000000E+00 0. -1.
<mgrwt>
<rscale>  0 0.37982390E+04</rscale>
<asrwt>0</asrwt>
<pdfrwt beam="1">  1        2 0.30473322E+00 0.37982390E+04</pdfrwt>
<pdfrwt beam="2">  1       -1 0.28012900E+00 0.37982390E+04</pdfrwt>
<totfact> 0.27751777E-01</totfact>
</mgrwt>
</event>
<event>
12    6  0.1530720E-007  0.1556473E+04  0.7818608E-02  0.8847744E-01
         -1   -1    0    0    0  501 -0.00000000000E+00  0.00000000000E+00  0.53024609415E+03  0.53024609415E+03  0.00000000000E+00 0.  1.
          2   -1    0    0  501    0  0.00000000000E+00 -0.00000000000E+00 -0.11422087410E+04  0.11422087410E+04  0.00000000000E+00 0. -1.
         24    2    1    2    0    0  0.46083604041E+03  0.19363913521E+03 -0.31958134566E+03  0.59827397888E+03  0.77029516918E+02 0.  0.
        254    2    1    2    0    0 -0.46083604041E+03 -0.19363913521E+03 -0.29238130114E+03  0.10741808562E+04  0.90471637312E+03 0.  0.
         23    2    4    4    0    0 -0.31367845501E+03 -0.68766827774E+02 -0.60750515665E+03  0.69306685708E+03  0.90311147058E+02 0.  0.
         23    2    4    4    0    0 -0.14715758540E+03 -0.12487230744E+03  0.31512385551E+03  0.38111399914E+03  0.93254425775E+02 0.  0.
          4    1    3    3  502    0  0.35599566657E+03  0.14019538755E+03 -0.20516409713E+03  0.43414279685E+03  0.00000000000E+00 0. -1.
         -3    1    3    3    0  502  0.10484037384E+03  0.53443747664E+02 -0.11441724853E+03  0.16413118202E+03  0.00000000000E+00 0.  1.
         11    1    5    5    0    0 -0.17492149993E+03 -0.16433075662E+02 -0.24574021470E+03  0.30208579946E+03  0.00000000000E+00 0. -1.
        -11    1    5    5    0    0 -0.13875695508E+03 -0.52333752112E+02 -0.36176494195E+03  0.39098105762E+03  0.00000000000E+00 0.  1.
          2    1    6    6  503    0 -0.20765503596E+02 -0.71497722198E+02  0.83212582419E+02  0.11165779996E+03  0.00000000000E+00 0. -1.
         -2    1    6    6    0  503 -0.12639208180E+03 -0.53374585242E+02  0.23191127309E+03  0.26945619918E+03  0.00000000000E+00 0.  1.
<mgrwt>
<rscale>  0 0.15564726E+04</rscale>
<asrwt>0</asrwt>
<pdfrwt beam="1">  1        2 0.17572442E+00 0.15564726E+04</pdfrwt>
<pdfrwt beam="2">  1       -1 0.81576322E-01 0.15564726E+04</pdfrwt>
<totfact> 0.33699051E+01</totfact>
</mgrwt>
</event>
<event>
12    6  0.1530720E-007  0.2823632E+04  0.7818608E-02  0.8295969E-01
         -1   -1    0    0    0  501 -0.00000000000E+00  0.00000000000E+00  0.16991964781E+04  0.16991964781E+04  0.00000000000E+00 0.  1.
          2   -1    0    0  501    0  0.00000000000E+00 -0.00000000000E+00 -0.11730389975E+04  0.11730389975E+04  0.00000000000E+00 0. -1.
         24    2    1    2    0    0  0.38396088854E+02  0.29816840304E+03  0.14895626080E+04  0.15218098542E+04  0.82035438814E+02 0.  0.
        254    2    1    2    0    0 -0.38396088854E+02 -0.29816840304E+03 -0.96340512733E+03  0.13504256214E+04  0.89728549708E+03 0.  0.
         23    2    4    4    0    0 -0.38802631436E+03  0.25921242652E+02 -0.67920135855E+03  0.78801664390E+03  0.91757365638E+02 0.  0.
         23    2    4    4    0    0  0.34963022551E+03 -0.32408964569E+03 -0.28420376878E+03  0.56240897747E+03  0.90866290297E+02 0.  0.
          2    1    3    3  502    0  0.20131447889E+02  0.11912268350E+02  0.15632950239E+03  0.15806989166E+03  0.00000000000E+00 0. -1.
         -1    1    3    3    0  502  0.18264640965E+02  0.28625613469E+03  0.13332331056E+04  0.13637399626E+04  0.00000000000E+00 0.  1.
         11    1    5    5    0    0 -0.68891074132E+02 -0.30542235010E+02 -0.13581430724E+03  0.15532010258E+03  0.00000000000E+00 0.  1.
        -11    1    5    5    0    0 -0.31913524023E+03  0.56463477662E+02 -0.54338705131E+03  0.63269654132E+03  0.00000000000E+00 0. -1.
          1    1    6    6  503    0  0.29246829969E+03 -0.31029178497E+03 -0.25363411213E+03  0.49613401514E+03  0.00000000000E+00 0. -1.
         -1    1    6    6    0  503  0.57161925818E+02 -0.13797860723E+02 -0.30569656657E+02  0.66274962330E+02  0.00000000000E+00 0.  1.
<mgrwt>
<rscale>  0 0.28236315E+04</rscale>
<asrwt>0</asrwt>
<pdfrwt beam="1">  1        2 0.18046754E+00 0.28236315E+04</pdfrwt>
<pdfrwt beam="2">  1       -1 0.26141484E+00 0.28236315E+04</pdfrwt>
<totfact> 0.11428705E+00</totfact>
</mgrwt>
</event>
<event>
12    6  0.1530720E-007  0.1259441E+04  0.7818608E-02  0.9062362E-01
         -1   -1    0    0    0  501 -0.00000000000E+00  0.00000000000E+00  0.53368032803E+03  0.53368032803E+03  0.00000000000E+00 0.  1.
          2   -1    0    0  501    0  0.00000000000E+00 -0.00000000000E+00 -0.74304422941E+03  0.74304422941E+03  0.00000000000E+00 0. -1.
         24    2    1    2    0    0  0.16329760271E+03  0.20214680049E+03  0.42158824931E+02  0.27547697800E+03  0.81121901417E+02 0.  0.
        254    2    1    2    0    0 -0.16329760271E+03 -0.20214680049E+03 -0.25152272630E+03  0.10012475794E+04  0.93365068279E+03 0.  0.
         23    2    4    4    0    0 -0.10557377624E+03  0.36454474034E+02 -0.57053965429E+03  0.58844015185E+03  0.90948140637E+02 0.  0.
         23    2    4    4    0    0 -0.57723826469E+02 -0.23860127453E+03  0.31901692799E+03  0.41280742759E+03  0.91518105208E+02 0.  0.
          2    1    3    3  502    0  0.42522420984E+02  0.47752145767E+02  0.47064120803E+02  0.79394301928E+02  0.00000000000E+00 0. -1.
         -1    1    3    3    0  502  0.12077518173E+03  0.15439465473E+03 -0.49052958719E+01  0.19608267607E+03  0.00000000000E+00 0.  1.
         11    1    5    5    0    0 -0.63347172260E+02 -0.54265655145E+01 -0.13935890340E+03  0.15317707336E+03  0.00000000000E+00 0. -1.
        -11    1    5    5    0    0 -0.42226603980E+02  0.41881039549E+02 -0.43118075089E+03  0.43526307849E+03  0.00000000000E+00 0.  1.
          1    1    6    6  503    0 -0.27793158478E+02 -0.18872292998E+02  0.15729911770E+02  0.37095191407E+02  0.00000000000E+00 0. -1.
         -1    1    6    6    0  503 -0.29930667990E+02 -0.21972898153E+03  0.30328701622E+03  0.37571223618E+03  0.00000000000E+00 0.  1.
<mgrwt>
<rscale>  0 0.12594413E+04</rscale>
<asrwt>0</asrwt>
<pdfrwt beam="1">  1        2 0.11431450E+00 0.12594413E+04</pdfrwt>
<pdfrwt beam="2">  1       -1 0.82104666E-01 0.12594413E+04</pdfrwt>
<totfact> 0.62890806E+01</totfact>
</mgrwt>
</event>
<event>
12    6  0.1530720E-007  0.1432030E+04  0.7818608E-02  0.8930954E-01
          2   -1    0    0  501    0  0.00000000000E+00  0.00000000000E+00  0.20960391179E+04  0.20960391179E+04  0.00000000000E+00 0. -1.
         -1   -1    0    0    0  501 -0.00000000000E+00 -0.00000000000E+00 -0.24459353030E+03  0.24459353030E+03  0.00000000000E+00 0.  1.
         24    2    1    2    0    0 -0.25478629721E+03  0.14012328554E+03  0.11873032862E+03  0.32306026533E+03  0.75633667808E+02 0.  0.
        254    2    1    2    0    0  0.25478629721E+03 -0.14012328554E+03  0.17327152589E+04  0.20175723828E+04  0.99183948248E+03 0.  0.
         23    2    4    4    0    0 -0.20400640647E+03  0.10853779154E+03  0.49719469579E+02  0.25325430016E+03  0.90921113160E+02 0.  0.
         23    2    4    4    0    0  0.45879270368E+03 -0.24866107708E+03  0.16829957894E+04  0.17643180827E+04  0.89556650482E+02 0.  0.
          4    1    3    3  502    0 -0.41234320638E+02 -0.23311690200E+01  0.28114674141E+01  0.41395747324E+02  0.00000000000E+00 0. -1.
         -3    1    3    3    0  502 -0.21355197657E+03  0.14245445456E+03  0.11591886120E+03  0.28166451801E+03  0.00000000000E+00 0.  1.
         11    1    5    5    0    0 -0.14183163478E+03  0.99343496277E+02  0.76603722739E-01  0.17316278106E+03  0.00000000000E+00 0. -1.
        -11    1    5    5    0    0 -0.62174771691E+02  0.91942952618E+01  0.49642865856E+02  0.80091519093E+02  0.00000000000E+00 0.  1.
          4    1    6    6  503    0  0.25666682269E+03 -0.12216736232E+03  0.10534960535E+04  0.10911721482E+04  0.00000000000E+00 0. -1.
         -4    1    6    6    0  503  0.20212588099E+03 -0.12649371476E+03  0.62949973584E+03  0.67314593445E+03  0.00000000000E+00 0.  1.
<mgrwt>
<rscale>  0 0.14320302E+04</rscale>
<asrwt>0</asrwt>
<pdfrwt beam="1">  1        2 0.32246754E+00 0.14320302E+04</pdfrwt>
<pdfrwt beam="2">  1       -1 0.37629775E-01 0.14320302E+04</pdfrwt>
<totfact> 0.44517052E+01</totfact>
</mgrwt>
</event>
<event>
12    6  0.1530720E-007  0.1972384E+04  0.7818608E-02  0.8619642E-01
          2   -1    0    0  501    0  0.00000000000E+00  0.00000000000E+00  0.72452789008E+03  0.72452789008E+03  0.00000000000E+00 0. -1.
         -1   -1    0    0    0  501 -0.00000000000E+00 -0.00000000000E+00 -0.13423558714E+04  0.13423558714E+04  0.00000000000E+00 0.  1.
         24    2    1    2    0    0  0.23234951239E+02 -0.43006235171E+03  0.43673582009E+03  0.61856459864E+03  0.79940583086E+02 0.  0.
        254    2    1    2    0    0 -0.23234951239E+02  0.43006235171E+03 -0.10545638014E+04  0.14483191628E+04  0.89444401551E+03 0.  0.
         23    2    4    4    0    0 -0.20571175043E+03 -0.15998245663E+03 -0.64495434568E+03  0.70158538304E+03  0.91346762337E+02 0.  0.
         23    2    4    4    0    0  0.18247679919E+03  0.59004480834E+03 -0.40960945572E+03  0.74673377979E+03  0.91546565070E+02 0.  0.
          2    1    3    3  502    0  0.22563500315E+02 -0.34124636184E+03  0.38817599495E+03  0.51733818153E+03  0.00000000000E+00 0. -1.
         -1    1    3    3    0  502  0.67145092446E+00 -0.88815989868E+02  0.48559825139E+02  0.10122641711E+03  0.00000000000E+00 0.  1.
         11    1    5    5    0    0 -0.19782723428E+03 -0.17052384664E+03 -0.59261561014E+03  0.64761659821E+03  0.00000000000E+00 0. -1.
        -11    1    5    5    0    0 -0.78845161475E+01  0.10541390004E+02 -0.52338735549E+02  0.53968784838E+02  0.00000000000E+00 0.  1.
          2    1    6    6  503    0  0.71142857668E+02  0.33467751934E+03 -0.26551852586E+03  0.43309402642E+03  0.00000000000E+00 0. -1.
         -2    1    6    6    0  503  0.11133394152E+03  0.25536728900E+03 -0.14409092987E+03  0.31363975337E+03  0.00000000000E+00 0.  1.
<mgrwt>
<rscale>  0 0.19723836E+04</rscale>
<asrwt>0</asrwt>
<pdfrwt beam="1">  1        2 0.11146583E+00 0.19723836E+04</pdfrwt>
<pdfrwt beam="2">  1       -1 0.20651629E+00 0.19723836E+04</pdfrwt>
<totfact> 0.56581251E+00</totfact>
</mgrwt>
</event>
<event>
12    6  0.1530720E-007  0.2354050E+04  0.7818608E-02  0.8456910E-01
          2   -1    0    0  501    0  0.00000000000E+00  0.00000000000E+00  0.36460238057E+04  0.36460238057E+04  0.00000000000E+00 0. -1.
         -1   -1    0    0    0  501 -0.00000000000E+00 -0.00000000000E+00 -0.37997218999E+03  0.37997218999E+03  0.00000000000E+00 0.  1.
         24    2    1    2    0    0  0.69444895149E+03  0.20393547508E+02  0.14473971223E+03  0.71436828681E+03  0.81836556003E+02 0.  0.
        254    2    1    2    0    0 -0.69444895149E+03 -0.20393547508E+02  0.31213119035E+04  0.33116277089E+04  0.86117062210E+03 0.  0.
         23    2    4    4    0    0 -0.43686952091E+03 -0.40947441543E+03  0.13901973014E+04  0.15163695772E+04  0.90575287090E+02 0.  0.
         23    2    4    4    0    0 -0.25757943058E+03  0.38908086792E+03  0.17311146021E+04  0.17952581317E+04  0.91994070334E+02 0.  0.
          2    1    3    3  502    0  0.51652041203E+02 -0.10908971290E+02  0.29814215633E+02  0.60628594481E+02  0.00000000000E+00 0. -1.
         -1    1    3    3    0  502  0.64279691029E+03  0.31302518798E+02  0.11492549660E+03  0.65373969233E+03  0.00000000000E+00 0.  1.
         11    1    5    5    0    0 -0.70036138513E+00 -0.20321819771E+02  0.34918150176E+02  0.40407228024E+02  0.00000000000E+00 0.  1.
        -11    1    5    5    0    0 -0.43616915953E+03 -0.38915259566E+03  0.13552791512E+04  0.14759623492E+04  0.00000000000E+00 0. -1.
          4    1    6    6  503    0 -0.24436542379E+03  0.37971742451E+03  0.15794127218E+04  0.16426942286E+04  0.00000000000E+00 0. -1.
         -4    1    6    6    0  503 -0.13214006786E+02  0.93634434132E+01  0.15170188030E+03  0.15256390312E+03  0.00000000000E+00 0.  1.
<mgrwt>
<rscale>  0 0.23540498E+04</rscale>
<asrwt>0</asrwt>
<pdfrwt beam="1">  1        2 0.56092671E+00 0.23540498E+04</pdfrwt>
<pdfrwt beam="2">  1       -1 0.58457263E-01 0.23540498E+04</pdfrwt>
<totfact> 0.19527544E+00</totfact>
</mgrwt>
</event>
<event>
12    6  0.1530720E-007  0.2120429E+04  0.7818608E-02  0.8552297E-01
          2   -1    0    0  501    0  0.00000000000E+00  0.00000000000E+00  0.14102026670E+04  0.14102026670E+04  0.00000000000E+00 0. -1.
         -1   -1    0    0    0  501 -0.00000000000E+00 -0.00000000000E+00 -0.79708730719E+03  0.79708730719E+03  0.00000000000E+00 0.  1.
         24    2    1    2    0    0 -0.14699112802E+03  0.37378290341E+03  0.10405487505E+04  0.11182360126E+04  0.79937644718E+02 0.  0.
        254    2    1    2    0    0  0.14699112802E+03 -0.37378290341E+03 -0.42743339065E+03  0.10890539616E+04  0.91761602936E+03 0.  0.
         23    2    4    4    0    0  0.41777049433E+03 -0.51539721169E+03 -0.20354677627E+03  0.69985810392E+03  0.90573747544E+02 0.  0.
         23    2    4    4    0    0 -0.27077936631E+03  0.14161430828E+03 -0.22388661439E+03  0.38919585773E+03  0.89286740559E+02 0.  0.
          2    1    3    3  502    0 -0.69205791060E+02  0.22355604431E+03  0.69808685650E+03  0.73626897645E+03  0.00000000000E+00 0. -1.
         -1    1    3    3    0  502 -0.77785336959E+02  0.15022685910E+03  0.34246189400E+03  0.38196703612E+03  0.00000000000E+00 0.  1.
         11    1    5    5    0    0  0.20745546756E+03 -0.27359167903E+03 -0.59365048089E+02  0.34844567265E+03  0.00000000000E+00 0. -1.
        -11    1    5    5    0    0  0.21031502677E+03 -0.24180553266E+03 -0.14418172818E+03  0.35141243127E+03  0.00000000000E+00 0.  1.
          4    1    6    6  503    0 -0.16125676731E+03  0.66244778165E+02 -0.17642489799E+03  0.24802794251E+03  0.00000000000E+00 0. -1.
         -4    1    6    6    0  503 -0.10952259900E+03  0.75369530116E+02 -0.47461716399E+02  0.14116791521E+03  0.00000000000E+00 0.  1.
<mgrwt>
<rscale>  0 0.21204289E+04</rscale>
<asrwt>0</asrwt>
<pdfrwt beam="1">  1        2 0.21695426E+00 0.21204289E+04</pdfrwt>
<pdfrwt beam="2">  1       -1 0.12262882E+00 0.21204289E+04</pdfrwt>
<totfact> 0.87849074E+00</totfact>
</mgrwt>
</event>
<event>
12    6  0.1530720E-007  0.1279209E+04  0.7818608E-02  0.9046217E-01
         -1   -1    0    0    0  501 -0.00000000000E+00  0.00000000000E+00  0.27094717049E+03  0.27094717049E+03  0.00000000000E+00 0.  1.
          2   -1    0    0  501    0  0.00000000000E+00 -0.00000000000E+00 -0.15098663813E+04  0.15098663813E+04  0.00000000000E+00 0. -1.
         24    2    1    2    0    0 -0.19121539147E+03 -0.24002230652E+03 -0.16089455647E+03  0.35521727272E+03  0.78219044834E+02 0.  0.
        254    2    1    2    0    0  0.19121539147E+03  0.24002230652E+03 -0.10780246543E+04  0.14255962790E+04  0.88091631948E+03 0.  0.
         23    2    4    4    0    0 -0.33475664606E+03  0.35779235265E+02 -0.29515472125E+03  0.45672737428E+03  0.90229813144E+02 0.  0.
         23    2    4    4    0    0  0.52597203753E+03  0.20424307126E+03 -0.78286993307E+03  0.96886890476E+03  0.86370168981E+02 0.  0.
          4    1    3    3  502    0  0.69995627739E+01 -0.51878734544E+01 -0.90489364972E+00  0.87593802590E+01  0.00000000000E+00 0. -1.
         -3    1    3    3    0  502 -0.19821495424E+03 -0.23483443307E+03 -0.15998966282E+03  0.34645789246E+03  0.00000000000E+00 0.  1.
         11    1    5    5    0    0 -0.18981786044E+03 -0.14063111044E+02 -0.20113495568E+03  0.27691851081E+03  0.00000000000E+00 0. -1.
        -11    1    5    5    0    0 -0.14493878562E+03  0.49842346309E+02 -0.94019765572E+02  0.17980886347E+03  0.00000000000E+00 0.  1.
          2    1    6    6  503    0  0.22468021585E+03  0.93856634941E+02 -0.26710196733E+03  0.36143288211E+03  0.00000000000E+00 0. -1.
         -2    1    6    6    0  503  0.30129182167E+03  0.11038643632E+03 -0.51576796574E+03  0.60743602265E+03  0.00000000000E+00 0.  1.
<mgrwt>
<rscale>  0 0.12792092E+04</rscale>
<asrwt>0</asrwt>
<pdfrwt beam="1">  1        2 0.23228714E+00 0.12792092E+04</pdfrwt>
<pdfrwt beam="2">  1       -1 0.41684179E-01 0.12792092E+04</pdfrwt>
<totfact> 0.79107937E+01</totfact>
</mgrwt>
</event>
<event>
12    6  0.1530720E-007  0.2634847E+04  0.7818608E-02  0.8356460E-01
         -1   -1    0    0    0  501 -0.00000000000E+00  0.00000000000E+00  0.21339333619E+04  0.21339333619E+04  0.00000000000E+00 0.  1.
          2   -1    0    0  501    0  0.00000000000E+00 -0.00000000000E+00 -0.81333571168E+03  0.81333571168E+03  0.00000000000E+00 0. -1.
         24    2    1    2    0    0  0.11624728411E+04 -0.17119289970E+02  0.55822433545E+03  0.12930941998E+04  0.94032039075E+02 0.  0.
        254    2    1    2    0    0 -0.11624728411E+04  0.17119289970E+02  0.76237331476E+03  0.16541748738E+04  0.89635108391E+03 0.  0.
         23    2    4    4    0    0 -0.46431351573E+03 -0.35603470637E+03  0.59481255547E+03  0.83971823323E+03  0.94746936866E+02 0.  0.
         23    2    4    4    0    0 -0.69815932538E+03  0.37315399633E+03  0.16756075928E+03  0.81445664056E+03  0.92696616511E+02 0.  0.
          2    1    3    3  502    0  0.29521057851E+03 -0.23813781957E+02  0.10280498860E+03  0.31350478076E+03  0.00000000000E+00 0. -1.
         -1    1    3    3    0  502  0.86726226260E+03  0.66944919874E+01  0.45541934685E+03  0.97958941901E+03  0.00000000000E+00 0.  1.
         11    1    5    5    0    0 -0.87001578781E+02 -0.11773469141E+03  0.14137362017E+03  0.20351224227E+03  0.00000000000E+00 0.  1.
        -11    1    5    5    0    0 -0.37731193695E+03 -0.23830001496E+03  0.45343893530E+03  0.63620599097E+03  0.00000000000E+00 0. -1.
          2    1    6    6  503    0 -0.27030608382E+03  0.16201595159E+03  0.23263190584E+02  0.31599956259E+03  0.00000000000E+00 0. -1.
         -2    1    6    6    0  503 -0.42785324156E+03  0.21113804474E+03  0.14429756870E+03  0.49845707797E+03  0.00000000000E+00 0.  1.
<mgrwt>
<rscale>  0 0.26348466E+04</rscale>
<asrwt>0</asrwt>
<pdfrwt beam="1">  1        2 0.12512857E+00 0.26348466E+04</pdfrwt>
<pdfrwt beam="2">  1       -1 0.32829744E+00 0.26348466E+04</pdfrwt>
<totfact> 0.73201892E-01</totfact>
</mgrwt>
</event>
<event>
12    6  0.1530720E-007  0.1204546E+04  0.7818608E-02  0.9108887E-01
         -1   -1    0    0    0  501 -0.00000000000E+00  0.00000000000E+00  0.28123444108E+03  0.28123444108E+03  0.00000000000E+00 0.  1.
          2   -1    0    0  501    0  0.00000000000E+00 -0.00000000000E+00 -0.12897881615E+04  0.12897881615E+04  0.00000000000E+00 0. -1.
         24    2    1    2    0    0  0.10567188050E+03 -0.19235874118E+03 -0.40935495915E+03  0.47158285929E+03  0.81550468822E+02 0.  0.
        254    2    1    2    0    0 -0.10567188050E+03  0.19235874118E+03 -0.59919876133E+03  0.10994397433E+04  0.89529892327E+03 0.  0.
         23    2    4    4    0    0 -0.46613455498E+03  0.13346975988E+03 -0.51976175227E+03  0.71662150993E+03  0.91096153679E+02 0.  0.
         23    2    4    4    0    0  0.36046267448E+03  0.58888981306E+02 -0.79437009059E+02  0.38281823341E+03  0.82694072383E+02 0.  0.
          4    1    3    3  502    0  0.56369756301E+02 -0.51096912776E+02 -0.20225260802E+03  0.21608924400E+03  0.00000000000E+00 0. -1.
         -3    1    3    3    0  502  0.49302124201E+02 -0.14126182841E+03 -0.20710235112E+03  0.25549361529E+03  0.00000000000E+00 0.  1.
         11    1    5    5    0    0 -0.39214597978E+03  0.13929876902E+03 -0.41056715775E+03  0.58459217198E+03  0.00000000000E+00 0.  1.
        -11    1    5    5    0    0 -0.73988575201E+02 -0.58290091445E+01 -0.10919459452E+03  0.13202933795E+03  0.00000000000E+00 0. -1.
          4    1    6    6  503    0  0.26770627768E+03  0.18727706370E+02 -0.85243951266E+02  0.28157398552E+03  0.00000000000E+00 0. -1.
         -4    1    6    6    0  503  0.92756396800E+02  0.40161274937E+02  0.58069422074E+01  0.10124424788E+03  0.00000000000E+00 0.  1.
<mgrwt>
<rscale>  0 0.12045461E+04</rscale>
<asrwt>0</asrwt>
<pdfrwt beam="1">  1        2 0.19842895E+00 0.12045461E+04</pdfrwt>
<pdfrwt beam="2">  1       -1 0.43266836E-01 0.12045461E+04</pdfrwt>
<totfact> 0.99248605E+01</totfact>
</mgrwt>
</event>
<event>
12    6  0.1530720E-007  0.2022354E+04  0.7818608E-02  0.8596240E-01
         -1   -1    0    0    0  501 -0.00000000000E+00  0.00000000000E+00  0.34130000810E+03  0.34130000810E+03  0.00000000000E+00 0.  1.
          2   -1    0    0  501    0  0.00000000000E+00 -0.00000000000E+00 -0.29958368191E+04  0.29958368191E+04  0.00000000000E+00 0. -1.
         24    2    1    2    0    0 -0.22249338816E+03 -0.59688339598E+03 -0.19127072111E+04  0.20174526607E+04  0.76767615925E+02 0.  0.
        254    2    1    2    0    0  0.22249338816E+03  0.59688339598E+03 -0.74182959993E+03  0.13196841665E+04  0.88627425085E+03 0.  0.
         23    2    4    4    0    0 -0.12353664769E+03 -0.16539611251E+03 -0.27821189444E+03  0.35858179029E+03  0.92530345079E+02 0.  0.
         23    2    4    4    0    0  0.34603003585E+03  0.76227950849E+03 -0.46361770549E+03  0.96110237617E+03  0.89272425064E+02 0.  0.
          4    1    3    3  502    0 -0.17527472317E+03 -0.39294713864E+03 -0.13596325147E+04  0.14260887971E+04  0.00000000000E+00 0. -1.
         -3    1    3    3    0  502 -0.47218664990E+02 -0.20393625734E+03 -0.55307469640E+03  0.59136386361E+03  0.00000000000E+00 0.  1.
         11    1    5    5    0    0 -0.12951688151E+03 -0.17228987819E+03 -0.25655421048E+03  0.33507982279E+03  0.00000000000E+00 0. -1.
        -11    1    5    5    0    0  0.59802338222E+01  0.68937656803E+01 -0.21657683959E+02  0.23501967498E+02  0.00000000000E+00 0.  1.
          1    1    6    6  503    0  0.21339029551E+03  0.36336083757E+03 -0.22430751225E+03  0.47736817714E+03  0.00000000000E+00 0.  1.
         -1    1    6    6    0  503  0.13263974033E+03  0.39891867092E+03 -0.23931019323E+03  0.48373419903E+03  0.00000000000E+00 0. -1.
<mgrwt>
<rscale>  0 0.20223542E+04</rscale>
<asrwt>0</asrwt>
<pdfrwt beam="1">  1        2 0.46089797E+00 0.20223542E+04</pdfrwt>
<pdfrwt beam="2">  1       -1 0.52507694E-01 0.20223542E+04</pdfrwt>
<totfact> 0.67722500E+00</totfact>
</mgrwt>
</event>
<event>
12    6  0.1530720E-007  0.1556112E+04  0.7818608E-02  0.8847973E-01
         -1   -1    0    0    0  501 -0.00000000000E+00  0.00000000000E+00  0.49508154960E+03  0.49508154960E+03  0.00000000000E+00 0.  1.
          2   -1    0    0  501    0  0.00000000000E+00 -0.00000000000E+00 -0.12227697874E+04  0.12227697874E+04  0.00000000000E+00 0. -1.
         24    2    1    2    0    0 -0.38072048685E+03  0.34474152191E+03 -0.30071350354E+03  0.60046393863E+03  0.79583442693E+02 0.  0.
        254    2    1    2    0    0  0.38072048685E+03 -0.34474152191E+03 -0.42697473426E+03  0.11173873984E+04  0.89579705754E+03 0.  0.
         23    2    4    4    0    0 -0.59025060816E+02 -0.53076566440E+03 -0.17205114273E+03  0.56836138064E+03  0.90757451356E+02 0.  0.
         23    2    4    4    0    0  0.43974554767E+03  0.18602414249E+03 -0.25492359153E+03  0.54902601773E+03  0.91991316666E+02 0.  0.
          4    1    3    3  502    0 -0.26911337209E+03  0.25569326779E+03 -0.17572741416E+03  0.41070814250E+03  0.00000000000E+00 0. -1.
         -1    1    3    3    0  502 -0.11160711477E+03  0.89048254120E+02 -0.12498608937E+03  0.18975579613E+03  0.00000000000E+00 0.  1.
         11    1    5    5    0    0  0.19494543151E+02 -0.39511418076E+02 -0.17645114620E+02  0.47460925412E+02  0.00000000000E+00 0.  1.
        -11    1    5    5    0    0 -0.78519603967E+02 -0.49125424633E+03 -0.15440602811E+03  0.52090045523E+03  0.00000000000E+00 0. -1.
          1    1    6    6  503    0  0.26182980070E+03  0.84358498316E+02 -0.18905269938E+03  0.33378454715E+03  0.00000000000E+00 0. -1.
         -1    1    6    6    0  503  0.17791574697E+03  0.10166564418E+03 -0.65870892151E+02  0.21524147058E+03  0.00000000000E+00 0.  1.
<mgrwt>
<rscale>  0 0.15561115E+04</rscale>
<asrwt>0</asrwt>
<pdfrwt beam="1">  1        2 0.18811843E+00 0.15561115E+04</pdfrwt>
<pdfrwt beam="2">  1       -1 0.76166393E-01 0.15561115E+04</pdfrwt>
<totfact> 0.34861003E+01</totfact>
</mgrwt>
</event>
<event>
12    6  0.1530720E-007  0.1653152E+04  0.7818608E-02  0.8788544E-01
          2   -1    0    0  501    0  0.00000000000E+00  0.00000000000E+00  0.19580638452E+04  0.19580638452E+04  0.00000000000E+00 0. -1.
         -1   -1    0    0    0  501 -0.00000000000E+00 -0.00000000000E+00 -0.34893052210E+03  0.34893052210E+03  0.00000000000E+00 0.  1.
         24    2    1    2    0    0 -0.45631808334E+03  0.35542298888E+03  0.57517236422E+03  0.81955203448E+03  0.79313267820E+02 0.  0.
        254    2    1    2    0    0  0.45631808334E+03 -0.35542298888E+03  0.10339609589E+04  0.14874423328E+04  0.89936518432E+03 0.  0.
         23    2    4    4    0    0  0.71870432897E+03 -0.21280237145E+03  0.68232348312E+03  0.10179104479E+04  0.93571270263E+02 0.  0.
         23    2    4    4    0    0 -0.26238624563E+03 -0.14262061743E+03  0.35163747577E+03  0.46953188489E+03  0.87316058930E+02 0.  0.
          4    1    3    3  502    0 -0.17490394860E+03  0.14046558132E+03  0.27831143494E+03  0.35746220163E+03  0.00000000000E+00 0. -1.
         -3    1    3    3    0  502 -0.28141413474E+03  0.21495740756E+03  0.29686092928E+03  0.46208983286E+03  0.00000000000E+00 0.  1.
         11    1    5    5    0    0  0.56523874545E+03 -0.14562436228E+03  0.48366533755E+03  0.75804581194E+03  0.00000000000E+00 0. -1.
        -11    1    5    5    0    0  0.15346558353E+03 -0.67178009161E+02  0.19865814557E+03  0.25986463600E+03  0.00000000000E+00 0.  1.
          1    1    6    6  503    0 -0.18370241566E+03 -0.12385797416E+03  0.20391504253E+03  0.30111247044E+03  0.00000000000E+00 0. -1.
         -1    1    6    6    0  503 -0.78683829973E+02 -0.18762643269E+02  0.14772243324E+03  0.16841941445E+03  0.00000000000E+00 0.  1.
<mgrwt>
<rscale>  0 0.16531524E+04</rscale>
<asrwt>0</asrwt>
<pdfrwt beam="1">  1        2 0.30124058E+00 0.16531524E+04</pdfrwt>
<pdfrwt beam="2">  1       -1 0.53681620E-01 0.16531524E+04</pdfrwt>
<totfact> 0.26858742E+01</totfact>
</mgrwt>
</event>
<event>
12    6  0.1530720E-007  0.1969433E+04  0.7818608E-02  0.8621046E-01
         -1   -1    0    0    0  501 -0.00000000000E+00  0.00000000000E+00  0.74550203854E+03  0.74550203854E+03  0.00000000000E+00 0.  1.
          2   -1    0    0  501    0  0.00000000000E+00 -0.00000000000E+00 -0.13006899416E+04  0.13006899416E+04  0.00000000000E+00 0. -1.
         24    2    1    2    0    0  0.86505781508E+01  0.47044169270E+03 -0.85499298958E+03  0.97940277440E+03  0.82623020670E+02 0.  0.
        254    2    1    2    0    0 -0.86505781508E+01 -0.47044169270E+03  0.29980508652E+03  0.10667892057E+04  0.90926668302E+03 0.  0.
         23    2    4    4    0    0  0.24236206240E+03 -0.83212112811E+02  0.48948281928E+03  0.55997371148E+03  0.91178408439E+02 0.  0.
         23    2    4    4    0    0 -0.25101264055E+03 -0.38722957989E+03 -0.18967773277E+03  0.50681549426E+03  0.89051724615E+02 0.  0.
          4    1    3    3  502    0  0.29767673667E+02  0.39020419436E+03 -0.74609941757E+03  0.84250208819E+03  0.00000000000E+00 0. -1.
         -3    1    3    3    0  502 -0.21117095516E+02  0.80237498335E+02 -0.10889357200E+03  0.13690068621E+03  0.00000000000E+00 0.  1.
         11    1    5    5    0    0  0.35423695285E+02 -0.20956718038E+02  0.26256712379E+02  0.48820458453E+02  0.00000000000E+00 0.  1.
        -11    1    5    5    0    0  0.20693836712E+03 -0.62255394773E+02  0.46322610690E+03  0.51115325302E+03  0.00000000000E+00 0. -1.
          3    1    6    6  503    0 -0.25603307191E+03 -0.35712559687E+03 -0.17568183372E+03  0.47323961431E+03  0.00000000000E+00 0. -1.
         -3    1    6    6    0  503  0.50204313545E+01 -0.30103983016E+02 -0.13995899044E+02  0.33575879951E+02  0.00000000000E+00 0.  1.
<mgrwt>
<rscale>  0 0.19694334E+04</rscale>
<asrwt>0</asrwt>
<pdfrwt beam="1">  1        2 0.20010615E+00 0.19694334E+04</pdfrwt>
<pdfrwt beam="2">  1       -1 0.11469262E+00 0.19694334E+04</pdfrwt>
<totfact> 0.12114153E+01</totfact>
</mgrwt>
</event>
<event>
12    6  0.1530720E-007  0.2227907E+04  0.7818608E-02  0.8506902E-01
          2   -1    0    0  501    0  0.00000000000E+00  0.00000000000E+00  0.22645288466E+04  0.22645288466E+04  0.00000000000E+00 0. -1.
         -1   -1    0    0    0  501 -0.00000000000E+00 -0.00000000000E+00 -0.54796938100E+03  0.54796938100E+03  0.00000000000E+00 0.  1.
         24    2    1    2    0    0 -0.54706401013E+03  0.61220892835E+03  0.12700100167E+04  0.15143509270E+04  0.79085299014E+02 0.  0.
        254    2    1    2    0    0  0.54706401013E+03 -0.61220892835E+03  0.44654944894E+03  0.12981473006E+04  0.90094461572E+03 0.  0.
         23    2    4    4    0    0 -0.29960172357E+01 -0.10488555338E+03 -0.24153132436E+03  0.27799460574E+03  0.89071121836E+02 0.  0.
         23    2    4    4    0    0  0.55006002736E+03 -0.50732337497E+03  0.68808077330E+03  0.10201526949E+04  0.85518008487E+02 0.  0.
          2    1    3    3  502    0 -0.53972384288E+03  0.60904064949E+03  0.12391535674E+04  0.14824755994E+04  0.00000000000E+00 0. -1.
         -1    1    3    3    0  502 -0.73401672452E+01  0.31682788608E+01  0.30856449232E+02  0.31875327533E+02  0.00000000000E+00 0.  1.
         11    1    5    5    0    0 -0.96601927939E+01 -0.29750473814E+02 -0.75813963929E+01  0.32185207600E+02  0.00000000000E+00 0.  1.
        -11    1    5    5    0    0  0.66641755582E+01 -0.75135079566E+02 -0.23394992797E+03  0.24580939814E+03  0.00000000000E+00 0. -1.
          1    1    6    6  503    0  0.36264368049E+03 -0.34825018238E+03  0.51338706612E+03  0.71857839391E+03  0.00000000000E+00 0. -1.
         -1    1    6    6    0  503  0.18741634687E+03 -0.15907319259E+03  0.17469370718E+03  0.30157430096E+03  0.00000000000E+00 0.  1.
<mgrwt>
<rscale>  0 0.22279071E+04</rscale>
<asrwt>0</asrwt>
<pdfrwt beam="1">  1        2 0.34838905E+00 0.22279071E+04</pdfrwt>
<pdfrwt beam="2">  1       -1 0.84302983E-01 0.22279071E+04</pdfrwt>
<totfact> 0.68676799E+00</totfact>
</mgrwt>
</event>
<event>
12    6  0.1530720E-007  0.2601130E+04  0.7818608E-02  0.8367817E-01
          2   -1    0    0  501    0  0.00000000000E+00  0.00000000000E+00  0.26878019942E+04  0.26878019942E+04  0.00000000000E+00 0. -1.
         -3   -1    0    0    0  501 -0.00000000000E+00 -0.00000000000E+00 -0.62931342320E+03  0.62931342320E+03  0.00000000000E+00 0.  1.
         24    2    1    2    0    0  0.10841763777E+03 -0.86785648245E+03  0.18451047226E+04  0.20435064961E+04  0.81105511793E+02 0.  0.
        254    2    1    2    0    0 -0.10841763777E+03  0.86785648245E+03  0.21338384848E+03  0.12736089214E+04  0.90089830694E+03 0.  0.
         23    2    4    4    0    0  0.32519606195E+03  0.16033606993E+03 -0.90890478591E+02  0.38497614352E+03  0.92116328376E+02 0.  0.
         23    2    4    4    0    0 -0.43361369972E+03  0.70752041252E+03  0.30427432707E+03  0.88863277783E+03  0.92083511013E+02 0.  0.
          2    1    3    3  502    0  0.98473316684E+02 -0.46293557496E+03  0.10009067372E+04  0.11071678451E+04  0.00000000000E+00 0. -1.
         -1    1    3    3    0  502  0.99443210864E+01 -0.40492090749E+03  0.84419798535E+03  0.93633865097E+03  0.00000000000E+00 0.  1.
         11    1    5    5    0    0  0.74164028075E+02  0.59170342497E+02 -0.60735968460E+02  0.11265118888E+03  0.00000000000E+00 0. -1.
        -11    1    5    5    0    0  0.25103203388E+03  0.10116572743E+03 -0.30154510132E+02  0.27232495464E+03  0.00000000000E+00 0.  1.
          3    1    6    6  503    0 -0.28830663254E+03  0.46018849655E+03  0.24482897553E+03  0.59568061407E+03  0.00000000000E+00 0. -1.
         -3    1    6    6    0  503 -0.14530706719E+03  0.24733191596E+03  0.59445351542E+02  0.29295216376E+03  0.00000000000E+00 0.  1.
<mgrwt>
<rscale>  0 0.26011304E+04</rscale>
<asrwt>0</asrwt>
<pdfrwt beam="1">  1        2 0.41350799E+00 0.26011304E+04</pdfrwt>
<pdfrwt beam="2">  1       -3 0.96817451E-01 0.26011304E+04</pdfrwt>
<totfact> 0.14393471E+00</totfact>
</mgrwt>
</event>
<event>
12    6  0.1530720E-007  0.3444056E+04  0.7818608E-02  0.8127177E-01
         -1   -1    0    0    0  501 -0.00000000000E+00  0.00000000000E+00  0.15531110387E+04  0.15531110387E+04  0.00000000000E+00 0.  1.
          2   -1    0    0  501    0  0.00000000000E+00 -0.00000000000E+00 -0.19093166714E+04  0.19093166714E+04  0.00000000000E+00 0. -1.
         24    2    1    2    0    0 -0.14201275606E+04  0.37782220818E+03  0.48272290867E+03  0.15488577264E+04  0.80168202528E+02 0.  0.
        254    2    1    2    0    0  0.14201275606E+04 -0.37782220818E+03 -0.83892854142E+03  0.19135699837E+04  0.89355306268E+03 0.  0.
         23    2    4    4    0    0  0.54582654205E+03 -0.41737468744E+03 -0.76244096115E+03  0.10303527360E+04  0.90456053415E+02 0.  0.
         23    2    4    4    0    0  0.87430101852E+03  0.39552479269E+02 -0.76487580268E+02  0.88321724776E+03  0.90860812283E+02 0.  0.
          2    1    3    3  502    0 -0.51955707710E+03  0.17106665080E+03  0.20295256616E+03  0.58343217214E+03  0.00000000000E+00 0. -1.
         -1    1    3    3    0  502 -0.90057048347E+03  0.20675555737E+03  0.27977034250E+03  0.96542555422E+03  0.00000000000E+00 0.  1.
         11    1    5    5    0    0  0.54381362994E+02 -0.73932800745E+02 -0.12718609359E+03  0.15684289614E+03  0.00000000000E+00 0.  1.
        -11    1    5    5    0    0  0.49144517905E+03 -0.34344188670E+03 -0.63525486756E+03  0.87350983985E+03  0.00000000000E+00 0. -1.
          3    1    6    6  503    0  0.79594310680E+03  0.60905574760E+02 -0.61546169084E+02  0.80063902555E+03  0.00000000000E+00 0. -1.
         -3    1    6    6    0  503  0.78357911715E+02 -0.21353095491E+02 -0.14941411184E+02  0.82578222211E+02  0.00000000000E+00 0.  1.
<mgrwt>
<rscale>  0 0.34440562E+04</rscale>
<asrwt>0</asrwt>
<pdfrwt beam="1">  1        2 0.29374102E+00 0.34440562E+04</pdfrwt>
<pdfrwt beam="2">  1       -1 0.23894016E+00 0.34440562E+04</pdfrwt>
<totfact> 0.58055400E-01</totfact>
</mgrwt>
</event>
<event>
12    6  0.1530720E-007  0.1796910E+04  0.7818608E-02  0.8707945E-01
          2   -1    0    0  501    0  0.00000000000E+00  0.00000000000E+00  0.14775226734E+04  0.14775226734E+04  0.00000000000E+00 0. -1.
         -1   -1    0    0    0  501 -0.00000000000E+00 -0.00000000000E+00 -0.54633408844E+03  0.54633408844E+03  0.00000000000E+00 0.  1.
         24    2    1    2    0    0  0.29655831627E+03 -0.55380801026E+03  0.77160212987E+02  0.63789699223E+03  0.79427495607E+02 0.  0.
        254    2    1    2    0    0 -0.29655831627E+03  0.55380801026E+03  0.85402837201E+03  0.13859597696E+04  0.89267568338E+03 0.  0.
         23    2    4    4    0    0 -0.69006554510E+02 -0.21492470422E+03  0.37583186806E+03  0.44792976790E+03  0.91852876225E+02 0.  0.
         23    2    4    4    0    0 -0.22755176176E+03  0.76873271448E+03  0.47819650395E+03  0.93803000174E+03  0.92187836460E+02 0.  0.
          2    1    3    3  502    0  0.22644695005E+03 -0.43120597780E+03  0.92763671334E+02  0.49580431139E+03  0.00000000000E+00 0. -1.
         -3    1    3    3    0  502  0.70111366217E+02 -0.12260203246E+03 -0.15603458347E+02  0.14209268084E+03  0.00000000000E+00 0.  1.
         11    1    5    5    0    0  0.14894470320E+01 -0.14293795201E+03  0.21956891323E+03  0.26199996991E+03  0.00000000000E+00 0.  1.
        -11    1    5    5    0    0 -0.70496001542E+02 -0.71986752215E+02  0.15626295483E+03  0.18592979799E+03  0.00000000000E+00 0. -1.
          4    1    6    6  503    0 -0.52174177587E+02  0.27354483392E+03  0.20587755342E+03  0.34631559014E+03  0.00000000000E+00 0. -1.
         -4    1    6    6    0  503 -0.17537758417E+03  0.49518788056E+03  0.27231895053E+03  0.59171441160E+03  0.00000000000E+00 0.  1.
<mgrwt>
<rscale>  0 0.17969096E+04</rscale>
<asrwt>0</asrwt>
<pdfrwt beam="1">  1        2 0.22731118E+00 0.17969096E+04</pdfrwt>
<pdfrwt beam="2">  1       -1 0.84051399E-01 0.17969096E+04</pdfrwt>
<totfact> 0.19731020E+01</totfact>
</mgrwt>
</event>
<event>
12    6  0.1530720E-007  0.1424676E+04  0.7818608E-02  0.8936148E-01
          2   -1    0    0  501    0  0.00000000000E+00  0.00000000000E+00  0.12439789914E+04  0.12439789914E+04  0.00000000000E+00 0. -1.
         -1   -1    0    0    0  501 -0.00000000000E+00 -0.00000000000E+00 -0.40790530569E+03  0.40790530569E+03  0.00000000000E+00 0.  1.
         24    2    1    2    0    0 -0.35991130707E+03  0.21312466841E+03  0.27128738446E+03  0.50489581864E+03  0.79778878577E+02 0.  0.
        254    2    1    2    0    0  0.35991130707E+03 -0.21312466841E+03  0.56478630126E+03  0.11469884785E+04  0.90644400290E+03 0.  0.
         23    2    4    4    0    0  0.16944645231E+03 -0.15892315338E+03 -0.22004642248E+03  0.33211768513E+03  0.88955381229E+02 0.  0.
         23    2    4    4    0    0  0.19046485476E+03 -0.54201515031E+02  0.78483272374E+03  0.81487079333E+03  0.94007129754E+02 0.  0.
          4    1    3    3  502    0 -0.29633273358E+03  0.16107621035E+03  0.25053222957E+03  0.42014882195E+03  0.00000000000E+00 0. -1.
         -3    1    3    3    0  502 -0.63578573494E+02  0.52048458054E+02  0.20755154895E+02  0.84746996690E+02  0.00000000000E+00 0.  1.
         11    1    5    5    0    0  0.93189903188E+02 -0.59886065268E+02 -0.51181995711E+02  0.12202579872E+03  0.00000000000E+00 0. -1.
        -11    1    5    5    0    0  0.76256549123E+02 -0.99037088109E+02 -0.16886442677E+03  0.21009188640E+03  0.00000000000E+00 0.  1.
          2    1    6    6  503    0  0.20642694942E+02 -0.26639076760E+02  0.26901921212E+03  0.27112192415E+03  0.00000000000E+00 0. -1.
         -2    1    6    6    0  503  0.16982215982E+03 -0.27562438271E+02  0.51581351162E+03  0.54374886918E+03  0.00000000000E+00 0.  1.
<mgrwt>
<rscale>  0 0.14246763E+04</rscale>
<asrwt>0</asrwt>
<pdfrwt beam="1">  1        2 0.19138138E+00 0.14246763E+04</pdfrwt>
<pdfrwt beam="2">  1       -1 0.62754663E-01 0.14246763E+04</pdfrwt>
<totfact> 0.50875539E+01</totfact>
</mgrwt>
</event>
<event>
12    6  0.1530720E-007  0.3005779E+04  0.7818608E-02  0.8242083E-01
         -1   -1    0    0    0  501 -0.00000000000E+00  0.00000000000E+00  0.10696870167E+04  0.10696870167E+04  0.00000000000E+00 0.  1.
          2   -1    0    0  501    0  0.00000000000E+00 -0.00000000000E+00 -0.21115299240E+04  0.21115299240E+04  0.00000000000E+00 0. -1.
         24    2    1    2    0    0 -0.18069516018E+03 -0.17557612557E+03 -0.19468371640E+04  0.19646998168E+04  0.79954426320E+02 0.  0.
        254    2    1    2    0    0  0.18069516018E+03  0.17557612557E+03  0.90499425674E+03  0.12165171239E+04  0.77293052154E+03 0.  0.
         23    2    4    4    0    0  0.88153682518E+02  0.37251590804E+03  0.89754726587E+03  0.97998906881E+03  0.90820190623E+02 0.  0.
         23    2    4    4    0    0  0.92541477663E+02 -0.19693978247E+03  0.74469908691E+01  0.23652805505E+03  0.92416774166E+02 0.  0.
          4    1    3    3  502    0 -0.13719771485E+03 -0.11409451433E+03 -0.15913069636E+04  0.16012803076E+04  0.00000000000E+00 0. -1.
         -3    1    3    3    0  502 -0.43497445329E+02 -0.61481611245E+02 -0.35553020042E+03  0.36341950923E+03  0.00000000000E+00 0.  1.
         11    1    5    5    0    0 -0.11978655118E+02  0.11813124093E+03  0.23621407515E+03  0.26437769869E+03  0.00000000000E+00 0.  1.
        -11    1    5    5    0    0  0.10013233764E+03  0.25438466711E+03  0.66133319072E+03  0.71561137012E+03  0.00000000000E+00 0. -1.
          1    1    6    6  503    0 -0.10929257288E+02 -0.65362746091E+02 -0.14116244349E+02  0.67756959760E+02  0.00000000000E+00 0. -1.
         -1    1    6    6    0  503  0.10347073495E+03 -0.13157703638E+03  0.21563235218E+02  0.16877109529E+03  0.00000000000E+00 0.  1.
<mgrwt>
<rscale>  0 0.30057785E+04</rscale>
<asrwt>0</asrwt>
<pdfrwt beam="1">  1        2 0.32485076E+00 0.30057785E+04</pdfrwt>
<pdfrwt beam="2">  1       -1 0.16456723E+00 0.30057785E+04</pdfrwt>
<totfact> 0.15209004E+00</totfact>
</mgrwt>
</event>
<event>
12    6  0.1530720E-007  0.1857692E+04  0.7818608E-02  0.8676207E-01
          2   -1    0    0  501    0  0.00000000000E+00  0.00000000000E+00  0.16204818685E+04  0.16204818685E+04  0.00000000000E+00 0. -1.
         -1   -1    0    0    0  501 -0.00000000000E+00 -0.00000000000E+00 -0.53240626222E+03  0.53240626222E+03  0.00000000000E+00 0.  1.
         24    2    1    2    0    0 -0.59507776121E+03  0.10634565007E+03 -0.15183249349E+02  0.60994011788E+03  0.79809004289E+02 0.  0.
        254    2    1    2    0    0  0.59507776121E+03 -0.10634565007E+03  0.11032588556E+04  0.15429480128E+04  0.89335408916E+03 0.  0.
         23    2    4    4    0    0  0.28717556617E+03  0.38699967160E+03  0.50236641554E+03  0.70191896527E+03  0.89886966404E+02 0.  0.
         23    2    4    4    0    0  0.30790219503E+03 -0.49334532166E+03  0.60089244008E+03  0.84102904755E+03  0.89804043147E+02 0.  0.
          4    1    3    3  502    0 -0.22707702343E+03  0.18265334930E+02  0.26096344587E+02  0.22930027525E+03  0.00000000000E+00 0. -1.
         -3    1    3    3    0  502 -0.36800073777E+03  0.88080315136E+02 -0.41279593936E+02  0.38063984262E+03  0.00000000000E+00 0.  1.
         11    1    5    5    0    0  0.22081943650E+03  0.23613919004E+03  0.30123574790E+03  0.44188903180E+03  0.00000000000E+00 0. -1.
        -11    1    5    5    0    0  0.66356129673E+02  0.15086048156E+03  0.20113066764E+03  0.26002993348E+03  0.00000000000E+00 0.  1.
          3    1    6    6  503    0  0.13699872469E+03 -0.28358146630E+03  0.36475029504E+03  0.48190235144E+03  0.00000000000E+00 0. -1.
         -3    1    6    6    0  503  0.17090347035E+03 -0.20976385537E+03  0.23614214504E+03  0.35912669611E+03  0.00000000000E+00 0.  1.
<mgrwt>
<rscale>  0 0.18576918E+04</rscale>
<asrwt>0</asrwt>
<pdfrwt beam="1">  1        2 0.24930490E+00 0.18576918E+04</pdfrwt>
<pdfrwt beam="2">  1       -1 0.81908656E-01 0.18576918E+04</pdfrwt>
<totfact> 0.17244732E+01</totfact>
</mgrwt>
</event>
<event>
12    6  0.1530720E-007  0.1733827E+04  0.7818608E-02  0.8742304E-01
         -1   -1    0    0    0  501 -0.00000000000E+00  0.00000000000E+00  0.13813665076E+04  0.13813665076E+04  0.00000000000E+00 0.  1.
          2   -1    0    0  501    0  0.00000000000E+00 -0.00000000000E+00 -0.54405452820E+03  0.54405452820E+03  0.00000000000E+00 0. -1.
         24    2    1    2    0    0  0.47153410843E+03  0.36992197847E+03  0.53211969084E+03  0.80561708895E+03  0.81736424368E+02 0.  0.
        254    2    1    2    0    0 -0.47153410843E+03 -0.36992197847E+03  0.30519228858E+03  0.11198039469E+04  0.89533896423E+03 0.  0.
         23    2    4    4    0    0 -0.21017016572E+03  0.25796020103E+03  0.26000431954E+03  0.43201859966E+03  0.91229712238E+02 0.  0.
         23    2    4    4    0    0 -0.26136394271E+03 -0.62788217951E+03  0.45187969035E+02  0.68778534721E+03  0.91976026262E+02 0.  0.
          2    1    3    3  502    0  0.19461559609E+03  0.15745799456E+03  0.16957308493E+03  0.30236283076E+03  0.00000000000E+00 0. -1.
         -1    1    3    3    0  502  0.27691851234E+03  0.21246398391E+03  0.36254660591E+03  0.50325425820E+03  0.00000000000E+00 0.  1.
         11    1    5    5    0    0 -0.21397565673E+03  0.22789454368E+03  0.22201250321E+03  0.38342020851E+03  0.00000000000E+00 0.  1.
        -11    1    5    5    0    0  0.38054910133E+01  0.30065657355E+02  0.37991816332E+02  0.48598391149E+02  0.00000000000E+00 0. -1.
          1    1    6    6  503    0 -0.27668163522E+02 -0.30120758466E+02 -0.14030999809E+02  0.43239522649E+02  0.00000000000E+00 0. -1.
         -1    1    6    6    0  503 -0.23369577918E+03 -0.59776142104E+03  0.59218968844E+02  0.64454582456E+03  0.00000000000E+00 0.  1.
<mgrwt>
<rscale>  0 0.17338266E+04</rscale>
<asrwt>0</asrwt>
<pdfrwt beam="1">  1        2 0.83700697E-01 0.17338266E+04</pdfrwt>
<pdfrwt beam="2">  1       -1 0.21251792E+00 0.17338266E+04</pdfrwt>
<totfact> 0.74731775E+00</totfact>
</mgrwt>
</event>
<event>
12    6  0.1530720E-007  0.1740662E+04  0.7818608E-02  0.8738507E-01
          2   -1    0    0  501    0  0.00000000000E+00  0.00000000000E+00  0.18354876250E+04  0.18354876250E+04  0.00000000000E+00 0. -1.
         -1   -1    0    0    0  501 -0.00000000000E+00 -0.00000000000E+00 -0.41268398811E+03  0.41268398811E+03  0.00000000000E+00 0.  1.
         24    2    1    2    0    0  0.53217200523E+02 -0.26995483216E+03  0.12109544539E+04  0.12443562554E+04  0.79398483415E+02 0.  0.
        254    2    1    2    0    0 -0.53217200523E+02  0.26995483216E+03  0.21184918302E+03  0.10038153577E+04  0.94183730770E+03 0.  0.
         23    2    4    4    0    0  0.32195514453E+03  0.41218702231E+03  0.25271223902E+03  0.58951259481E+03  0.10054037618E+03 0.  0.
         23    2    4    4    0    0 -0.37517234505E+03 -0.14223219015E+03 -0.40863055996E+02  0.41430276289E+03  0.94829877084E+02 0.  0.
          2    1    3    3  502    0  0.24371059246E+02 -0.14682107654E+03  0.48006409227E+03  0.50260512307E+03  0.00000000000E+00 0. -1.
         -1    1    3    3    0  502  0.28846141277E+02 -0.12313375562E+03  0.73089036163E+03  0.74175113236E+03  0.00000000000E+00 0.  1.
         11    1    5    5    0    0  0.16404903290E+02 -0.32087799243E+01  0.10952670756E+02  0.19984446884E+02  0.00000000000E+00 0. -1.
        -11    1    5    5    0    0  0.30555024124E+03  0.41539580223E+03  0.24175956826E+03  0.56952814793E+03  0.00000000000E+00 0.  1.
          3    1    6    6  503    0 -0.11177003149E+03 -0.80254730982E+00 -0.27125075751E+02  0.11501718896E+03  0.00000000000E+00 0. -1.
         -3    1    6    6    0  503 -0.26340231357E+03 -0.14142964284E+03 -0.13737980245E+02  0.29928557393E+03  0.00000000000E+00 0.  1.
<mgrwt>
<rscale>  0 0.17406623E+04</rscale>
<asrwt>0</asrwt>
<pdfrwt beam="1">  1        2 0.28238271E+00 0.17406623E+04</pdfrwt>
<pdfrwt beam="2">  1       -1 0.63489845E-01 0.17406623E+04</pdfrwt>
<totfact> 0.22414340E+01</totfact>
</mgrwt>
</event>
<event>
12    6  0.1530720E-007  0.1655118E+04  0.7818608E-02  0.8787384E-01
         -1   -1    0    0    0  501 -0.00000000000E+00  0.00000000000E+00  0.32390508216E+03  0.32390508216E+03  0.00000000000E+00 0.  1.
          2   -1    0    0  501    0  0.00000000000E+00 -0.00000000000E+00 -0.21143659753E+04  0.21143659753E+04  0.00000000000E+00 0. -1.
         24    2    1    2    0    0 -0.16289160277E+03  0.53567806132E+03 -0.43458526239E+03  0.71336462096E+03  0.80870714856E+02 0.  0.
        254    2    1    2    0    0  0.16289160277E+03 -0.53567806132E+03 -0.13558756308E+04  0.17249064366E+04  0.90742428281E+03 0.  0.
         23    2    4    4    0    0  0.53218902842E+03 -0.31912269497E+03 -0.84280401361E+03  0.10505380220E+04  0.90813401732E+02 0.  0.
         23    2    4    4    0    0 -0.36929742565E+03 -0.21655536635E+03 -0.51307161719E+03  0.67436841453E+03  0.90848549113E+02 0.  0.
          2    1    3    3  502    0 -0.45802178521E+02  0.13280161646E+03 -0.67311339443E+02  0.15577202994E+03  0.00000000000E+00 0. -1.
         -1    1    3    3    0  502 -0.11708942425E+03  0.40287644486E+03 -0.36727392295E+03  0.55759259103E+03  0.00000000000E+00 0.  1.
         11    1    5    5    0    0  0.35372326944E+03 -0.23158755020E+03 -0.50530702516E+03  0.65885365175E+03  0.00000000000E+00 0.  1.
        -11    1    5    5    0    0  0.17846575898E+03 -0.87535144768E+02 -0.33749698845E+03  0.39168437027E+03  0.00000000000E+00 0. -1.
          3    1    6    6  503    0  0.37304524895E+01  0.36930054342E+00 -0.14562956619E+02  0.15037698100E+02  0.00000000000E+00 0. -1.
         -3    1    6    6    0  503 -0.37302787814E+03 -0.21692466689E+03 -0.49850866057E+03  0.65933071643E+03  0.00000000000E+00 0.  1.
<mgrwt>
<rscale>  0 0.16551180E+04</rscale>
<asrwt>0</asrwt>
<pdfrwt beam="1">  1        2 0.32528708E+00 0.16551180E+04</pdfrwt>
<pdfrwt beam="2">  1       -1 0.49831550E-01 0.16551180E+04</pdfrwt>
<totfact> 0.25351611E+01</totfact>
</mgrwt>
</event>
<event>
12    6  0.1530720E-007  0.1965191E+04  0.7818608E-02  0.8623070E-01
          2   -1    0    0  501    0  0.00000000000E+00  0.00000000000E+00  0.31796291425E+04  0.31796291425E+04  0.00000000000E+00 0. -1.
         -1   -1    0    0    0  501 -0.00000000000E+00 -0.00000000000E+00 -0.30364982557E+03  0.30364982557E+03  0.00000000000E+00 0.  1.
         24    2    1    2    0    0 -0.26340699688E+03  0.39256038543E+03  0.56428061381E+02  0.48417499499E+03  0.88059056611E+02 0.  0.
        254    2    1    2    0    0  0.26340699688E+03 -0.39256038543E+03  0.28195512556E+04  0.29991039731E+04  0.90623863105E+03 0.  0.
         23    2    4    4    0    0  0.41848570695E+03  0.70667170157E+02  0.19522975839E+04  0.19996693430E+04  0.84187229037E+02 0.  0.
         23    2    4    4    0    0 -0.15507871007E+03 -0.46322755559E+03  0.86725367169E+03  0.99943463007E+03  0.90063722711E+02 0.  0.
          4    1    3    3  502    0 -0.80347208310E+02  0.12665899493E+03  0.59429913138E+02  0.16133843143E+03  0.00000000000E+00 0. -1.
         -3    1    3    3    0  502 -0.18305978857E+03  0.26590139050E+03 -0.30018517568E+01  0.32283656356E+03  0.00000000000E+00 0.  1.
         11    1    5    5    0    0  0.40766212423E+03  0.57124884318E+02  0.19118326336E+04  0.19556471253E+04  0.00000000000E+00 0.  1.
        -11    1    5    5    0    0  0.10823582723E+02  0.13542285839E+02  0.40464950282E+02  0.44022217687E+02  0.00000000000E+00 0. -1.
          4    1    6    6  503    0 -0.57447909616E+02 -0.25330823435E+03  0.53188050551E+03  0.59191401069E+03  0.00000000000E+00 0. -1.
         -4    1    6    6    0  503 -0.97630800458E+02 -0.20991932123E+03  0.33537316619E+03  0.40752061939E+03  0.00000000000E+00 0.  1.
<mgrwt>
<rscale>  0 0.19651909E+04</rscale>
<asrwt>0</asrwt>
<pdfrwt beam="1">  1        2 0.48917369E+00 0.19651909E+04</pdfrwt>
<pdfrwt beam="2">  1       -1 0.46715360E-01 0.19651909E+04</pdfrwt>
<totfact> 0.64970216E+00</totfact>
</mgrwt>
</event>
<event>
12    6  0.1530720E-007  0.2727626E+04  0.7818608E-02  0.8326096E-01
          2   -1    0    0  501    0  0.00000000000E+00  0.00000000000E+00  0.40621225044E+04  0.40621225044E+04  0.00000000000E+00 0. -1.
         -1   -1    0    0    0  501 -0.00000000000E+00 -0.00000000000E+00 -0.45788539250E+03  0.45788539250E+03  0.00000000000E+00 0.  1.
         24    2    1    2    0    0  0.53365954440E+03  0.72496715141E+03  0.29497576781E+04  0.30850626951E+04  0.78559489314E+02 0.  0.
        254    2    1    2    0    0 -0.53365954440E+03 -0.72496715141E+03  0.65447943384E+03  0.14349452018E+04  0.90573424520E+03 0.  0.
         23    2    4    4    0    0  0.73886091042E+02  0.14933333627E+03  0.17619242655E+02  0.19089002233E+03  0.91482037271E+02 0.  0.
         23    2    4    4    0    0 -0.60754563544E+03 -0.87430048769E+03  0.63686019119E+03  0.12440551795E+04  0.92570754304E+02 0.  0.
          2    1    3    3  502    0  0.27591422955E+03  0.37010556530E+03  0.13786335888E+04  0.14538697891E+04  0.00000000000E+00 0. -1.
         -1    1    3    3    0  502  0.25774531485E+03  0.35486158612E+03  0.15711240893E+04  0.16311929060E+04  0.00000000000E+00 0.  1.
         11    1    5    5    0    0  0.46431526259E+02  0.13175378996E+03  0.46607065350E+02  0.14726563190E+03  0.00000000000E+00 0. -1.
        -11    1    5    5    0    0  0.27454564783E+02  0.17579546316E+02 -0.28987822694E+02  0.43624390433E+02  0.00000000000E+00 0.  1.
          4    1    6    6  503    0 -0.49249226123E+03 -0.69560867557E+03  0.46610799449E+03  0.97143024424E+03  0.00000000000E+00 0. -1.
         -4    1    6    6    0  503 -0.11505337421E+03 -0.17869181211E+03  0.17075219670E+03  0.27262493523E+03  0.00000000000E+00 0.  1.
<mgrwt>
<rscale>  0 0.27276265E+04</rscale>
<asrwt>0</asrwt>
<pdfrwt beam="1">  1        2 0.62494190E+00 0.27276265E+04</pdfrwt>
<pdfrwt beam="2">  1       -1 0.70443909E-01 0.27276265E+04</pdfrwt>
<totfact> 0.61753102E-01</totfact>
</mgrwt>
</event>
<event>
12    6  0.1530720E-007  0.2946137E+04  0.7818608E-02  0.8259281E-01
         -1   -1    0    0    0  501 -0.00000000000E+00  0.00000000000E+00  0.11184244863E+04  0.11184244863E+04  0.00000000000E+00 0.  1.
          2   -1    0    0  501    0  0.00000000000E+00 -0.00000000000E+00 -0.19401675858E+04  0.19401675858E+04  0.00000000000E+00 0. -1.
         24    2    1    2    0    0  0.82471338430E+03 -0.80710000107E+03 -0.10685468158E+04  0.15747115102E+04  0.79758790496E+02 0.  0.
        254    2    1    2    0    0 -0.82471338430E+03  0.80710000107E+03  0.24680371630E+03  0.14838805620E+04  0.89968153813E+03 0.  0.
         23    2    4    4    0    0  0.17535655342E+02 -0.15415862687E+03  0.22276302806E+02  0.18304362672E+03  0.94532291661E+02 0.  0.
         23    2    4    4    0    0 -0.84224903964E+03  0.96125862795E+03  0.22452741349E+03  0.13008369353E+04  0.91447133995E+02 0.  0.
          4    1    3    3  502    0  0.77873727456E+03 -0.78330082725E+03 -0.10119835961E+04  0.14980329528E+04  0.00000000000E+00 0. -1.
         -3    1    3    3    0  502  0.45976109738E+02 -0.23799173821E+02 -0.56563219678E+02  0.76678557377E+02  0.00000000000E+00 0.  1.
         11    1    5    5    0    0  0.45716479211E+02 -0.90931023316E+02  0.43436971654E+02  0.11065811303E+03  0.00000000000E+00 0. -1.
        -11    1    5    5    0    0 -0.28180823869E+02 -0.63227603558E+02 -0.21160668848E+02  0.72385513687E+02  0.00000000000E+00 0.  1.
          2    1    6    6  503    0 -0.51441127363E+03  0.57533359089E+03  0.90732792358E+02  0.77708438336E+03  0.00000000000E+00 0. -1.
         -2    1    6    6    0  503 -0.32783776601E+03  0.38592503705E+03  0.13379462113E+03  0.52375255196E+03  0.00000000000E+00 0.  1.
<mgrwt>
<rscale>  0 0.29461371E+04</rscale>
<asrwt>0</asrwt>
<pdfrwt beam="1">  1        2 0.29848732E+00 0.29461371E+04</pdfrwt>
<pdfrwt beam="2">  1       -1 0.17206531E+00 0.29461371E+04</pdfrwt>
<totfact> 0.16766767E+00</totfact>
</mgrwt>
</event>
<event>
12    6  0.1530720E-007  0.1247952E+04  0.7818608E-02  0.9071890E-01
          2   -1    0    0  501    0  0.00000000000E+00  0.00000000000E+00  0.82851547630E+03  0.82851547630E+03  0.00000000000E+00 0. -1.
         -1   -1    0    0    0  501 -0.00000000000E+00 -0.00000000000E+00 -0.46993176934E+03  0.46993176934E+03  0.00000000000E+00 0.  1.
         24    2    1    2    0    0 -0.93670887491E+02  0.17947641102E+03  0.29711352498E+03  0.36799697206E+03  0.78481255345E+02 0.  0.
        254    2    1    2    0    0  0.93670887491E+02 -0.17947641102E+03  0.61470181989E+02  0.93045027359E+03  0.90607566520E+03 0.  0.
         23    2    4    4    0    0  0.36284949696E+03  0.19068053355E+03  0.16728900401E+03  0.45220139369E+03  0.92095962318E+02 0.  0.
         23    2    4    4    0    0 -0.26917860947E+03 -0.37015694458E+03 -0.10581882202E+03  0.47824887989E+03  0.89727814048E+02 0.  0.
          2    1    3    3  502    0 -0.77925947374E+02  0.13732222623E+03  0.27671157374E+03  0.31858930009E+03  0.00000000000E+00 0. -1.
         -1    1    3    3    0  502 -0.15744940117E+02  0.42154184788E+02  0.20401951238E+02  0.49407671963E+02  0.00000000000E+00 0.  1.
         11    1    5    5    0    0  0.29303545645E+03  0.15951052641E+03  0.17245314636E+03  0.37557086476E+03  0.00000000000E+00 0. -1.
        -11    1    5    5    0    0  0.69814040509E+02  0.31170007143E+02 -0.51641423455E+01  0.76630528927E+02  0.00000000000E+00 0.  1.
          1    1    6    6  503    0 -0.27464182094E+03 -0.36467629835E+03 -0.97376785813E+02  0.46679671250E+03  0.00000000000E+00 0. -1.
         -1    1    6    6    0  503  0.54632114726E+01 -0.54806462299E+01 -0.84420362103E+01  0.11452167396E+02  0.00000000000E+00 0.  1.
<mgrwt>
<rscale>  0 0.12479515E+04</rscale>
<asrwt>0</asrwt>
<pdfrwt beam="1">  1        2 0.12746392E+00 0.12479515E+04</pdfrwt>
<pdfrwt beam="2">  1       -1 0.72297195E-01 0.12479515E+04</pdfrwt>
<totfact> 0.71243975E+01</totfact>
</mgrwt>
</event>
<event>
12    6  0.1530720E-007  0.1185188E+04  0.7818608E-02  0.9125921E-01
          2   -1    0    0  501    0  0.00000000000E+00  0.00000000000E+00  0.31006504299E+04  0.31006504299E+04  0.00000000000E+00 0. -1.
         -1   -1    0    0    0  501 -0.00000000000E+00 -0.00000000000E+00 -0.11325612467E+03  0.11325612467E+03  0.00000000000E+00 0.  1.
         24    2    1    2    0    0 -0.15356454843E+03  0.16190403045E+03  0.85574487915E+03  0.88772824658E+03  0.77247368680E+02 0.  0.
        254    2    1    2    0    0  0.15356454843E+03 -0.16190403045E+03  0.21316494261E+04  0.23261783080E+04  0.90409139986E+03 0.  0.
         23    2    4    4    0    0  0.47911114530E+03  0.10021214528E+03  0.10299825706E+04  0.11438891735E+04  0.89601238094E+02 0.  0.
         23    2    4    4    0    0 -0.32554659687E+03 -0.26211617573E+03  0.11016668555E+04  0.11822891345E+04  0.97222738193E+02 0.  0.
          2    1    3    3  502    0 -0.10009369893E+03  0.65550758837E+02  0.54627629782E+03  0.55922575416E+03  0.00000000000E+00 0. -1.
         -1    1    3    3    0  502 -0.53470849494E+02  0.96353271617E+02  0.30946858133E+03  0.32850249242E+03  0.00000000000E+00 0.  1.
         11    1    5    5    0    0  0.37039891228E+03  0.89790520687E+02  0.71068132825E+03  0.80642770423E+03  0.00000000000E+00 0.  1.
        -11    1    5    5    0    0  0.10871223301E+03  0.10421624591E+02  0.31930124235E+03  0.33746146926E+03  0.00000000000E+00 0. -1.
          4    1    6    6  503    0 -0.14230613825E+03 -0.13826919348E+03  0.39857406275E+03  0.44523105277E+03  0.00000000000E+00 0. -1.
         -4    1    6    6    0  503 -0.18324045862E+03 -0.12384698225E+03  0.70309279272E+03  0.73705808175E+03  0.00000000000E+00 0.  1.
<mgrwt>
<rscale>  0 0.11851880E+04</rscale>
<asrwt>0</asrwt>
<pdfrwt beam="1">  1        2 0.47702308E+00 0.11851880E+04</pdfrwt>
<pdfrwt beam="2">  1       -1 0.17424022E-01 0.11851880E+04</pdfrwt>
<totfact> 0.44271779E+01</totfact>
</mgrwt>
</event>
<event>
12    6  0.1530720E-007  0.1635037E+04  0.7818608E-02  0.8799308E-01
         -1   -1    0    0    0  501 -0.00000000000E+00  0.00000000000E+00  0.23727973855E+03  0.23727973855E+03  0.00000000000E+00 0.  1.
          2   -1    0    0  501    0  0.00000000000E+00 -0.00000000000E+00 -0.28166598248E+04  0.28166598248E+04  0.00000000000E+00 0. -1.
         24    2    1    2    0    0 -0.23821411137E+02  0.34237797249E+03 -0.17499968783E+04  0.17850986438E+04  0.79359676197E+02 0.  0.
        254    2    1    2    0    0  0.23821411137E+02 -0.34237797249E+03 -0.82938320794E+03  0.12688409196E+04  0.89682252310E+03 0.  0.
         23    2    4    4    0    0  0.21951100750E+03 -0.51784882689E+03 -0.80910504420E+03  0.98953281808E+03  0.90397652552E+02 0.  0.
         23    2    4    4    0    0 -0.19568959636E+03  0.17547085440E+03 -0.20278163743E+02  0.27930810151E+03  0.92289613588E+02 0.  0.
          2    1    3    3  502    0 -0.28581498462E+02  0.34521755710E+03 -0.17112973783E+04  0.17460042327E+04  0.00000000000E+00 0. -1.
         -1    1    3    3    0  502  0.47600873251E+01 -0.28395846106E+01 -0.38699500026E+02  0.39094411037E+02  0.00000000000E+00 0.  1.
         11    1    5    5    0    0  0.15373879208E+03 -0.30822570075E+03 -0.42516728038E+03  0.54717996592E+03  0.00000000000E+00 0. -1.
        -11    1    5    5    0    0  0.65772215423E+02 -0.20962312614E+03 -0.38393776382E+03  0.44235285216E+03  0.00000000000E+00 0.  1.
          3    1    6    6  503    0 -0.10181837896E+03  0.85940846969E+02 -0.56349999312E+02  0.14466559333E+03  0.00000000000E+00 0. -1.
         -3    1    6    6    0  503 -0.93871217403E+02  0.89530007428E+02  0.36071835569E+02  0.13464250818E+03  0.00000000000E+00 0.  1.
<mgrwt>
<rscale>  0 0.16350368E+04</rscale>
<asrwt>0</asrwt>
<pdfrwt beam="1">  1        2 0.43333227E+00 0.16350368E+04</pdfrwt>
<pdfrwt beam="2">  1       -1 0.36504576E-01 0.16350368E+04</pdfrwt>
<totfact> 0.17769100E+01</totfact>
</mgrwt>
</event>
<event>
12    6  0.1530720E-007  0.1003122E+04  0.7818608E-02  0.9305127E-01
         -1   -1    0    0    0  501 -0.00000000000E+00  0.00000000000E+00  0.15733151440E+04  0.15733151440E+04  0.00000000000E+00 0.  1.
          2   -1    0    0  501    0  0.00000000000E+00 -0.00000000000E+00 -0.15989393397E+03  0.15989393397E+03  0.00000000000E+00 0. -1.
         24    2    1    2    0    0  0.39254978078E+02  0.48578204841E+02  0.21564099579E+03  0.23862102811E+03  0.80858893784E+02 0.  0.
        254    2    1    2    0    0 -0.39254978078E+02 -0.48578204841E+02  0.11977802143E+04  0.14945880499E+04  0.89174839606E+03 0.  0.
         23    2    4    4    0    0 -0.68217422899E+02 -0.36168864128E+03  0.16882186415E+03  0.41472696999E+03  0.89584305577E+02 0.  0.
         23    2    4    4    0    0  0.28962444822E+02  0.31311043644E+03  0.10289583501E+04  0.10798610799E+04  0.92020089997E+02 0.  0.
          4    1    3    3  502    0  0.14050232492E+02 -0.10216400035E+02  0.44194809491E+01  0.17925280322E+02  0.00000000000E+00 0. -1.
         -3    1    3    3    0  502  0.25204745586E+02  0.58794604876E+02  0.21122151484E+03  0.22069574779E+03  0.00000000000E+00 0.  1.
         11    1    5    5    0    0 -0.27319119609E+02 -0.14126798372E+03  0.19106417703E+02  0.14514831283E+03  0.00000000000E+00 0. -1.
        -11    1    5    5    0    0 -0.40898303290E+02 -0.22042065756E+03  0.14971544645E+03  0.26957865716E+03  0.00000000000E+00 0.  1.
          3    1    6    6  503    0  0.28023173545E+02  0.25091519250E+02  0.85261747039E+02  0.93190386317E+02  0.00000000000E+00 0. -1.
         -3    1    6    6    0  503  0.93927127680E+00  0.28801891719E+03  0.94369660310E+03  0.98667069359E+03  0.00000000000E+00 0.  1.
<mgrwt>
<rscale>  0 0.10031222E+04</rscale>
<asrwt>0</asrwt>
<pdfrwt beam="1">  1        2 0.24599068E-01 0.10031222E+04</pdfrwt>
<pdfrwt beam="2">  1       -1 0.24204847E+00 0.10031222E+04</pdfrwt>
<totfact> 0.20254124E+01</totfact>
</mgrwt>
</event>
<event>
12    6  0.1530720E-007  0.2789280E+04  0.7818608E-02  0.8306604E-01
         -1   -1    0    0    0  501 -0.00000000000E+00  0.00000000000E+00  0.11913114470E+04  0.11913114470E+04  0.00000000000E+00 0.  1.
          2   -1    0    0  501    0  0.00000000000E+00 -0.00000000000E+00 -0.16326720765E+04  0.16326720765E+04  0.00000000000E+00 0. -1.
         24    2    1    2    0    0 -0.11845633594E+04 -0.20880362201E+03  0.14968933220E+03  0.12149920007E+04  0.83721924237E+02 0.  0.
        254    2    1    2    0    0  0.11845633594E+04  0.20880362201E+03 -0.59104996164E+03  0.16089915228E+04  0.89035069405E+03 0.  0.
         23    2    4    4    0    0  0.38528924474E+03  0.32308423917E+03  0.12491086711E+03  0.52607853060E+03  0.91239618167E+02 0.  0.
         23    2    4    4    0    0  0.79927411466E+03 -0.11428061716E+03 -0.71596082876E+03  0.10829129922E+04  0.90561971159E+02 0.  0.
          2    1    3    3  502    0 -0.43291624044E+03 -0.60958526736E+02  0.16859544213E+02  0.43751189406E+03  0.00000000000E+00 0. -1.
         -1    1    3    3    0  502 -0.75164711896E+03 -0.14784509527E+03  0.13282978799E+03  0.77748010663E+03  0.00000000000E+00 0.  1.
         11    1    5    5    0    0  0.11087889853E+03  0.54134979744E+02  0.46914520780E+01  0.12347767367E+03  0.00000000000E+00 0. -1.
        -11    1    5    5    0    0  0.27441034620E+03  0.26894925942E+03  0.12021941504E+03  0.40260085693E+03  0.00000000000E+00 0.  1.
          4    1    6    6  503    0  0.83354477503E+01  0.84180818541E+01 -0.13663820622E+02  0.18084351945E+02  0.00000000000E+00 0. -1.
         -4    1    6    6    0  503  0.79093866691E+03 -0.12269869901E+03 -0.70229700814E+03  0.10648286403E+04  0.00000000000E+00 0.  1.
<mgrwt>
<rscale>  0 0.27892801E+04</rscale>
<asrwt>0</asrwt>
<pdfrwt beam="1">  1        2 0.25118032E+00 0.27892801E+04</pdfrwt>
<pdfrwt beam="2">  1       -1 0.18327868E+00 0.27892801E+04</pdfrwt>
<totfact> 0.20902998E+00</totfact>
</mgrwt>
</event>
<event>
12    6  0.1530720E-007  0.2521095E+04  0.7818608E-02  0.8395509E-01
         -1   -1    0    0    0  501 -0.00000000000E+00  0.00000000000E+00  0.11562683678E+04  0.11562683678E+04  0.00000000000E+00 0.  1.
          2   -1    0    0  501    0  0.00000000000E+00 -0.00000000000E+00 -0.13742307977E+04  0.13742307977E+04  0.00000000000E+00 0. -1.
         24    2    1    2    0    0 -0.18038983656E+03  0.13695069011E+03  0.98069412736E+03  0.10098409779E+04  0.81986855831E+02 0.  0.
        254    2    1    2    0    0  0.18038983656E+03 -0.13695069011E+03 -0.11986565572E+04  0.15206581876E+04  0.90792499505E+03 0.  0.
         23    2    4    4    0    0 -0.32560934816E+03 -0.23464088348E+03 -0.49706290591E+03  0.64535842336E+03  0.91313582550E+02 0.  0.
         23    2    4    4    0    0  0.50599918472E+03  0.97690193362E+02 -0.70159365133E+03  0.87529976424E+03  0.91309785223E+02 0.  0.
          4    1    3    3  502    0 -0.43922109316E+02  0.78233911708E+02  0.44338738816E+03  0.45237381955E+03  0.00000000000E+00 0. -1.
         -3    1    3    3    0  502 -0.13646772725E+03  0.58716778405E+02  0.53730673919E+03  0.55746715834E+03  0.00000000000E+00 0.  1.
         11    1    5    5    0    0 -0.24209948511E+03 -0.14320653443E+03 -0.28938114816E+03  0.40356129783E+03  0.00000000000E+00 0. -1.
        -11    1    5    5    0    0 -0.83509863049E+02 -0.91434349048E+02 -0.20768175775E+03  0.24179712553E+03  0.00000000000E+00 0.  1.
          4    1    6    6  503    0  0.98700355562E+02 -0.12755186418E+02 -0.16429209238E+03  0.19208421744E+03  0.00000000000E+00 0.  1.
         -4    1    6    6    0  503  0.40729882916E+03  0.11044537978E+03 -0.53730155895E+03  0.68321554681E+03  0.00000000000E+00 0. -1.
<mgrwt>
<rscale>  0 0.25210947E+04</rscale>
<asrwt>0</asrwt>
<pdfrwt beam="1">  1        2 0.21142012E+00 0.25210947E+04</pdfrwt>
<pdfrwt beam="2">  1       -1 0.17788744E+00 0.25210947E+04</pdfrwt>
<totfact> 0.32734738E+00</totfact>
</mgrwt>
</event>
<event>
12    6  0.1530720E-007  0.2872142E+04  0.7818608E-02  0.8281215E-01
          2   -1    0    0  501    0  0.00000000000E+00  0.00000000000E+00  0.15371357840E+04  0.15371357840E+04  0.00000000000E+00 0. -1.
         -1   -1    0    0    0  501 -0.00000000000E+00 -0.00000000000E+00 -0.13416508501E+04  0.13416508501E+04  0.00000000000E+00 0.  1.
         24    2    1    2    0    0  0.50821636813E+03 -0.10143834247E+04  0.71427454856E+03  0.13430607359E+04  0.79789727010E+02 0.  0.
        254    2    1    2    0    0 -0.50821636813E+03  0.10143834247E+04 -0.51878961465E+03  0.15357258981E+04  0.89557454217E+03 0.  0.
         23    2    4    4    0    0 -0.25250460020E+03  0.11167432554E+04 -0.35183113452E+03  0.12009273810E+04  0.86990548904E+02 0.  0.
         23    2    4    4    0    0 -0.25571176794E+03 -0.10235983066E+03 -0.16695848013E+03  0.33479851711E+03  0.91372149898E+02 0.  0.
          4    1    3    3  502    0  0.23922995960E+03 -0.44278593150E+03  0.27383194447E+03  0.57295225675E+03  0.00000000000E+00 0. -1.
         -3    1    3    3    0  502  0.26898640853E+03 -0.57159749321E+03  0.44044260409E+03  0.77010847919E+03  0.00000000000E+00 0.  1.
         11    1    5    5    0    0 -0.37596868783E+02  0.32896916248E+03 -0.11859426730E+03  0.35170845119E+03  0.00000000000E+00 0.  1.
        -11    1    5    5    0    0 -0.21490773141E+03  0.78777409289E+03 -0.23323686722E+03  0.84921892977E+03  0.00000000000E+00 0. -1.
          3    1    6    6  503    0 -0.98392119429E+02 -0.87654996103E+02 -0.66993239303E+02  0.14782591660E+03  0.00000000000E+00 0. -1.
         -3    1    6    6    0  503 -0.15731964851E+03 -0.14704834557E+02 -0.99965240825E+02  0.18697260051E+03  0.00000000000E+00 0.  1.
<mgrwt>
<rscale>  0 0.28721417E+04</rscale>
<asrwt>0</asrwt>
<pdfrwt beam="1">  1        2 0.23648243E+00 0.28721417E+04</pdfrwt>
<pdfrwt beam="2">  1       -1 0.20640782E+00 0.28721417E+04</pdfrwt>
<totfact> 0.16204484E+00</totfact>
</mgrwt>
</event>
<event>
12    6  0.1530720E-007  0.2285928E+04  0.7818608E-02  0.8483490E-01
          4   -1    0    0  501    0  0.00000000000E+00  0.00000000000E+00  0.18050535928E+04  0.18050535928E+04  0.00000000000E+00 0. -1.
         -3   -1    0    0    0  501 -0.00000000000E+00 -0.00000000000E+00 -0.72372714886E+03  0.72372714886E+03  0.00000000000E+00 0.  1.
         24    2    1    2    0    0 -0.18918633990E+03 -0.67841599676E+02 -0.58159998967E+03  0.62041361634E+03  0.79123659589E+02 0.  0.
        254    2    1    2    0    0  0.18918633990E+03  0.67841599676E+02  0.16629264337E+04  0.19083671254E+04  0.91441063400E+03 0.  0.
         23    2    4    4    0    0 -0.29339942405E+03 -0.61527557445E+02  0.23360749581E+03  0.39151281159E+03  0.94026364302E+02 0.  0.
         23    2    4    4    0    0  0.48258576395E+03  0.12936915712E+03  0.14293189378E+04  0.15168543138E+04  0.90933958194E+02 0.  0.
          4    1    3    3  502    0 -0.15916055860E+03 -0.66662287026E+02 -0.38996637260E+03  0.42643840784E+03  0.00000000000E+00 0. -1.
         -3    1    3    3    0  502 -0.30025781305E+02 -0.11793126494E+01 -0.19163361706E+03  0.19397520849E+03  0.00000000000E+00 0.  1.
         11    1    5    5    0    0 -0.21223689285E+03 -0.30319457698E+02  0.21286360397E+03  0.30211700067E+03  0.00000000000E+00 0.  1.
        -11    1    5    5    0    0 -0.81162531198E+02 -0.31208099748E+02  0.20743891837E+02  0.89395810913E+02  0.00000000000E+00 0. -1.
          3    1    6    6  503    0  0.22560656147E+02  0.24125227181E+02  0.59887380101E+02  0.68392310150E+02  0.00000000000E+00 0. -1.
         -3    1    6    6    0  503  0.46002510780E+03  0.10524392994E+03  0.13694315577E+04  0.14484620036E+04  0.00000000000E+00 0.  1.
<mgrwt>
<rscale>  0 0.22859276E+04</rscale>
<asrwt>0</asrwt>
<pdfrwt beam="1">  1        4 0.27770055E+00 0.22859276E+04</pdfrwt>
<pdfrwt beam="2">  1       -3 0.11134264E+00 0.22859276E+04</pdfrwt>
<totfact> 0.59538410E-02</totfact>
</mgrwt>
</event>
<event>
12    6  0.1530720E-007  0.1358972E+04  0.7818608E-02  0.8984064E-01
         -1   -1    0    0    0  501 -0.00000000000E+00  0.00000000000E+00  0.24545368822E+03  0.24545368822E+03  0.00000000000E+00 0.  1.
          2   -1    0    0  501    0  0.00000000000E+00 -0.00000000000E+00 -0.18810112221E+04  0.18810112221E+04  0.00000000000E+00 0. -1.
         24    2    1    2    0    0  0.24858813984E+03  0.57463817556E+02 -0.29283596482E+02  0.26867664547E+03  0.78939579418E+02 0.  0.
        254    2    1    2    0    0 -0.24858813984E+03 -0.57463817556E+02 -0.16062739374E+04  0.18577882648E+04  0.89786587052E+03 0.  0.
         23    2    4    4    0    0 -0.59890151749E+02 -0.45709176991E+03 -0.67216796354E+03  0.82034338868E+03  0.92918177712E+02 0.  0.
         23    2    4    4    0    0 -0.18869798809E+03  0.39962795236E+03 -0.93410597381E+03  0.10374448761E+04  0.91806697281E+02 0.  0.
          2    1    3    3  502    0  0.88217499822E+02 -0.96049997864E+01 -0.33350102164E+02  0.94798800678E+02  0.00000000000E+00 0. -1.
         -1    1    3    3    0  502  0.16037064002E+03  0.67068817342E+02  0.40665056818E+01  0.17387784479E+03  0.00000000000E+00 0.  1.
         11    1    5    5    0    0 -0.95517795752E+01 -0.90964998361E+02 -0.76012346193E+02  0.11892747451E+03  0.00000000000E+00 0.  1.
        -11    1    5    5    0    0 -0.50338372174E+02 -0.36612677155E+03 -0.59615561735E+03  0.70141591417E+03  0.00000000000E+00 0. -1.
          4    1    6    6  503    0 -0.12332533253E+03  0.29543268880E+03 -0.57862385779E+03  0.66128298032E+03  0.00000000000E+00 0. -1.
         -4    1    6    6    0  503 -0.65372655565E+02  0.10419526356E+03 -0.35548211602E+03  0.37616189580E+03  0.00000000000E+00 0.  1.
<mgrwt>
<rscale>  0 0.13589719E+04</rscale>
<asrwt>0</asrwt>
<pdfrwt beam="1">  1        2 0.28938634E+00 0.13589719E+04</pdfrwt>
<pdfrwt beam="2">  1       -1 0.37762106E-01 0.13589719E+04</pdfrwt>
<totfact> 0.58548976E+01</totfact>
</mgrwt>
</event>
<event>
12    6  0.1530720E-007  0.1261137E+04  0.7818608E-02  0.9060965E-01
          2   -1    0    0  501    0  0.00000000000E+00  0.00000000000E+00  0.10289054213E+04  0.10289054213E+04  0.00000000000E+00 0. -1.
         -1   -1    0    0    0  501 -0.00000000000E+00 -0.00000000000E+00 -0.38644619474E+03  0.38644619474E+03  0.00000000000E+00 0.  1.
         24    2    1    2    0    0 -0.28501625187E+03 -0.19663762451E+02  0.26605253905E+03  0.39843037211E+03  0.79635924698E+02 0.  0.
        254    2    1    2    0    0  0.28501625187E+03  0.19663762451E+02  0.37640668748E+03  0.10169212439E+04  0.90045871338E+03 0.  0.
         23    2    4    4    0    0  0.94577400068E+02 -0.29905235676E+03  0.51572344098E+03  0.61038570300E+03  0.90679888429E+02 0.  0.
         23    2    4    4    0    0  0.19043885181E+03  0.31871611921E+03 -0.13931675350E+03  0.40653554088E+03  0.89526908079E+02 0.  0.
          4    1    3    3  502    0 -0.95751160586E+02  0.64407766554E+01  0.44225378530E+02  0.10566765098E+03  0.00000000000E+00 0. -1.
         -3    1    3    3    0  502 -0.18926509129E+03 -0.26104539106E+02  0.22182716051E+03  0.29276272113E+03  0.00000000000E+00 0.  1.
         11    1    5    5    0    0  0.32336365349E+02 -0.19280345604E+03  0.24871339353E+03  0.31634975155E+03  0.00000000000E+00 0. -1.
        -11    1    5    5    0    0  0.62241034719E+02 -0.10624890073E+03  0.26701004745E+03  0.29403595146E+03  0.00000000000E+00 0.  1.
          4    1    6    6  503    0  0.13985683816E+03  0.17139301848E+03 -0.49334277245E+02  0.22664812568E+03  0.00000000000E+00 0. -1.
         -4    1    6    6    0  503  0.50582013647E+02  0.14732310073E+03 -0.89982476256E+02  0.17988741520E+03  0.00000000000E+00 0.  1.
<mgrwt>
<rscale>  0 0.12611369E+04</rscale>
<asrwt>0</asrwt>
<pdfrwt beam="1">  1        2 0.15829314E+00 0.12611369E+04</pdfrwt>
<pdfrwt beam="2">  1       -1 0.59453261E-01 0.12611369E+04</pdfrwt>
<totfact> 0.77607631E+01</totfact>
</mgrwt>
</event>
<event>
12    6  0.1530720E-007  0.1282182E+04  0.7818608E-02  0.9043816E-01
         -1   -1    0    0    0  501 -0.00000000000E+00  0.00000000000E+00  0.24511471089E+03  0.24511471089E+03  0.00000000000E+00 0.  1.
          2   -1    0    0  501    0  0.00000000000E+00 -0.00000000000E+00 -0.16767558148E+04  0.16767558148E+04  0.00000000000E+00 0. -1.
         24    2    1    2    0    0 -0.24316289409E+03  0.17856883339E+03 -0.50277476727E+03  0.59207758553E+03  0.82209362947E+02 0.  0.
        254    2    1    2    0    0  0.24316289409E+03 -0.17856883339E+03 -0.92886633661E+03  0.13297929401E+04  0.90251956822E+03 0.  0.
         23    2    4    4    0    0 -0.21450823323E+03  0.45983925520E+02 -0.74216214441E+03  0.77928307087E+03  0.91373696596E+02 0.  0.
         23    2    4    4    0    0  0.45767112732E+03 -0.22455275891E+03 -0.18670419220E+03  0.55050986926E+03  0.91191328795E+02 0.  0.
          4    1    3    3  502    0 -0.16212938620E+03  0.14374860867E+03 -0.41204794308E+03  0.46554603183E+03  0.00000000000E+00 0. -1.
         -3    1    3    3    0  502 -0.81033507893E+02  0.34820224726E+02 -0.90726824195E+02  0.12653155369E+03  0.00000000000E+00 0.  1.
         11    1    5    5    0    0 -0.20087801191E+03  0.46651669848E+02 -0.73593454762E+03  0.76428267830E+03  0.00000000000E+00 0. -1.
        -11    1    5    5    0    0 -0.13630221316E+02 -0.66774432859E+00 -0.62275967888E+01  0.15000392574E+02  0.00000000000E+00 0.  1.
          4    1    6    6  503    0  0.24938297603E+02 -0.34340918882E+02 -0.31973889883E+02  0.53137058925E+02  0.00000000000E+00 0.  1.
         -4    1    6    6    0  503  0.43273282972E+03 -0.19021184003E+03 -0.15473030232E+03  0.49737281033E+03  0.00000000000E+00 0. -1.
<mgrwt>
<rscale>  0 0.12821818E+04</rscale>
<asrwt>0</asrwt>
<pdfrwt beam="1">  1        2 0.25796243E+00 0.12821818E+04</pdfrwt>
<pdfrwt beam="2">  1       -1 0.37709956E-01 0.12821818E+04</pdfrwt>
<totfact> 0.76606191E+01</totfact>
</mgrwt>
</event>
<event>
12    6  0.1530720E-007  0.1922816E+04  0.7818608E-02  0.8643582E-01
         -1   -1    0    0    0  501 -0.00000000000E+00  0.00000000000E+00  0.28666653900E+03  0.28666653900E+03  0.00000000000E+00 0.  1.
          2   -1    0    0  501    0  0.00000000000E+00 -0.00000000000E+00 -0.32243232941E+04  0.32243232941E+04  0.00000000000E+00 0. -1.
         24    2    1    2    0    0 -0.31003676576E+03  0.58776926446E+03 -0.17859445869E+04  0.19071450796E+04  0.77516337230E+02 0.  0.
        254    2    1    2    0    0  0.31003676576E+03 -0.58776926446E+03 -0.11517121682E+04  0.16038447536E+04  0.89681746795E+03 0.  0.
         23    2    4    4    0    0  0.13334725298E+02 -0.21881227866E+03 -0.10928560753E+04  0.11183503754E+04  0.91195025419E+02 0.  0.
         23    2    4    4    0    0  0.29670204046E+03 -0.36895698580E+03 -0.58856092917E+02  0.48549437818E+03  0.89885445890E+02 0.  0.
          2    1    3    3  502    0 -0.30935877967E+03  0.58825396602E+03 -0.17620004167E+04  0.18831864092E+04  0.00000000000E+00 0. -1.
         -1    1    3    3    0  502 -0.67798608927E+00 -0.48470155498E+00 -0.23944170192E+02  0.23958670392E+02  0.00000000000E+00 0.  1.
         11    1    5    5    0    0 -0.20572380459E+01 -0.11326629214E+01 -0.17104391662E+03  0.17106003790E+03  0.00000000000E+00 0. -1.
        -11    1    5    5    0    0  0.15391963344E+02 -0.21767961574E+03 -0.92181215869E+03  0.94729033751E+03  0.00000000000E+00 0.  1.
          2    1    6    6  503    0  0.17310410608E+03 -0.16924367918E+03  0.48560835937E+01  0.24214052951E+03  0.00000000000E+00 0.  1.
         -2    1    6    6    0  503  0.12359793438E+03 -0.19971330662E+03 -0.63712176511E+02  0.24335384867E+03  0.00000000000E+00 0. -1.
<mgrwt>
<rscale>  0 0.19228163E+04</rscale>
<asrwt>0</asrwt>
<pdfrwt beam="1">  1        2 0.49604974E+00 0.19228163E+04</pdfrwt>
<pdfrwt beam="2">  1       -1 0.44102544E-01 0.19228163E+04</pdfrwt>
<totfact> 0.67940007E+00</totfact>
</mgrwt>
</event>
<event>
12    6  0.1530720E-007  0.2018219E+04  0.7818608E-02  0.8598150E-01
         -1   -1    0    0    0  501 -0.00000000000E+00  0.00000000000E+00  0.23656360526E+04  0.23656360526E+04  0.00000000000E+00 0.  1.
          2   -1    0    0  501    0  0.00000000000E+00 -0.00000000000E+00 -0.43045603470E+03  0.43045603470E+03  0.00000000000E+00 0. -1.
         24    2    1    2    0    0 -0.64372419842E+03 -0.44557857672E+03  0.10482024312E+04  0.13114617930E+04  0.91008714469E+02 0.  0.
        254    2    1    2    0    0  0.64372419842E+03  0.44557857672E+03  0.88697758668E+03  0.14846302943E+04  0.89692628444E+03 0.  0.
         23    2    4    4    0    0  0.76404355661E+03  0.55483622379E+03  0.54045426762E+03  0.10918336375E+04  0.91673796644E+02 0.  0.
         23    2    4    4    0    0 -0.12031935819E+03 -0.10925764707E+03  0.34652331906E+03  0.39279665675E+03  0.88299612142E+02 0.  0.
          4    1    3    3  502    0 -0.52706131411E+02 -0.12364045716E+02  0.92235074897E+02  0.10694912321E+03  0.00000000000E+00 0. -1.
         -3    1    3    3    0  502 -0.59101806701E+03 -0.43321453101E+03  0.95596735629E+03  0.12045126698E+04  0.00000000000E+00 0.  1.
         11    1    5    5    0    0  0.59144773536E+03  0.46790378968E+03  0.45268221129E+03  0.87958260810E+03  0.00000000000E+00 0.  1.
        -11    1    5    5    0    0  0.17259582125E+03  0.86932434110E+02  0.87772056327E+02  0.21225102941E+03  0.00000000000E+00 0. -1.
          2    1    6    6  503    0 -0.11485954017E+03 -0.64252704396E+02  0.30116805486E+03  0.32866901475E+03  0.00000000000E+00 0.  1.
         -2    1    6    6    0  503 -0.54598180209E+01 -0.45004942673E+02  0.45355264205E+02  0.64127642004E+02  0.00000000000E+00 0. -1.
<mgrwt>
<rscale>  0 0.20182193E+04</rscale>
<asrwt>0</asrwt>
<pdfrwt beam="1">  1        2 0.66224007E-01 0.20182193E+04</pdfrwt>
<pdfrwt beam="2">  1       -1 0.36394400E+00 0.20182193E+04</pdfrwt>
<totfact> 0.97469546E-01</totfact>
</mgrwt>
</event>
<event>
12    6  0.1530720E-007  0.1291727E+04  0.7818608E-02  0.9036152E-01
          2   -1    0    0  501    0  0.00000000000E+00  0.00000000000E+00  0.16166293290E+04  0.16166293290E+04  0.00000000000E+00 0. -1.
         -1   -1    0    0    0  501 -0.00000000000E+00 -0.00000000000E+00 -0.25803043486E+03  0.25803043486E+03  0.00000000000E+00 0.  1.
         24    2    1    2    0    0  0.17435429353E+03  0.45324549316E+01  0.73973634098E+03  0.76405826167E+03  0.78455148008E+02 0.  0.
        254    2    1    2    0    0 -0.17435429353E+03 -0.45324549316E+01  0.61886255313E+03  0.11106015022E+04  0.90555224815E+03 0.  0.
         23    2    4    4    0    0 -0.41639533111E+03 -0.25141778585E+03  0.14640284522E+03  0.51614611780E+03  0.91526209460E+02 0.  0.
         23    2    4    4    0    0  0.24204103758E+03  0.24688533092E+03  0.47245970791E+03  0.59445538437E+03  0.10306695835E+03 0.  0.
          4    1    3    3  502    0  0.11927651344E+03  0.34366303280E+02  0.40817382048E+03  0.42663075040E+03  0.00000000000E+00 0. -1.
         -3    1    3    3    0  502  0.55077780083E+02 -0.29833848349E+02  0.33156252050E+03  0.33742751127E+03  0.00000000000E+00 0.  1.
         11    1    5    5    0    0 -0.15859875403E+03 -0.14602528568E+03  0.48876594091E+02  0.22105626045E+03  0.00000000000E+00 0.  1.
        -11    1    5    5    0    0 -0.25779657708E+03 -0.10539250017E+03  0.97526251127E+02  0.29508985734E+03  0.00000000000E+00 0. -1.
          3    1    6    6  503    0  0.21178939850E+03  0.25291043367E+03  0.43486193842E+03  0.54582354499E+03  0.00000000000E+00 0. -1.
         -3    1    6    6    0  503  0.30251639087E+02 -0.60251027520E+01  0.37597769494E+02  0.48631839380E+02  0.00000000000E+00 0.  1.
<mgrwt>
<rscale>  0 0.12917269E+04</rscale>
<asrwt>0</asrwt>
<pdfrwt beam="1">  1        2 0.24871220E+00 0.12917269E+04</pdfrwt>
<pdfrwt beam="2">  1       -1 0.39696991E-01 0.12917269E+04</pdfrwt>
<totfact> 0.75315017E+01</totfact>
</mgrwt>
</event>
<event>
12    6  0.1530720E-007  0.3471206E+04  0.7818608E-02  0.8120648E-01
          2   -1    0    0  501    0  0.00000000000E+00  0.00000000000E+00  0.33606195685E+04  0.33606195685E+04  0.00000000000E+00 0. -1.
         -1   -1    0    0    0  501 -0.00000000000E+00 -0.00000000000E+00 -0.89635780264E+03  0.89635780264E+03  0.00000000000E+00 0.  1.
         24    2    1    2    0    0  0.26988106323E+03  0.92493730434E+03 -0.44470157725E+03  0.10641760310E+04  0.79789265752E+02 0.  0.
        254    2    1    2    0    0 -0.26988106323E+03 -0.92493730434E+03  0.29089633431E+04  0.31928013402E+04  0.89641946698E+03 0.  0.
         23    2    4    4    0    0 -0.13415460766E+03 -0.89289052018E+03  0.28818238676E+04  0.30213223785E+04  0.90714776287E+02 0.  0.
         23    2    4    4    0    0 -0.13572645557E+03 -0.32046784162E+02  0.27139475502E+02  0.17147896172E+03  0.96019873286E+02 0.  0.
          4    1    3    3  502    0  0.79867955270E+02  0.17316859025E+03 -0.71909246066E+02  0.20380674816E+03  0.00000000000E+00 0. -1.
         -3    1    3    3    0  502  0.19001310796E+03  0.75176871409E+03 -0.37279233118E+03  0.86036928285E+03  0.00000000000E+00 0.  1.
         11    1    5    5    0    0 -0.11112927447E+03 -0.80470519502E+03  0.24953461723E+04  0.26242432598E+04  0.00000000000E+00 0. -1.
        -11    1    5    5    0    0 -0.23025333186E+02 -0.88185325157E+02  0.38647769529E+03  0.39707911869E+03  0.00000000000E+00 0.  1.
          2    1    6    6  503    0 -0.13688980173E+03 -0.38034554914E+02  0.47828087289E+02  0.14990987665E+03  0.00000000000E+00 0. -1.
         -2    1    6    6    0  503  0.11633461617E+01  0.59877707515E+01 -0.20688611787E+02  0.21569085065E+02  0.00000000000E+00 0.  1.
<mgrwt>
<rscale>  0 0.34712059E+04</rscale>
<asrwt>0</asrwt>
<pdfrwt beam="1">  1        2 0.51701839E+00 0.34712059E+04</pdfrwt>
<pdfrwt beam="2">  1       -1 0.13790120E+00 0.34712059E+04</pdfrwt>
<totfact> 0.41290294E-01</totfact>
</mgrwt>
</event>
<event>
12    6  0.1530720E-007  0.3778702E+04  0.7818608E-02  0.8050741E-01
          2   -1    0    0  501    0  0.00000000000E+00  0.00000000000E+00  0.37171868507E+04  0.37171868507E+04  0.00000000000E+00 0. -1.
         -1   -1    0    0    0  501 -0.00000000000E+00 -0.00000000000E+00 -0.96030862090E+03  0.96030862090E+03  0.00000000000E+00 0.  1.
         24    2    1    2    0    0  0.93148952776E+03  0.15240042357E+04  0.10910858366E+04  0.20944768635E+04  0.78124120648E+02 0.  0.
        254    2    1    2    0    0 -0.93148952776E+03 -0.15240042357E+04  0.16657923932E+04  0.25830186081E+04  0.84074917902E+03 0.  0.
         23    2    4    4    0    0  0.72403574662E-01  0.75962465598E+02  0.12249287135E+03  0.17108669095E+03  0.92172940002E+02 0.  0.
         23    2    4    4    0    0 -0.93156193134E+03 -0.15999667013E+04  0.15432995218E+04  0.24119319171E+04  0.89112747981E+02 0.  0.
          2    1    3    3  502    0  0.55169286399E+03  0.93135736615E+03  0.61984025142E+03  0.12473946837E+04  0.00000000000E+00 0. -1.
         -1    1    3    3    0  502  0.37979666377E+03  0.59264686950E+03  0.47124558522E+03  0.84708217980E+03  0.00000000000E+00 0.  1.
         11    1    5    5    0    0  0.27870028851E+02  0.41838326692E+02  0.11336118369E+02  0.51533403422E+02  0.00000000000E+00 0.  1.
        -11    1    5    5    0    0 -0.27797625276E+02  0.34124138906E+02  0.11115675298E+03  0.11955328753E+03  0.00000000000E+00 0. -1.
          1    1    6    6  503    0 -0.30996205003E+03 -0.61420800516E+03  0.58925139079E+03  0.90583947121E+03  0.00000000000E+00 0. -1.
         -1    1    6    6    0  503 -0.62159988131E+03 -0.98575869609E+03  0.95404813103E+03  0.15060924459E+04  0.00000000000E+00 0.  1.
<mgrwt>
<rscale>  0 0.37787017E+04</rscale>
<asrwt>0</asrwt>
<pdfrwt beam="1">  1        2 0.57187489E+00 0.37787017E+04</pdfrwt>
<pdfrwt beam="2">  1       -1 0.14773979E+00 0.37787017E+04</pdfrwt>
<totfact> 0.18732125E-01</totfact>
</mgrwt>
</event>
<event>
12    6  0.1530720E-007  0.1293150E+04  0.7818608E-02  0.9035015E-01
         -1   -1    0    0    0  501 -0.00000000000E+00  0.00000000000E+00  0.85480984289E+03  0.85480984289E+03  0.00000000000E+00 0.  1.
          2   -1    0    0  501    0  0.00000000000E+00 -0.00000000000E+00 -0.48906698620E+03  0.48906698620E+03  0.00000000000E+00 0. -1.
         24    2    1    2    0    0 -0.14406643855E+03  0.27624753270E+02  0.40379813527E+03  0.43705014935E+03  0.80259786232E+02 0.  0.
        254    2    1    2    0    0  0.14406643855E+03 -0.27624753270E+02 -0.38055278582E+02  0.90682667974E+03  0.89407391034E+03 0.  0.
         23    2    4    4    0    0 -0.32823803308E+03 -0.19383918285E+03  0.28886849397E+02  0.39327247092E+03  0.92276492920E+02 0.  0.
         23    2    4    4    0    0  0.47230447163E+03  0.16621442958E+03 -0.66942127980E+02  0.51355420882E+03  0.92509061069E+02 0.  0.
          2    1    3    3  502    0 -0.34617532318E+02 -0.18075361469E+02  0.47292968446E+02  0.61332838679E+02  0.00000000000E+00 0. -1.
         -1    1    3    3    0  502 -0.10944890623E+03  0.45700114739E+02  0.35650516682E+03  0.37571731067E+03  0.00000000000E+00 0.  1.
         11    1    5    5    0    0 -0.21703773078E+03 -0.79958396640E+02 -0.11220982921E+01  0.23130062879E+03  0.00000000000E+00 0. -1.
        -11    1    5    5    0    0 -0.11120030229E+03 -0.11388078621E+03  0.30008947689E+02  0.16197184212E+03  0.00000000000E+00 0.  1.
          3    1    6    6  503    0  0.57009937818E+02 -0.99830974960E+01 -0.11826431574E+02  0.59073341952E+02  0.00000000000E+00 0. -1.
         -3    1    6    6    0  503  0.41529453381E+03  0.17619752708E+03 -0.55115696405E+02  0.45448086687E+03  0.00000000000E+00 0.  1.
<mgrwt>
<rscale>  0 0.12931501E+04</rscale>
<asrwt>0</asrwt>
<pdfrwt beam="1">  1        2 0.75241075E-01 0.12931501E+04</pdfrwt>
<pdfrwt beam="2">  1       -1 0.13150921E+00 0.12931501E+04</pdfrwt>
<totfact> 0.34908666E+01</totfact>
</mgrwt>
</event>
<event>
12    6  0.1530720E-007  0.1694193E+04  0.7818608E-02  0.8764684E-01
          2   -1    0    0  501    0  0.00000000000E+00  0.00000000000E+00  0.14603253501E+04  0.14603253501E+04  0.00000000000E+00 0. -1.
         -1   -1    0    0    0  501 -0.00000000000E+00 -0.00000000000E+00 -0.49137821868E+03  0.49137821868E+03  0.00000000000E+00 0.  1.
         24    2    1    2    0    0  0.19170118723E+03 -0.57268310015E+03  0.32402967968E+03  0.69006261760E+03  0.80473004828E+02 0.  0.
        254    2    1    2    0    0 -0.19170118723E+03  0.57268310015E+03  0.64491745178E+03  0.12616409512E+04  0.90061317545E+03 0.  0.
         23    2    4    4    0    0 -0.39467263341E+03  0.17167908145E+03  0.67094429684E+03  0.80228834745E+03  0.90885358658E+02 0.  0.
         23    2    4    4    0    0  0.20297144618E+03  0.40100401870E+03 -0.26026845064E+02  0.45935260377E+03  0.91245750294E+02 0.  0.
          2    1    3    3  502    0  0.19823812658E+03 -0.55274679327E+03  0.30484338510E+03  0.66163196850E+03  0.00000000000E+00 0. -1.
         -1    1    3    3    0  502 -0.65369393549E+01 -0.19936306876E+02  0.19186294587E+02  0.28430649095E+02  0.00000000000E+00 0.  1.
         11    1    5    5    0    0 -0.68186414165E+02 -0.30367429474E+01  0.83104258442E+02  0.10754034896E+03  0.00000000000E+00 0. -1.
        -11    1    5    5    0    0 -0.32648621924E+03  0.17471582440E+03  0.58784003840E+03  0.69474799848E+03  0.00000000000E+00 0.  1.
          3    1    6    6  503    0  0.70778081542E+01  0.86350199016E+02 -0.18676020461E+02  0.88629825559E+02  0.00000000000E+00 0. -1.
         -3    1    6    6    0  503  0.19589363803E+03  0.31465381968E+03 -0.73508246039E+01  0.37072277821E+03  0.00000000000E+00 0.  1.
<mgrwt>
<rscale>  0 0.16941925E+04</rscale>
<asrwt>0</asrwt>
<pdfrwt beam="1">  1        2 0.22466544E+00 0.16941925E+04</pdfrwt>
<pdfrwt beam="2">  1       -1 0.75596650E-01 0.16941925E+04</pdfrwt>
<totfact> 0.25502207E+01</totfact>
</mgrwt>
</event>
<event>
12    6  0.1530720E-007  0.1514936E+04  0.7818608E-02  0.8874581E-01
          2   -1    0    0  501    0  0.00000000000E+00  0.00000000000E+00  0.11553582399E+04  0.11553582399E+04  0.00000000000E+00 0. -1.
         -1   -1    0    0    0  501 -0.00000000000E+00 -0.00000000000E+00 -0.49660573136E+03  0.49660573136E+03  0.00000000000E+00 0.  1.
         24    2    1    2    0    0 -0.13821346560E+03  0.31531602752E+03 -0.16088759739E+03  0.38830347856E+03  0.79797325652E+02 0.  0.
        254    2    1    2    0    0  0.13821346560E+03 -0.31531602752E+03  0.81964010589E+03  0.12636604927E+04  0.89805388382E+03 0.  0.
         23    2    4    4    0    0  0.39291328483E+03 -0.18790677428E+03  0.85379365276E+03  0.96278256887E+03  0.91087146255E+02 0.  0.
         23    2    4    4    0    0 -0.25469981923E+03 -0.12740925325E+03 -0.34153546872E+02  0.30087792379E+03  0.90862228305E+02 0.  0.
          2    1    3    3  502    0 -0.12174736600E+03  0.29846788526E+03 -0.12575941386E+03  0.34600712396E+03  0.00000000000E+00 0. -1.
         -1    1    3    3    0  502 -0.16466099600E+02  0.16848142262E+02 -0.35128183533E+02  0.42296354595E+02  0.00000000000E+00 0.  1.
         11    1    5    5    0    0  0.28382469199E+03 -0.10881852072E+03  0.51264721310E+03  0.59599084836E+03  0.00000000000E+00 0. -1.
        -11    1    5    5    0    0  0.10908859284E+03 -0.79088253559E+02  0.34114643966E+03  0.36679172051E+03  0.00000000000E+00 0.  1.
          1    1    6    6  503    0 -0.26109166467E+03 -0.12658843310E+03 -0.39060008292E+02  0.29277836840E+03  0.00000000000E+00 0.  1.
         -1    1    6    6    0  503  0.63918454407E+01 -0.82082014205E+00  0.49064614202E+01  0.80995553897E+01  0.00000000000E+00 0. -1.
<mgrwt>
<rscale>  0 0.15149357E+04</rscale>
<asrwt>0</asrwt>
<pdfrwt beam="1">  1        2 0.17774742E+00 0.15149357E+04</pdfrwt>
<pdfrwt beam="2">  1       -1 0.76400882E-01 0.15149357E+04</pdfrwt>
<totfact> 0.38145683E+01</totfact>
</mgrwt>
</event>
<event>
12    6  0.1530720E-007  0.5628379E+04  0.7818608E-02  0.7738267E-01
          2   -1    0    0  501    0  0.00000000000E+00  0.00000000000E+00  0.37895708413E+04  0.37895708413E+04  0.00000000000E+00 0. -1.
         -1   -1    0    0    0  501 -0.00000000000E+00 -0.00000000000E+00 -0.20898570318E+04  0.20898570318E+04  0.00000000000E+00 0.  1.
         24    2    1    2    0    0 -0.20229942877E+04 -0.67467508537E+03 -0.97085199991E+03  0.23444649299E+04  0.79182339051E+02 0.  0.
        254    2    1    2    0    0  0.20229942877E+04  0.67467508537E+03  0.26705658094E+04  0.35349629433E+04  0.90352028688E+03 0.  0.
         23    2    4    4    0    0  0.21605227335E+03  0.37299349938E+03  0.81302097304E+03  0.92442373745E+03  0.88053440292E+02 0.  0.
         23    2    4    4    0    0  0.18069420144E+04  0.30168158599E+03  0.18575448364E+04  0.26105392058E+04  0.91601873824E+02 0.  0.
          4    1    3    3  502    0 -0.11622670923E+04 -0.39340516468E+03 -0.51593983909E+03  0.13310996713E+04  0.00000000000E+00 0. -1.
         -3    1    3    3    0  502 -0.86072719547E+03 -0.28126992068E+03 -0.45491216081E+03  0.10133652586E+04  0.00000000000E+00 0.  1.
         11    1    5    5    0    0  0.16059123250E+03  0.19053671236E+03  0.46836583235E+03  0.53052835515E+03  0.00000000000E+00 0. -1.
        -11    1    5    5    0    0  0.55461040844E+02  0.18245678703E+03  0.34465514070E+03  0.39389538229E+03  0.00000000000E+00 0.  1.
          1    1    6    6  503    0  0.23707016419E+03  0.64200028209E+02  0.22165689379E+03  0.33084087555E+03  0.00000000000E+00 0. -1.
         -1    1    6    6    0  503  0.15698718502E+04  0.23748155778E+03  0.16358879426E+04  0.22796983303E+04  0.00000000000E+00 0.  1.
<mgrwt>
<rscale>  0 0.56283785E+04</rscale>
<asrwt>0</asrwt>
<pdfrwt beam="1">  1        2 0.58301090E+00 0.56283785E+04</pdfrwt>
<pdfrwt beam="2">  1       -1 0.32151647E+00 0.56283785E+04</pdfrwt>
<totfact> 0.93830742E-03</totfact>
</mgrwt>
</event>
<event>
12    6  0.1530720E-007  0.1058221E+04  0.7818608E-02  0.9246898E-01
         -1   -1    0    0    0  501 -0.00000000000E+00  0.00000000000E+00  0.30707356254E+03  0.30707356254E+03  0.00000000000E+00 0.  1.
          2   -1    0    0  501    0  0.00000000000E+00 -0.00000000000E+00 -0.91169591330E+03  0.91169591330E+03  0.00000000000E+00 0. -1.
         24    2    1    2    0    0 -0.63930900166E+02  0.28956800242E+02  0.39598265017E+02  0.11335072425E+03  0.79716421267E+02 0.  0.
        254    2    1    2    0    0  0.63930900166E+02 -0.28956800242E+02 -0.64422061578E+03  0.11054187516E+04  0.89554718373E+03 0.  0.
         23    2    4    4    0    0 -0.36727615075E+03  0.10926133097E+03 -0.46559124934E+03  0.61019495035E+03  0.93449754513E+02 0.  0.
         23    2    4    4    0    0  0.43120705091E+03 -0.13821813122E+03 -0.17862936644E+03  0.49522380124E+03  0.91073542817E+02 0.  0.
          2    1    3    3  502    0 -0.17979272429E+02 -0.27269462277E+02  0.54792357338E+01  0.33119478169E+02  0.00000000000E+00 0. -1.
         -1    1    3    3    0  502 -0.45951627736E+02  0.56226262519E+02  0.34119029284E+02  0.80231246082E+02  0.00000000000E+00 0.  1.
         11    1    5    5    0    0 -0.32526964612E+03  0.12071073967E+03 -0.38264284018E+03  0.51651424811E+03  0.00000000000E+00 0. -1.
        -11    1    5    5    0    0 -0.42006504631E+02 -0.11449408699E+02 -0.82948409154E+02  0.93680702240E+02  0.00000000000E+00 0.  1.
          3    1    6    6  503    0  0.34624186628E+03 -0.12687253336E+03 -0.10825422640E+03  0.38431633744E+03  0.00000000000E+00 0. -1.
         -3    1    6    6    0  503  0.84965184628E+02 -0.11345597858E+02 -0.70375140046E+02  0.11090746380E+03  0.00000000000E+00 0.  1.
<mgrwt>
<rscale>  0 0.10582206E+04</rscale>
<asrwt>0</asrwt>
<pdfrwt beam="1">  1        2 0.14026091E+00 0.10582206E+04</pdfrwt>
<pdfrwt beam="2">  1       -1 0.47242087E-01 0.10582206E+04</pdfrwt>
<totfact> 0.14605404E+02</totfact>
</mgrwt>
</event>
<event>
12    6  0.1530720E-007  0.1084100E+04  0.7818608E-02  0.9220829E-01
          2   -1    0    0  501    0  0.00000000000E+00  0.00000000000E+00  0.12521891455E+04  0.12521891455E+04  0.00000000000E+00 0. -1.
         -1   -1    0    0    0  501 -0.00000000000E+00 -0.00000000000E+00 -0.23464351099E+03  0.23464351099E+03  0.00000000000E+00 0.  1.
         24    2    1    2    0    0  0.10154968305E+03 -0.80848516348E+02  0.46562420974E+02  0.15934014134E+03  0.79827319076E+02 0.  0.
        254    2    1    2    0    0 -0.10154968305E+03  0.80848516348E+02  0.97098321351E+03  0.13274925151E+04  0.89586782288E+03 0.  0.
         23    2    4    4    0    0 -0.44844708644E+03 -0.22438294396E+02  0.26507957585E+03  0.52961346825E+03  0.92816904871E+02 0.  0.
         23    2    4    4    0    0  0.34689740339E+03  0.10328681074E+03  0.70590363766E+03  0.79787904687E+03  0.85469608772E+02 0.  0.
          4    1    3    3  502    0 -0.13455726004E+02 -0.12224378840E+02  0.24788167641E+01  0.18347657422E+02  0.00000000000E+00 0. -1.
         -3    1    3    3    0  502  0.11500540905E+03 -0.68624137508E+02  0.44083604210E+02  0.14099248391E+03  0.00000000000E+00 0.  1.
         11    1    5    5    0    0 -0.42923768248E+03 -0.41060744551E+02  0.24320699946E+03  0.49505617600E+03  0.00000000000E+00 0.  1.
        -11    1    5    5    0    0 -0.19209403959E+02  0.18622450155E+02  0.21872576389E+02  0.34557292257E+02  0.00000000000E+00 0. -1.
          2    1    6    6  503    0  0.34607421664E+03  0.11153217643E+03  0.68916487477E+03  0.77920152362E+03  0.00000000000E+00 0.  1.
         -2    1    6    6    0  503  0.82318675286E+00 -0.82453656812E+01  0.16738762890E+02  0.18677523249E+02  0.00000000000E+00 0. -1.
<mgrwt>
<rscale>  0 0.10840997E+04</rscale>
<asrwt>0</asrwt>
<pdfrwt beam="1">  1        2 0.19264448E+00 0.10840997E+04</pdfrwt>
<pdfrwt beam="2">  1       -1 0.36099002E-01 0.10840997E+04</pdfrwt>
<totfact> 0.14646680E+02</totfact>
</mgrwt>
</event>
<event>
12    6  0.1530720E-007  0.1202700E+04  0.7818608E-02  0.9110496E-01
          4   -1    0    0  501    0  0.00000000000E+00  0.00000000000E+00  0.46744238445E+03  0.46744238445E+03  0.00000000000E+00 0. -1.
         -1   -1    0    0    0  501 -0.00000000000E+00 -0.00000000000E+00 -0.77361798985E+03  0.77361798985E+03  0.00000000000E+00 0.  1.
         24    2    1    2    0    0 -0.54886708676E+02 -0.17808764827E+02  0.18255859039E+03  0.20758984854E+03  0.80225952136E+02 0.  0.
        254    2    1    2    0    0  0.54886708676E+02  0.17808764827E+02 -0.48873419579E+03  0.10334705258E+04  0.90877418020E+03 0.  0.
         23    2    4    4    0    0  0.29698375306E+03  0.33632971388E+03 -0.10018189608E+03  0.46853928018E+03  0.90419128244E+02 0.  0.
         23    2    4    4    0    0 -0.24209704439E+03 -0.31852094905E+03 -0.38855229971E+03  0.56493124558E+03  0.90043593524E+02 0.  0.
          4    1    3    3  502    0 -0.16908877040E+02 -0.47343206593E+02  0.10305053161E+03  0.11465906592E+03  0.00000000000E+00 0. -1.
         -3    1    3    3    0  502 -0.37977831635E+02  0.29534441766E+02  0.79508058779E+02  0.92930782612E+02  0.00000000000E+00 0.  1.
         11    1    5    5    0    0  0.16328254123E+03  0.22343914444E+03 -0.24296236258E+02  0.27780667133E+03  0.00000000000E+00 0.  1.
        -11    1    5    5    0    0  0.13370121184E+03  0.11289056944E+03 -0.75885659824E+02  0.19073260886E+03  0.00000000000E+00 0. -1.
          3    1    6    6  503    0 -0.12508137187E+03 -0.94321904253E+02 -0.13474767182E+03  0.20663713672E+03  0.00000000000E+00 0. -1.
         -3    1    6    6    0  503 -0.11701567251E+03 -0.22419904480E+03 -0.25380462789E+03  0.35829410886E+03  0.00000000000E+00 0.  1.
<mgrwt>
<rscale>  0 0.12027000E+04</rscale>
<asrwt>0</asrwt>
<pdfrwt beam="1">  1        4 0.71914214E-01 0.12027000E+04</pdfrwt>
<pdfrwt beam="2">  1       -1 0.11901815E+00 0.12027000E+04</pdfrwt>
<totfact> 0.45762252E+00</totfact>
</mgrwt>
</event>
<event>
12    6  0.1530720E-007  0.1714070E+04  0.7818608E-02  0.8753380E-01
          2   -1    0    0  501    0  0.00000000000E+00  0.00000000000E+00  0.19543628012E+04  0.19543628012E+04  0.00000000000E+00 0. -1.
         -1   -1    0    0    0  501 -0.00000000000E+00 -0.00000000000E+00 -0.37583033444E+03  0.37583033444E+03  0.00000000000E+00 0.  1.
         24    2    1    2    0    0  0.13669882785E+03 -0.47904373958E+03  0.70136027239E+02  0.50941774456E+03  0.80111810514E+02 0.  0.
        254    2    1    2    0    0 -0.13669882785E+03  0.47904373958E+03  0.15083964395E+04  0.18207753911E+04  0.88982792274E+03 0.  0.
         23    2    4    4    0    0 -0.22593824589E+03  0.62057210516E+03  0.61686606008E+03  0.90830422898E+03  0.91296263032E+02 0.  0.
         23    2    4    4    0    0  0.89239418038E+02 -0.14152836557E+03  0.89153037946E+03  0.91247116213E+03  0.98910324198E+02 0.  0.
          2    1    3    3  502    0  0.72361883579E+01 -0.62034322320E+01 -0.86654039030E+01  0.12881545645E+02  0.00000000000E+00 0. -1.
         -1    1    3    3    0  502  0.12946263949E+03 -0.47284030735E+03  0.78801431142E+02  0.49653619891E+03  0.00000000000E+00 0.  1.
         11    1    5    5    0    0 -0.25231075731E+02  0.16614086703E+03  0.12715796046E+03  0.21073334285E+03  0.00000000000E+00 0. -1.
        -11    1    5    5    0    0 -0.20070717016E+03  0.45443123813E+03  0.48970809963E+03  0.69757088613E+03  0.00000000000E+00 0.  1.
          2    1    6    6  503    0  0.49124234277E+02 -0.14593834961E+03  0.70072343973E+03  0.71744305088E+03  0.00000000000E+00 0. -1.
         -2    1    6    6    0  503  0.40115183760E+02  0.44099840350E+01  0.19080693973E+03  0.19502811125E+03  0.00000000000E+00 0.  1.
<mgrwt>
<rscale>  0 0.17140698E+04</rscale>
<asrwt>0</asrwt>
<pdfrwt beam="1">  1        2 0.30067120E+00 0.17140698E+04</pdfrwt>
<pdfrwt beam="2">  1       -1 0.57820052E-01 0.17140698E+04</pdfrwt>
<totfact> 0.23236485E+01</totfact>
</mgrwt>
</event>
<event>
12    6  0.1530720E-007  0.2489250E+04  0.7818608E-02  0.8406825E-01
          2   -1    0    0  501    0  0.00000000000E+00  0.00000000000E+00  0.21289168891E+04  0.21289168891E+04  0.00000000000E+00 0. -1.
         -1   -1    0    0    0  501 -0.00000000000E+00 -0.00000000000E+00 -0.72764310726E+03  0.72764310726E+03  0.00000000000E+00 0.  1.
         24    2    1    2    0    0  0.47901114697E+03 -0.29826160741E+03  0.16646400501E+04  0.17594439913E+04  0.78771801082E+02 0.  0.
        254    2    1    2    0    0 -0.47901114697E+03  0.29826160741E+03 -0.26336626827E+03  0.10971160051E+04  0.90326633503E+03 0.  0.
         23    2    4    4    0    0 -0.21569360108E+02  0.50326052162E+03  0.23975575684E+02  0.51245183229E+03  0.91080526287E+02 0.  0.
         23    2    4    4    0    0 -0.45744178686E+03 -0.20499891422E+03 -0.28734184395E+03  0.58466417280E+03  0.89382976410E+02 0.  0.
          4    1    3    3  502    0  0.13355270175E+03 -0.10767125554E+03  0.60020703772E+03  0.62424186943E+03  0.00000000000E+00 0. -1.
         -3    1    3    3    0  502  0.34545844522E+03 -0.19059035187E+03  0.10644330124E+04  0.11352021219E+04  0.00000000000E+00 0.  1.
         11    1    5    5    0    0 -0.28131988057E+01  0.53422218304E+02  0.31649337737E+02  0.62157284973E+02  0.00000000000E+00 0. -1.
        -11    1    5    5    0    0 -0.18756161302E+02  0.44983830332E+03 -0.76737620527E+01  0.45029454732E+03  0.00000000000E+00 0.  1.
          1    1    6    6  503    0 -0.15507332768E+03 -0.80364783393E+02 -0.14892152224E+03  0.22952963894E+03  0.00000000000E+00 0. -1.
         -1    1    6    6    0  503 -0.30236845918E+03 -0.12463413083E+03 -0.13842032172E+03  0.35513453386E+03  0.00000000000E+00 0.  1.
<mgrwt>
<rscale>  0 0.24892502E+04</rscale>
<asrwt>0</asrwt>
<pdfrwt beam="1">  1        2 0.32752567E+00 0.24892502E+04</pdfrwt>
<pdfrwt beam="2">  1       -1 0.11194509E+00 0.24892502E+04</pdfrwt>
<totfact> 0.42083105E+00</totfact>
</mgrwt>
</event>
<event>
12    6  0.1666906E-007  0.2549301E+04  0.7818608E-02  0.8385629E-01
         -1   -1    0    0    0  501 -0.00000000000E+00  0.00000000000E+00  0.92244232538E+03  0.92244232538E+03  0.00000000000E+00 0.  1.
          2   -1    0    0  501    0  0.00000000000E+00 -0.00000000000E+00 -0.17613392433E+04  0.17613392433E+04  0.00000000000E+00 0. -1.
         24    2    1    2    0    0 -0.65322624958E+03 -0.34446106788E+03  0.51004032195E+03  0.90109506895E+03  0.80456403362E+02 0.  0.
        254    2    1    2    0    0  0.65322624958E+03  0.34446106788E+03 -0.13489372398E+04  0.17826864997E+04  0.90165487785E+03 0.  0.
         23    2    4    4    0    0  0.14022008817E+03  0.33328068803E+03 -0.11770220297E+04  0.12345206460E+04  0.89009420483E+02 0.  0.
         23    2    4    4    0    0  0.51300616141E+03  0.11180379855E+02 -0.17191521019E+03  0.54816585371E+03  0.87353541102E+02 0.  0.
          2    1    3    3  502    0 -0.73935699393E+02 -0.12276672116E+02  0.46460521014E+02  0.88180407891E+02  0.00000000000E+00 0. -1.
         -1    1    3    3    0  502 -0.57929055019E+03 -0.33218439577E+03  0.46357980093E+03  0.81291466106E+03  0.00000000000E+00 0.  1.
         11    1    5    5    0    0 -0.55095936882E+01  0.30387873429E+02 -0.53261547213E+02  0.61567612311E+02  0.00000000000E+00 0. -1.
        -11    1    5    5    0    0  0.14572968186E+03  0.30289281460E+03 -0.11237604824E+04  0.11729530337E+04  0.00000000000E+00 0.  1.
          1    1    6    6  503    0  0.27490461307E+02  0.81365523395E+01  0.89705718113E+01  0.30039975124E+02  0.00000000000E+00 0. -1.
         -1    1    6    6    0  503  0.48551570010E+03  0.30438275152E+01 -0.18088578200E+03  0.51812587859E+03  0.00000000000E+00 0.  1.
<mgrwt>
<rscale>  0 0.25493010E+04</rscale>
<asrwt>0</asrwt>
<pdfrwt beam="1">  1        2 0.27097526E+00 0.25493010E+04</pdfrwt>
<pdfrwt beam="2">  1       -1 0.14191421E+00 0.25493010E+04</pdfrwt>
<totfact> 0.37078916E+00</totfact>
</mgrwt>
</event>
<event>
12    6  0.1530720E-007  0.2552898E+04  0.7818608E-02  0.8384379E-01
          2   -1    0    0  501    0  0.00000000000E+00  0.00000000000E+00  0.14291371252E+04  0.14291371252E+04  0.00000000000E+00 0. -1.
         -1   -1    0    0    0  501 -0.00000000000E+00 -0.00000000000E+00 -0.11400743946E+04  0.11400743946E+04  0.00000000000E+00 0.  1.
         24    2    1    2    0    0  0.32150910587E+02 -0.17152076607E+03 -0.98504633636E+03  0.10038366598E+04  0.83178726286E+02 0.  0.
        254    2    1    2    0    0 -0.32150910587E+02  0.17152076607E+03  0.12741090670E+04  0.15653748599E+04  0.89251973835E+03 0.  0.
         23    2    4    4    0    0  0.21269908541E+03  0.44693352926E+03  0.91173916755E+03  0.10413891038E+04  0.90732989388E+02 0.  0.
         23    2    4    4    0    0 -0.24484999599E+03 -0.27541276319E+03  0.36236989942E+03  0.52398575614E+03  0.86286835406E+02 0.  0.
          4    1    3    3  502    0  0.22374608877E+02 -0.14512665993E+03 -0.59787100039E+03  0.61563958909E+03  0.00000000000E+00 0. -1.
         -3    1    3    3    0  502  0.97763017099E+01 -0.26394106137E+02 -0.38717533597E+03  0.38819707070E+03  0.00000000000E+00 0.  1.
         11    1    5    5    0    0  0.10990229904E+03  0.32158437426E+03  0.65089460808E+03  0.73427434650E+03  0.00000000000E+00 0. -1.
        -11    1    5    5    0    0  0.10279678637E+03  0.12534915500E+03  0.26084455946E+03  0.30711475729E+03  0.00000000000E+00 0.  1.
          3    1    6    6  503    0 -0.20411456798E+03 -0.24523431681E+03  0.26726644076E+03  0.41621386012E+03  0.00000000000E+00 0. -1.
         -3    1    6    6    0  503 -0.40735428013E+02 -0.30178446382E+02  0.95103458665E+02  0.10777189602E+03  0.00000000000E+00 0.  1.
<mgrwt>
<rscale>  0 0.25528985E+04</rscale>
<asrwt>0</asrwt>
<pdfrwt beam="1">  1        2 0.21986725E+00 0.25528985E+04</pdfrwt>
<pdfrwt beam="2">  1       -1 0.17539606E+00 0.25528985E+04</pdfrwt>
<totfact> 0.31653278E+00</totfact>
</mgrwt>
</event>
<event>
12    6  0.1530720E-007  0.1943338E+04  0.7818608E-02  0.8633580E-01
          2   -1    0    0  501    0  0.00000000000E+00  0.00000000000E+00  0.14084846363E+04  0.14084846363E+04  0.00000000000E+00 0. -1.
         -1   -1    0    0    0  501 -0.00000000000E+00 -0.00000000000E+00 -0.67032393580E+03  0.67032393580E+03  0.00000000000E+00 0.  1.
         24    2    1    2    0    0 -0.27265683861E+03  0.35301901098E+03  0.89804803174E+03  0.10062283015E+04  0.83910390332E+02 0.  0.
        254    2    1    2    0    0  0.27265683861E+03 -0.35301901098E+03 -0.15988733119E+03  0.10725802707E+04  0.96223713534E+03 0.  0.
         23    2    4    4    0    0  0.41123402436E+03 -0.52300466842E+03 -0.35967506318E+03  0.76192337027E+03  0.92270066132E+02 0.  0.
         23    2    4    4    0    0 -0.13857718575E+03  0.16998565745E+03  0.19978773199E+03  0.31065690041E+03  0.92161878058E+02 0.  0.
          4    1    3    3  502    0 -0.25969576468E+03  0.34110629253E+03  0.81021102910E+03  0.91664459017E+03  0.00000000000E+00 0. -1.
         -3    1    3    3    0  502 -0.12961073932E+02  0.11912718444E+02  0.87837002639E+02  0.89583711302E+02  0.00000000000E+00 0.  1.
         11    1    5    5    0    0  0.34561011426E+03 -0.44967069654E+03 -0.34098252194E+03  0.66175461213E+03  0.00000000000E+00 0.  1.
        -11    1    5    5    0    0  0.65623910104E+02 -0.73333971886E+02 -0.18692541239E+02  0.10016875814E+03  0.00000000000E+00 0. -1.
          4    1    6    6  503    0 -0.38792548473E+02 -0.93047831014E+00  0.44879417089E+02  0.59328658211E+02  0.00000000000E+00 0. -1.
         -4    1    6    6    0  503 -0.99784637281E+02  0.17091613576E+03  0.15490831490E+03  0.25132824219E+03  0.00000000000E+00 0.  1.
<mgrwt>
<rscale>  0 0.19433383E+04</rscale>
<asrwt>0</asrwt>
<pdfrwt beam="1">  1        2 0.21668994E+00 0.19433383E+04</pdfrwt>
<pdfrwt beam="2">  1       -1 0.10312676E+00 0.19433383E+04</pdfrwt>
<totfact> 0.13512522E+01</totfact>
</mgrwt>
</event>
<event>
12    6  0.1530720E-007  0.1880594E+04  0.7818608E-02  0.8664577E-01
          2   -1    0    0  501    0  0.00000000000E+00  0.00000000000E+00  0.19210026338E+04  0.19210026338E+04  0.00000000000E+00 0. -1.
         -1   -1    0    0    0  501 -0.00000000000E+00 -0.00000000000E+00 -0.46025902841E+03  0.46025902841E+03  0.00000000000E+00 0.  1.
         24    2    1    2    0    0  0.12563174139E+03 -0.21995568043E+03 -0.29322266372E+03  0.39601905422E+03  0.81778511783E+02 0.  0.
        254    2    1    2    0    0 -0.12563174139E+03  0.21995568043E+03  0.17539662691E+04  0.19852426080E+04  0.89477746037E+03 0.  0.
         23    2    4    4    0    0 -0.18846210336E+03 -0.79688876945E+02  0.18452531207E+02  0.22061664879E+03  0.80392339827E+02 0.  0.
         23    2    4    4    0    0  0.62830361971E+02  0.29964455738E+03  0.17355137379E+04  0.17646259592E+04  0.90345593511E+02 0.  0.
          4    1    3    3  502    0  0.53138872138E+02 -0.36154024011E+02 -0.43601941960E+02  0.77665838867E+02  0.00000000000E+00 0. -1.
         -3    1    3    3    0  502  0.72492869255E+02 -0.18380165642E+03 -0.24962072176E+03  0.31835321535E+03  0.00000000000E+00 0.  1.
         11    1    5    5    0    0 -0.73501764254E+02 -0.74143662806E+02  0.14970941339E+02  0.10547000127E+03  0.00000000000E+00 0. -1.
        -11    1    5    5    0    0 -0.11496033911E+03 -0.55452141396E+01  0.34815898677E+01  0.11514664752E+03  0.00000000000E+00 0.  1.
          1    1    6    6  503    0  0.39775746595E+02  0.27270737846E+03  0.13732274786E+04  0.14006088434E+04  0.00000000000E+00 0. -1.
         -1    1    6    6    0  503  0.23054615376E+02  0.26937178913E+02  0.36228625927E+03  0.36401711574E+03  0.00000000000E+00 0.  1.
<mgrwt>
<rscale>  0 0.18805944E+04</rscale>
<asrwt>0</asrwt>
<pdfrwt beam="1">  1        2 0.29553886E+00 0.18805944E+04</pdfrwt>
<pdfrwt beam="2">  1       -1 0.70809082E-01 0.18805944E+04</pdfrwt>
<totfact> 0.15910017E+01</totfact>
</mgrwt>
</event>
<event>
12    6  0.1530720E-007  0.1550264E+04  0.7818608E-02  0.8851699E-01
          2   -1    0    0  501    0  0.00000000000E+00  0.00000000000E+00  0.25395089433E+04  0.25395089433E+04  0.00000000000E+00 0. -1.
         -1   -1    0    0    0  501 -0.00000000000E+00 -0.00000000000E+00 -0.23659289339E+03  0.23659289339E+03  0.00000000000E+00 0.  1.
         24    2    1    2    0    0  0.27763472328E+03 -0.58027488717E+02  0.11822481632E+02  0.29474525988E+03  0.79289142578E+02 0.  0.
        254    2    1    2    0    0 -0.27763472328E+03  0.58027488717E+02  0.22910935683E+04  0.24813565769E+04  0.90971011521E+03 0.  0.
         23    2    4    4    0    0 -0.47106582321E+03 -0.11869841059E+03  0.64748699728E+03  0.81465010270E+03  0.91777206907E+02 0.  0.
         23    2    4    4    0    0  0.19343109993E+03  0.17672589930E+03  0.16436065710E+04  0.16667064742E+04  0.88432328679E+02 0.  0.
          2    1    3    3  502    0  0.12762570667E+02  0.80235913346E+01 -0.13961019540E+02  0.20546807405E+02  0.00000000000E+00 0. -1.
         -1    1    3    3    0  502  0.26487215261E+03 -0.66051080052E+02  0.25783501172E+02  0.27419845247E+03  0.00000000000E+00 0.  1.
         11    1    5    5    0    0 -0.15750458170E+03 -0.79480159311E+02  0.19796442060E+03  0.26516919279E+03  0.00000000000E+00 0.  1.
        -11    1    5    5    0    0 -0.31356124151E+03 -0.39218251275E+02  0.44952257668E+03  0.54948090991E+03  0.00000000000E+00 0. -1.
          3    1    6    6  503    0  0.80736347276E+02  0.45784463552E+02  0.37131523921E+03  0.38273957431E+03  0.00000000000E+00 0. -1.
         -3    1    6    6    0  503  0.11269475265E+03  0.13094143575E+03  0.12722913318E+04  0.12839668999E+04  0.00000000000E+00 0.  1.
<mgrwt>
<rscale>  0 0.15502642E+04</rscale>
<asrwt>0</asrwt>
<pdfrwt beam="1">  1        2 0.39069367E+00 0.15502642E+04</pdfrwt>
<pdfrwt beam="2">  1       -1 0.36398908E-01 0.15502642E+04</pdfrwt>
<totfact> 0.26242068E+01</totfact>
</mgrwt>
</event>
<event>
12    6  0.1530720E-007  0.2721366E+04  0.7818608E-02  0.8328106E-01
         -1   -1    0    0    0  501 -0.00000000000E+00  0.00000000000E+00  0.12336620683E+04  0.12336620683E+04  0.00000000000E+00 0.  1.
          2   -1    0    0  501    0  0.00000000000E+00 -0.00000000000E+00 -0.15007818549E+04  0.15007818549E+04  0.00000000000E+00 0. -1.
         24    2    1    2    0    0 -0.70447015453E+03  0.25668967946E+03 -0.10744807755E+04  0.13131145112E+04  0.87137778141E+02 0.  0.
        254    2    1    2    0    0  0.70447015453E+03 -0.25668967946E+03  0.80736098891E+03  0.14213294120E+04  0.89787401161E+03 0.  0.
         23    2    4    4    0    0  0.20263797849E+03 -0.82578753479E+02 -0.17937886394E+03  0.29719445181E+03  0.90919549637E+02 0.  0.
         23    2    4    4    0    0  0.50183217605E+03 -0.17411092598E+03  0.98673985285E+03  0.11241349602E+04  0.88734006862E+02 0.  0.
          4    1    3    3  502    0 -0.40673138928E+03  0.11238806277E+03 -0.64917697838E+03  0.77426884797E+03  0.00000000000E+00 0. -1.
         -3    1    3    3    0  502 -0.29773876525E+03  0.14430161669E+03 -0.42530379715E+03  0.53884566323E+03  0.00000000000E+00 0.  1.
         11    1    5    5    0    0  0.17989677620E+03 -0.86767761505E+02 -0.18622616806E+03  0.27307815766E+03  0.00000000000E+00 0.  1.
        -11    1    5    5    0    0  0.22741202286E+02  0.41890080262E+01  0.68473041158E+01  0.24116294145E+02  0.00000000000E+00 0. -1.
          4    1    6    6  503    0  0.10663295579E+03 -0.77040036853E+02  0.23512214429E+03  0.26942193169E+03  0.00000000000E+00 0. -1.
         -4    1    6    6    0  503  0.39519922025E+03 -0.97070889128E+02  0.75161770856E+03  0.85471302846E+03  0.00000000000E+00 0.  1.
<mgrwt>
<rscale>  0 0.27213656E+04</rscale>
<asrwt>0</asrwt>
<pdfrwt beam="1">  1        2 0.23088951E+00 0.27213656E+04</pdfrwt>
<pdfrwt beam="2">  1       -1 0.18979417E+00 0.27213656E+04</pdfrwt>
<totfact> 0.22422991E+00</totfact>
</mgrwt>
</event>
<event>
12    6  0.1530720E-007  0.3078482E+04  0.7818608E-02  0.8221668E-01
         -1   -1    0    0    0  501 -0.00000000000E+00  0.00000000000E+00  0.24013037858E+04  0.24013037858E+04  0.00000000000E+00 0.  1.
          2   -1    0    0  501    0  0.00000000000E+00 -0.00000000000E+00 -0.98665660359E+03  0.98665660359E+03  0.00000000000E+00 0. -1.
         24    2    1    2    0    0  0.11660417228E+04  0.66584641166E+03  0.17585522148E+03  0.13559799234E+04  0.68932941381E+02 0.  0.
        254    2    1    2    0    0 -0.11660417228E+04 -0.66584641166E+03  0.12387919607E+04  0.20319804660E+04  0.88956975503E+03 0.  0.
         23    2    4    4    0    0 -0.70943915586E+03  0.27397002630E+02  0.84845718414E+03  0.11100634767E+04  0.91141742734E+02 0.  0.
         23    2    4    4    0    0 -0.45660256695E+03 -0.69324341429E+03  0.39033477658E+03  0.92191698936E+03  0.92181136103E+02 0.  0.
          2    1    3    3  502    0  0.96535738359E+03  0.56483836400E+03  0.16939138720E+03  0.11312164680E+04  0.00000000000E+00 0. -1.
         -1    1    3    3    0  502  0.20068433922E+03  0.10100804766E+03  0.64638342788E+01  0.22476345534E+03  0.00000000000E+00 0.  1.
         11    1    5    5    0    0 -0.19818562084E+03  0.42183385919E+02  0.27612807125E+03  0.34249626288E+03  0.00000000000E+00 0. -1.
        -11    1    5    5    0    0 -0.51125353502E+03 -0.14786383289E+02  0.57232911289E+03  0.76756721377E+03  0.00000000000E+00 0.  1.
          3    1    6    6  503    0 -0.11895681691E+03 -0.11718664443E+03  0.91069121767E+02  0.19020257322E+03  0.00000000000E+00 0. -1.
         -3    1    6    6    0  503 -0.33764575004E+03 -0.57605676986E+03  0.29926565481E+03  0.73171441613E+03  0.00000000000E+00 0.  1.
<mgrwt>
<rscale>  0 0.30784816E+04</rscale>
<asrwt>0</asrwt>
<pdfrwt beam="1">  1        2 0.15179332E+00 0.30784816E+04</pdfrwt>
<pdfrwt beam="2">  1       -1 0.36943135E+00 0.30784816E+04</pdfrwt>
<totfact> 0.28692691E-01</totfact>
</mgrwt>
</event>
<event>
12    6  0.1530720E-007  0.1348284E+04  0.7818608E-02  0.8992128E-01
          2   -1    0    0  501    0  0.00000000000E+00  0.00000000000E+00  0.29935162821E+04  0.29935162821E+04  0.00000000000E+00 0. -1.
         -1   -1    0    0    0  501 -0.00000000000E+00 -0.00000000000E+00 -0.15181723397E+03  0.15181723397E+03  0.00000000000E+00 0.  1.
         24    2    1    2    0    0 -0.98563420658E+02  0.95369343812E+02  0.15017344049E+04  0.15100903993E+04  0.79729113897E+02 0.  0.
        254    2    1    2    0    0  0.98563420658E+02 -0.95369343812E+02  0.13399646432E+04  0.16352431167E+04  0.92720264566E+03 0.  0.
         23    2    4    4    0    0  0.39584538505E+03 -0.18214417078E+03  0.12075468529E+04  0.12869674429E+04  0.90805997646E+02 0.  0.
         23    2    4    4    0    0 -0.29728196439E+03  0.86774826967E+02  0.13241779028E+03  0.34827567385E+03  0.88628645847E+02 0.  0.
          4    1    3    3  502    0  0.75525644970E+01  0.35989640517E+02  0.38704385801E+03  0.38878688697E+03  0.00000000000E+00 0. -1.
         -3    1    3    3    0  502 -0.10611598516E+03  0.59379703296E+02  0.11146905469E+04  0.11213035123E+04  0.00000000000E+00 0.  1.
         11    1    5    5    0    0  0.35575867362E+03 -0.13091973490E+03  0.10589707303E+04  0.11247769638E+04  0.00000000000E+00 0. -1.
        -11    1    5    5    0    0  0.40086711431E+02 -0.51224435877E+02  0.14857612267E+03  0.16219047904E+03  0.00000000000E+00 0.  1.
          3    1    6    6  503    0 -0.23739418696E+03  0.41640883199E+02  0.12861582157E+03  0.27318856622E+03  0.00000000000E+00 0. -1.
         -3    1    6    6    0  503 -0.59887777431E+02  0.45133943768E+02  0.38019687089E+01  0.75087107626E+02  0.00000000000E+00 0.  1.
<mgrwt>
<rscale>  0 0.13482839E+04</rscale>
<asrwt>0</asrwt>
<pdfrwt beam="1">  1        2 0.46054092E+00 0.13482839E+04</pdfrwt>
<pdfrwt beam="2">  1       -1 0.23356500E-01 0.13482839E+04</pdfrwt>
<totfact> 0.31083542E+01</totfact>
</mgrwt>
</event>
<event>
12    6  0.1530720E-007  0.1681657E+04  0.7818608E-02  0.8771896E-01
          2   -1    0    0  501    0  0.00000000000E+00  0.00000000000E+00  0.14474176092E+04  0.14474176092E+04  0.00000000000E+00 0. -1.
         -1   -1    0    0    0  501 -0.00000000000E+00 -0.00000000000E+00 -0.48845103175E+03  0.48845103175E+03  0.00000000000E+00 0.  1.
         24    2    1    2    0    0 -0.27886875644E+02 -0.48958803205E+03 -0.43738418565E+02  0.49982309070E+03  0.86231976547E+02 0.  0.
        254    2    1    2    0    0  0.27886875644E+02  0.48958803205E+03  0.10027049960E+04  0.14360455502E+04  0.90351280809E+03 0.  0.
         23    2    4    4    0    0  0.12988638534E+03  0.72098519684E+03  0.59912104264E+03  0.95110658881E+03  0.94697372641E+02 0.  0.
         23    2    4    4    0    0 -0.10199950969E+03 -0.23139716479E+03  0.40358395337E+03  0.48493896144E+03  0.91308493862E+02 0.  0.
          2    1    3    3  502    0  0.10153860826E+02 -0.35819710514E+03 -0.79384147813E+01  0.35842891269E+03  0.00000000000E+00 0. -1.
         -1    1    3    3    0  502 -0.38040736470E+02 -0.13139092691E+03 -0.35800003783E+02  0.14139417801E+03  0.00000000000E+00 0.  1.
         11    1    5    5    0    0  0.12168643416E+03  0.47775434857E+03  0.36511551796E+03  0.61348687622E+03  0.00000000000E+00 0. -1.
        -11    1    5    5    0    0  0.81999511725E+01  0.24323084826E+03  0.23400552468E+03  0.33761971258E+03  0.00000000000E+00 0.  1.
          3    1    6    6  503    0 -0.11766324374E+03 -0.19601239796E+03  0.36189984925E+03  0.42806191137E+03  0.00000000000E+00 0. -1.
         -3    1    6    6    0  503  0.15663734046E+02 -0.35384766821E+02  0.41684104122E+02  0.56877050062E+02  0.00000000000E+00 0.  1.
<mgrwt>
<rscale>  0 0.16816571E+04</rscale>
<asrwt>0</asrwt>
<pdfrwt beam="1">  1        2 0.22267963E+00 0.16816571E+04</pdfrwt>
<pdfrwt beam="2">  1       -1 0.75146313E-01 0.16816571E+04</pdfrwt>
<totfact> 0.26290431E+01</totfact>
</mgrwt>
</event>
<event>
12    6  0.1530720E-007  0.1732338E+04  0.7818608E-02  0.8743133E-01
          2   -1    0    0  501    0  0.00000000000E+00  0.00000000000E+00  0.18354687109E+04  0.18354687109E+04  0.00000000000E+00 0. -1.
         -1   -1    0    0    0  501 -0.00000000000E+00 -0.00000000000E+00 -0.40875065338E+03  0.40875065338E+03  0.00000000000E+00 0.  1.
         24    2    1    2    0    0  0.61579651728E+03  0.10917970279E+03  0.45354397219E+03  0.77711443675E+03  0.84137713883E+02 0.  0.
        254    2    1    2    0    0 -0.61579651728E+03 -0.10917970279E+03  0.97317408530E+03  0.14671049275E+04  0.90233226131E+03 0.  0.
         23    2    4    4    0    0 -0.75646774516E+03 -0.24087813087E+03  0.48623067418E+03  0.93546897194E+03  0.91739879810E+02 0.  0.
         23    2    4    4    0    0  0.14067122789E+03  0.13169842808E+03  0.48694341112E+03  0.53163595556E+03  0.91597124927E+02 0.  0.
          2    1    3    3  502    0  0.25818006108E+03  0.58545086205E+02  0.24119262090E+03  0.35813175150E+03  0.00000000000E+00 0. -1.
         -1    1    3    3    0  502  0.35761645619E+03  0.50634616585E+02  0.21235135129E+03  0.41898268524E+03  0.00000000000E+00 0.  1.
         11    1    5    5    0    0 -0.58571778700E+03 -0.18246761377E+03  0.41888183327E+03  0.74284705447E+03  0.00000000000E+00 0. -1.
        -11    1    5    5    0    0 -0.17074995816E+03 -0.58410517102E+02  0.67348840912E+02  0.19262191748E+03  0.00000000000E+00 0.  1.
          3    1    6    6  503    0  0.71073686856E+02  0.10421504609E+02  0.13476452055E+03  0.15271395719E+03  0.00000000000E+00 0. -1.
         -3    1    6    6    0  503  0.69597541032E+02  0.12127692347E+03  0.35217889056E+03  0.37892199836E+03  0.00000000000E+00 0.  1.
<mgrwt>
<rscale>  0 0.17323383E+04</rscale>
<asrwt>0</asrwt>
<pdfrwt beam="1">  1        2 0.28237980E+00 0.17323383E+04</pdfrwt>
<pdfrwt beam="2">  1       -1 0.62884717E-01 0.17323383E+04</pdfrwt>
<totfact> 0.22864946E+01</totfact>
</mgrwt>
</event>
<event>
12    6  0.1530720E-007  0.1394810E+04  0.7818608E-02  0.8957584E-01
         -1   -1    0    0    0  501 -0.00000000000E+00  0.00000000000E+00  0.46805582243E+03  0.46805582243E+03  0.00000000000E+00 0.  1.
          2   -1    0    0  501    0  0.00000000000E+00 -0.00000000000E+00 -0.10391364176E+04  0.10391364176E+04  0.00000000000E+00 0. -1.
         24    2    1    2    0    0 -0.31552839086E+03  0.98880177253E+02  0.82838117025E+02  0.35001671751E+03  0.79461273688E+02 0.  0.
        254    2    1    2    0    0  0.31552839086E+03 -0.98880177253E+02 -0.65391871215E+03  0.11571755225E+04  0.89560596962E+03 0.  0.
         23    2    4    4    0    0 -0.17995970373E+03 -0.19606550898E+03  0.51493536079E+02  0.28521047179E+03  0.88691883386E+02 0.  0.
         23    2    4    4    0    0  0.49548809459E+03  0.97185331727E+02 -0.70541224823E+03  0.87196505069E+03  0.88108847901E+02 0.  0.
          2    1    3    3  502    0 -0.20298190689E+03  0.93298519950E+02  0.29468318339E+02  0.22533231045E+03  0.00000000000E+00 0. -1.
         -1    1    3    3    0  502 -0.11254648397E+03  0.55816573036E+01  0.53369798686E+02  0.12468440706E+03  0.00000000000E+00 0.  1.
         11    1    5    5    0    0 -0.91352683856E+00 -0.42624361440E+02 -0.44472981156E+01  0.42865477718E+02  0.00000000000E+00 0.  1.
        -11    1    5    5    0    0 -0.17904617689E+03 -0.15344114754E+03  0.55940834195E+02  0.24234499407E+03  0.00000000000E+00 0. -1.
          3    1    6    6  503    0  0.27357080630E+03  0.10640899776E+02 -0.35638127766E+03  0.44940163537E+03  0.00000000000E+00 0. -1.
         -3    1    6    6    0  503  0.22191728829E+03  0.86544431952E+02 -0.34903097057E+03  0.42256341532E+03  0.00000000000E+00 0.  1.
<mgrwt>
<rscale>  0 0.13948102E+04</rscale>
<asrwt>0</asrwt>
<pdfrwt beam="1">  1        2 0.15986714E+00 0.13948102E+04</pdfrwt>
<pdfrwt beam="2">  1       -1 0.72008588E-01 0.13948102E+04</pdfrwt>
<totfact> 0.51413881E+01</totfact>
</mgrwt>
</event>
<event>
12    6  0.1530720E-007  0.2049994E+04  0.7818608E-02  0.8583597E-01
         -1   -1    0    0    0  501 -0.00000000000E+00  0.00000000000E+00  0.78005870652E+03  0.78005870652E+03  0.00000000000E+00 0.  1.
          2   -1    0    0  501    0  0.00000000000E+00 -0.00000000000E+00 -0.13468452521E+04  0.13468452521E+04  0.00000000000E+00 0. -1.
         24    2    1    2    0    0 -0.29840360540E+03  0.57545659781E+03  0.29880551261E+03  0.71847901999E+03  0.82050960485E+02 0.  0.
        254    2    1    2    0    0  0.29840360540E+03 -0.57545659781E+03 -0.86559205819E+03  0.14084249386E+04  0.90233928702E+03 0.  0.
         23    2    4    4    0    0 -0.14901554132E+02  0.22703188529E+03 -0.20517434930E+03  0.31938653436E+03  0.90253595274E+02 0.  0.
         23    2    4    4    0    0  0.31330515954E+03 -0.80248848311E+03 -0.66041770889E+03  0.10890384043E+04  0.87779310081E+02 0.  0.
          4    1    3    3  502    0 -0.97366177164E+01  0.55744091977E+02  0.97110730227E+01  0.57415245833E+02  0.00000000000E+00 0. -1.
         -3    1    3    3    0  502 -0.28866698769E+03  0.51971250584E+03  0.28909443959E+03  0.66106377416E+03  0.00000000000E+00 0.  1.
         11    1    5    5    0    0 -0.12612503096E+02  0.45940172257E+02 -0.26751702541E+01  0.47715104497E+02  0.00000000000E+00 0.  1.
        -11    1    5    5    0    0 -0.22890510365E+01  0.18109171304E+03 -0.20249917905E+03  0.27167142986E+03  0.00000000000E+00 0. -1.
          1    1    6    6  503    0  0.19823930671E+03 -0.58859777388E+03 -0.44100654914E+03  0.76173022687E+03  0.00000000000E+00 0. -1.
         -1    1    6    6    0  503  0.11506585283E+03 -0.21389070923E+03 -0.21941115974E+03  0.32730817741E+03  0.00000000000E+00 0.  1.
<mgrwt>
<rscale>  0 0.20499935E+04</rscale>
<asrwt>0</asrwt>
<pdfrwt beam="1">  1        2 0.20720696E+00 0.20499935E+04</pdfrwt>
<pdfrwt beam="2">  1       -1 0.12000903E+00 0.20499935E+04</pdfrwt>
<totfact> 0.10136076E+01</totfact>
</mgrwt>
</event>
<event>
12    6  0.1530720E-007  0.1323284E+04  0.7818608E-02  0.9011302E-01
          2   -1    0    0  501    0  0.00000000000E+00  0.00000000000E+00  0.33020586967E+04  0.33020586967E+04  0.00000000000E+00 0. -1.
         -1   -1    0    0    0  501 -0.00000000000E+00 -0.00000000000E+00 -0.13257485351E+03  0.13257485351E+03  0.00000000000E+00 0.  1.
         24    2    1    2    0    0 -0.32185134075E+03  0.23686718646E+03  0.11221684077E+04  0.11940965433E+04  0.83128032040E+02 0.  0.
        254    2    1    2    0    0  0.32185134075E+03 -0.23686718646E+03  0.20473154355E+04  0.22405370070E+04  0.81780880269E+03 0.  0.
         23    2    4    4    0    0 -0.26152129820E+03 -0.18683116345E+02  0.71481590902E+03  0.76695294266E+03  0.92263666871E+02 0.  0.
         23    2    4    4    0    0  0.58337263895E+03 -0.21818407012E+03  0.13324995265E+04  0.14735840643E+04  0.89258513749E+02 0.  0.
          2    1    3    3  502    0 -0.30953582168E+03  0.20839034344E+03  0.98129537306E+03  0.10498474029E+04  0.00000000000E+00 0. -1.
         -1    1    3    3    0  502 -0.12315519072E+02  0.28476843021E+02  0.14087303469E+03  0.14424914038E+03  0.00000000000E+00 0.  1.
         11    1    5    5    0    0 -0.12749065246E+03 -0.33211445123E+02  0.24499159938E+03  0.27816856457E+03  0.00000000000E+00 0.  1.
        -11    1    5    5    0    0 -0.13403064574E+03  0.14528328778E+02  0.46982430964E+03  0.48878437809E+03  0.00000000000E+00 0. -1.
          1    1    6    6  503    0  0.48519350928E+03 -0.19605416449E+03  0.11804434898E+04  0.12912384790E+04  0.00000000000E+00 0. -1.
         -1    1    6    6    0  503  0.98179129667E+02 -0.22129905626E+02  0.15205603663E+03  0.18234558536E+03  0.00000000000E+00 0.  1.
<mgrwt>
<rscale>  0 0.13232837E+04</rscale>
<asrwt>0</asrwt>
<pdfrwt beam="1">  1        2 0.50800897E+00 0.13232837E+04</pdfrwt>
<pdfrwt beam="2">  1       -1 0.20396134E-01 0.13232837E+04</pdfrwt>
<totfact> 0.24887943E+01</totfact>
</mgrwt>
</event>
<event>
12    6  0.1530720E-007  0.2033286E+04  0.7818608E-02  0.8591214E-01
         -1   -1    0    0    0  501 -0.00000000000E+00  0.00000000000E+00  0.21253122770E+03  0.21253122770E+03  0.00000000000E+00 0.  1.
          2   -1    0    0  501    0  0.00000000000E+00 -0.00000000000E+00 -0.48631126529E+04  0.48631126529E+04  0.00000000000E+00 0. -1.
         24    2    1    2    0    0  0.77010129487E+03  0.24135535799E+03 -0.22814847645E+04  0.24213527220E+04  0.80423011516E+02 0.  0.
        254    2    1    2    0    0 -0.77010129487E+03 -0.24135535799E+03 -0.23690966607E+04  0.26542911585E+04  0.88393107954E+03 0.  0.
         23    2    4    4    0    0 -0.91827929692E+03 -0.10374163303E+03 -0.15620318145E+04  0.18172993861E+04  0.92921877847E+02 0.  0.
         23    2    4    4    0    0  0.14817800205E+03 -0.13761372497E+03 -0.80706484616E+03  0.83699177248E+03  0.91144411212E+02 0.  0.
          2    1    3    3  502    0  0.69113736949E+03  0.19455649783E+03 -0.20627774658E+04  0.21841643637E+04  0.00000000000E+00 0. -1.
         -1    1    3    3    0  502  0.78963925383E+02  0.46798860164E+02 -0.21870729867E+03  0.23718835831E+03  0.00000000000E+00 0.  1.
         11    1    5    5    0    0 -0.33627352083E+03  0.20083276397E+01 -0.60643223170E+03  0.69342913541E+03  0.00000000000E+00 0. -1.
        -11    1    5    5    0    0 -0.58200577609E+03 -0.10574996067E+03 -0.95559958285E+03  0.11238702507E+04  0.00000000000E+00 0.  1.
          2    1    6    6  503    0  0.49005299661E+02 -0.10021612546E+03 -0.33178616617E+03  0.35003835684E+03  0.00000000000E+00 0. -1.
         -2    1    6    6    0  503  0.99172702388E+02 -0.37397599509E+02 -0.47527868000E+03  0.48695341564E+03  0.00000000000E+00 0.  1.
<mgrwt>
<rscale>  0 0.20332863E+04</rscale>
<asrwt>0</asrwt>
<pdfrwt beam="1">  1        2 0.74817110E+00 0.20332863E+04</pdfrwt>
<pdfrwt beam="2">  1       -1 0.32697115E-01 0.20332863E+04</pdfrwt>
<totfact> 0.47550756E-01</totfact>
</mgrwt>
</event>
<event>
12    6  0.1530720E-007  0.1885500E+04  0.7818608E-02  0.8662108E-01
          2   -1    0    0  501    0  0.00000000000E+00  0.00000000000E+00  0.81140153574E+03  0.81140153574E+03  0.00000000000E+00 0. -1.
         -1   -1    0    0    0  501 -0.00000000000E+00 -0.00000000000E+00 -0.10953605469E+04  0.10953605469E+04  0.00000000000E+00 0.  1.
         24    2    1    2    0    0  0.17103448645E+03  0.53079428258E+03 -0.56992892745E+03  0.80115021228E+03  0.77635779959E+02 0.  0.
        254    2    1    2    0    0 -0.17103448645E+03 -0.53079428258E+03  0.28596991628E+03  0.11056118704E+04  0.91082569622E+03 0.  0.
         23    2    4    4    0    0 -0.38276093809E+03  0.84609283160E+02  0.41517726747E+02  0.40440042602E+03  0.90284641044E+02 0.  0.
         23    2    4    4    0    0  0.21172645165E+03 -0.61540356574E+03  0.24445218953E+03  0.70121144433E+03  0.91602279723E+02 0.  0.
          4    1    3    3  502    0  0.18741152319E+01  0.86450835711E+02 -0.10676885336E+03  0.13739303967E+03  0.00000000000E+00 0. -1.
         -3    1    3    3    0  502  0.16916037121E+03  0.44434344687E+03 -0.46316007409E+03  0.66375717261E+03  0.00000000000E+00 0.  1.
         11    1    5    5    0    0 -0.37956485835E+03  0.94927090710E+02  0.42488178275E+02  0.39355543388E+03  0.00000000000E+00 0.  1.
        -11    1    5    5    0    0 -0.31960797389E+01 -0.10317807550E+02 -0.97045152789E+00  0.10844992139E+02  0.00000000000E+00 0. -1.
          4    1    6    6  503    0 -0.78941185892E+01 -0.92671516855E+01  0.15446656264E+01  0.12271234680E+02  0.00000000000E+00 0. -1.
         -4    1    6    6    0  503  0.21962057024E+03 -0.60613641405E+03  0.24290752390E+03  0.68894020965E+03  0.00000000000E+00 0.  1.
<mgrwt>
<rscale>  0 0.18854996E+04</rscale>
<asrwt>0</asrwt>
<pdfrwt beam="1">  1        2 0.12483101E+00 0.18854996E+04</pdfrwt>
<pdfrwt beam="2">  1       -1 0.16851701E+00 0.18854996E+04</pdfrwt>
<totfact> 0.91277536E+00</totfact>
</mgrwt>
</event>
<event>
12    6  0.1530720E-007  0.2306511E+04  0.7818608E-02  0.8475358E-01
          2   -1    0    0  501    0  0.00000000000E+00  0.00000000000E+00  0.28393861462E+04  0.28393861462E+04  0.00000000000E+00 0. -1.
         -1   -1    0    0    0  501 -0.00000000000E+00 -0.00000000000E+00 -0.46841047717E+03  0.46841047717E+03  0.00000000000E+00 0.  1.
         24    2    1    2    0    0  0.65044770658E+03 -0.52216890413E+03  0.17323491774E+04  0.19243935988E+04  0.80712250255E+02 0.  0.
        254    2    1    2    0    0 -0.65044770658E+03  0.52216890413E+03  0.63862649165E+03  0.13834030246E+04  0.90012085250E+03 0.  0.
         23    2    4    4    0    0 -0.46905250114E+03  0.14023865214E+03 -0.11809312197E+03  0.51182572264E+03  0.91337049021E+02 0.  0.
         23    2    4    4    0    0 -0.18139520544E+03  0.38193025199E+03  0.75671961362E+03  0.87157730192E+03  0.90815646474E+02 0.  0.
          2    1    3    3  502    0  0.64473331572E+03 -0.50501069253E+03  0.17065244992E+04  0.18928662695E+04  0.00000000000E+00 0. -1.
         -1    1    3    3    0  502  0.57143908517E+01 -0.17158211603E+02  0.25824678194E+02  0.31527329289E+02  0.00000000000E+00 0.  1.
         11    1    5    5    0    0 -0.30593022782E+03  0.13185652937E+03 -0.60196621548E+02  0.33853076946E+03  0.00000000000E+00 0. -1.
        -11    1    5    5    0    0 -0.16312227332E+03  0.83821227744E+01 -0.57896500420E+02  0.17329495318E+03  0.00000000000E+00 0.  1.
          2    1    6    6  503    0 -0.99529065030E+02  0.27897206453E+03  0.58026087688E+03  0.65148609564E+03  0.00000000000E+00 0. -1.
         -2    1    6    6    0  503 -0.81866140408E+02  0.10295818746E+03  0.17645873674E+03  0.22009120628E+03  0.00000000000E+00 0.  1.
<mgrwt>
<rscale>  0 0.23065110E+04</rscale>
<asrwt>0</asrwt>
<pdfrwt beam="1">  1        2 0.43682863E+00 0.23065110E+04</pdfrwt>
<pdfrwt beam="2">  1       -1 0.72063152E-01 0.23065110E+04</pdfrwt>
<totfact> 0.43855606E+00</totfact>
</mgrwt>
</event>
<event>
12    6  0.1530720E-007  0.1266512E+04  0.7818608E-02  0.9056551E-01
          4   -1    0    0  501    0  0.00000000000E+00  0.00000000000E+00  0.11746795500E+04  0.11746795500E+04  0.00000000000E+00 0. -1.
         -3   -1    0    0    0  501 -0.00000000000E+00 -0.00000000000E+00 -0.34138097250E+03  0.34138097250E+03  0.00000000000E+00 0.  1.
         24    2    1    2    0    0  0.24165455654E+03 -0.10636304879E+03  0.38471209528E+03  0.47323164562E+03  0.78960568111E+02 0.  0.
        254    2    1    2    0    0 -0.24165455654E+03  0.10636304879E+03  0.44858648225E+03  0.10428288769E+04  0.90363278583E+03 0.  0.
         23    2    4    4    0    0  0.17910887951E+03  0.11058793822E+03 -0.17268121648E+03  0.28713543814E+03  0.91204575051E+02 0.  0.
         23    2    4    4    0    0 -0.42076343606E+03 -0.42248894293E+01  0.62126769873E+03  0.75569343878E+03  0.89662149831E+02 0.  0.
          4    1    3    3  502    0  0.18695488123E+03 -0.11467424642E+03  0.29082091790E+03  0.36425144708E+03  0.00000000000E+00 0. -1.
         -3    1    3    3    0  502  0.54699675311E+02  0.83111976300E+01  0.93891177382E+02  0.10898019855E+03  0.00000000000E+00 0.  1.
         11    1    5    5    0    0  0.12109696609E+03  0.86326810740E+02 -0.16757237354E+03  0.22404752581E+03  0.00000000000E+00 0.  1.
        -11    1    5    5    0    0  0.58011913424E+02  0.24261127478E+02 -0.51088429399E+01  0.63087912327E+02  0.00000000000E+00 0. -1.
          4    1    6    6  503    0 -0.15857883527E+02  0.94214608946E+01  0.64764046535E+02  0.67339573202E+02  0.00000000000E+00 0. -1.
         -4    1    6    6    0  503 -0.40490555253E+03 -0.13646350324E+02  0.55650365220E+03  0.68835386558E+03  0.00000000000E+00 0.  1.
<mgrwt>
<rscale>  0 0.12665121E+04</rscale>
<asrwt>0</asrwt>
<pdfrwt beam="1">  1        4 0.18071993E+00 0.12665121E+04</pdfrwt>
<pdfrwt beam="2">  1       -3 0.52520150E-01 0.12665121E+04</pdfrwt>
<totfact> 0.14309030E+00</totfact>
</mgrwt>
</event>
<event>
12    6  0.1530720E-007  0.1487337E+04  0.7818608E-02  0.8892917E-01
         -1   -1    0    0    0  501 -0.00000000000E+00  0.00000000000E+00  0.20653556631E+03  0.20653556631E+03  0.00000000000E+00 0.  1.
          2   -1    0    0  501    0  0.00000000000E+00 -0.00000000000E+00 -0.26777137076E+04  0.26777137076E+04  0.00000000000E+00 0. -1.
         24    2    1    2    0    0  0.15081566340E+03 -0.26864063358E+03 -0.14607889497E+04  0.14950602709E+04  0.79923110945E+02 0.  0.
        254    2    1    2    0    0 -0.15081566340E+03  0.26864063358E+03 -0.10103891916E+04  0.13891890030E+04  0.90224531769E+03 0.  0.
         23    2    4    4    0    0 -0.44695224057E+03  0.87105170068E+02 -0.20537099356E+03  0.50780897842E+03  0.91318659488E+02 0.  0.
         23    2    4    4    0    0  0.29613657717E+03  0.18153546351E+03 -0.80501819801E+03  0.88138002458E+03  0.90135740694E+02 0.  0.
          2    1    3    3  502    0  0.14899369897E+03 -0.20115383775E+03 -0.11816017098E+04  0.12078263904E+04  0.00000000000E+00 0. -1.
         -1    1    3    3    0  502  0.18219644286E+01 -0.67486795830E+02 -0.27918723989E+03  0.28723388046E+03  0.00000000000E+00 0.  1.
         11    1    5    5    0    0 -0.25130126665E+02  0.29078450826E+02 -0.12966316108E+02  0.40561125749E+02  0.00000000000E+00 0.  1.
        -11    1    5    5    0    0 -0.42182211390E+03  0.58026719243E+02 -0.19240467745E+03  0.46724785267E+03  0.00000000000E+00 0. -1.
          2    1    6    6  503    0  0.25410997898E+03  0.11311258925E+03 -0.64168742415E+03  0.69937764446E+03  0.00000000000E+00 0. -1.
         -2    1    6    6    0  503  0.42026598187E+02  0.68422874265E+02 -0.16333077386E+03  0.18200238012E+03  0.00000000000E+00 0.  1.
<mgrwt>
<rscale>  0 0.14873374E+04</rscale>
<asrwt>0</asrwt>
<pdfrwt beam="1">  1        2 0.41195593E+00 0.14873374E+04</pdfrwt>
<pdfrwt beam="2">  1       -1 0.31774705E-01 0.14873374E+04</pdfrwt>
<totfact> 0.27920843E+01</totfact>
</mgrwt>
</event>
<event>
12    6  0.1530720E-007  0.1801523E+04  0.7818608E-02  0.8705490E-01
          2   -1    0    0  501    0  0.00000000000E+00  0.00000000000E+00  0.16703029234E+04  0.16703029234E+04  0.00000000000E+00 0. -1.
         -1   -1    0    0    0  501 -0.00000000000E+00 -0.00000000000E+00 -0.48576310745E+03  0.48576310745E+03  0.00000000000E+00 0.  1.
         24    2    1    2    0    0 -0.18956969836E+03  0.75005641310E+01  0.12177126059E+04  0.12349733636E+04  0.79638490815E+02 0.  0.
        254    2    1    2    0    0  0.18956969836E+03 -0.75005641310E+01 -0.33172789874E+02  0.92109266734E+03  0.90073211270E+03 0.  0.
         23    2    4    4    0    0 -0.30910599532E+03  0.51997093688E+02  0.17530605696E+03  0.36992065082E+03  0.88650212661E+02 0.  0.
         23    2    4    4    0    0  0.49867569368E+03 -0.59497657819E+02 -0.20847884683E+03  0.55117201652E+03  0.90054114083E+02 0.  0.
          4    1    3    3  502    0 -0.64258169889E+01 -0.18446001083E+02  0.16266725444E+03  0.16383583780E+03  0.00000000000E+00 0. -1.
         -3    1    3    3    0  502 -0.18314388137E+03  0.25946565214E+02  0.10550453514E+04  0.10711375258E+04  0.00000000000E+00 0.  1.
         11    1    5    5    0    0 -0.65842590676E+02  0.11460516186E+02 -0.87183560018E+00  0.66838239620E+02  0.00000000000E+00 0. -1.
        -11    1    5    5    0    0 -0.24326340464E+03  0.40536577502E+02  0.17617789256E+03  0.30308241120E+03  0.00000000000E+00 0.  1.
          3    1    6    6  503    0  0.33613515071E+03 -0.56051357541E+02 -0.97925040550E+02  0.35456721195E+03  0.00000000000E+00 0. -1.
         -3    1    6    6    0  503  0.16254054297E+03 -0.34463002782E+01 -0.11055380628E+03  0.19660480456E+03  0.00000000000E+00 0.  1.
<mgrwt>
<rscale>  0 0.18015233E+04</rscale>
<asrwt>0</asrwt>
<pdfrwt beam="1">  1        2 0.25696968E+00 0.18015233E+04</pdfrwt>
<pdfrwt beam="2">  1       -1 0.74732787E-01 0.18015233E+04</pdfrwt>
<totfact> 0.19732275E+01</totfact>
</mgrwt>
</event>
<event>
12    6  0.1530720E-007  0.2286132E+04  0.7818608E-02  0.8483409E-01
         -1   -1    0    0    0  501 -0.00000000000E+00  0.00000000000E+00  0.12242801551E+04  0.12242801551E+04  0.00000000000E+00 0.  1.
          2   -1    0    0  501    0  0.00000000000E+00 -0.00000000000E+00 -0.10672393308E+04  0.10672393308E+04  0.00000000000E+00 0. -1.
         24    2    1    2    0    0 -0.32012646866E+03  0.39104463564E+03  0.88976531246E+03  0.10266683283E+04  0.83478632877E+02 0.  0.
        254    2    1    2    0    0  0.32012646866E+03 -0.39104463564E+03 -0.73272448819E+03  0.12648511575E+04  0.89864698974E+03 0.  0.
         23    2    4    4    0    0 -0.17929729042E+03 -0.13951785250E+03  0.94356449593E+02  0.26277464302E+03  0.92383028281E+02 0.  0.
         23    2    4    4    0    0  0.49942375908E+03 -0.25152678314E+03 -0.82708093778E+03  0.10020765145E+04  0.86050273461E+02 0.  0.
          4    1    3    3  502    0 -0.57698858318E+01  0.41771483554E+02  0.66825615920E+02  0.79017791439E+02  0.00000000000E+00 0. -1.
         -3    1    3    3    0  502 -0.31435658283E+03  0.34927315209E+03  0.82293969654E+03  0.94765053689E+03  0.00000000000E+00 0.  1.
         11    1    5    5    0    0 -0.61726868421E+02 -0.22496665158E+02 -0.10497763144E+02  0.66532016799E+02  0.00000000000E+00 0.  1.
        -11    1    5    5    0    0 -0.11757042200E+03 -0.11702118734E+03  0.10485421274E+03  0.19624262622E+03  0.00000000000E+00 0. -1.
          2    1    6    6  503    0  0.41131707860E+03 -0.21540669879E+03 -0.73657759291E+03  0.87070565371E+03  0.00000000000E+00 0. -1.
         -2    1    6    6    0  503  0.88106680486E+02 -0.36120084350E+02 -0.90503344871E+02  0.13137086082E+03  0.00000000000E+00 0.  1.
<mgrwt>
<rscale>  0 0.22861320E+04</rscale>
<asrwt>0</asrwt>
<pdfrwt beam="1">  1        2 0.16419067E+00 0.22861320E+04</pdfrwt>
<pdfrwt beam="2">  1       -1 0.18835079E+00 0.22861320E+04</pdfrwt>
<totfact> 0.42883193E+00</totfact>
</mgrwt>
</event>
<event>
12    6  0.1530720E-007  0.1688938E+04  0.7818608E-02  0.8767699E-01
          2   -1    0    0  501    0  0.00000000000E+00  0.00000000000E+00  0.47128382251E+03  0.47128382251E+03  0.00000000000E+00 0. -1.
         -1   -1    0    0    0  501 -0.00000000000E+00 -0.00000000000E+00 -0.15131600603E+04  0.15131600603E+04  0.00000000000E+00 0.  1.
         24    2    1    2    0    0 -0.20836432094E+03  0.42523222318E+03 -0.78032554754E+03  0.91617866623E+03  0.78976290406E+02 0.  0.
        254    2    1    2    0    0  0.20836432094E+03 -0.42523222318E+03 -0.26155069027E+03  0.10682652166E+04  0.92116430430E+03 0.  0.
         23    2    4    4    0    0  0.24831409527E+03 -0.97645541421E+02 -0.55161470845E+03  0.61961599977E+03  0.91927465521E+02 0.  0.
         23    2    4    4    0    0 -0.39949774326E+02 -0.32758668176E+03  0.29006401819E+03  0.44864921682E+03  0.90774261592E+02 0.  0.
          4    1    3    3  502    0 -0.98995533617E+02  0.27088613887E+03 -0.51610264554E+03  0.59122022686E+03  0.00000000000E+00 0. -1.
         -3    1    3    3    0  502 -0.10936878732E+03  0.15434608431E+03 -0.26422290199E+03  0.32495843937E+03  0.00000000000E+00 0.  1.
         11    1    5    5    0    0 -0.47526281025E+01  0.67991635351E+01 -0.13104894701E+02  0.15509815079E+02  0.00000000000E+00 0. -1.
        -11    1    5    5    0    0  0.25306672337E+03 -0.10444470496E+03 -0.53850981375E+03  0.60410618469E+03  0.00000000000E+00 0.  1.
          1    1    6    6  503    0  0.27842702669E+02 -0.58994260286E+02  0.53386937788E+02  0.84295337741E+02  0.00000000000E+00 0. -1.
         -1    1    6    6    0  503 -0.67792476994E+02 -0.26859242147E+03  0.23667708040E+03  0.36435387907E+03  0.00000000000E+00 0.  1.
<mgrwt>
<rscale>  0 0.16889380E+04</rscale>
<asrwt>0</asrwt>
<pdfrwt beam="1">  1        2 0.72505203E-01 0.16889380E+04</pdfrwt>
<pdfrwt beam="2">  1       -1 0.23279386E+00 0.16889380E+04</pdfrwt>
<totfact> 0.64944098E+00</totfact>
</mgrwt>
</event>
<event>
12    6  0.1530720E-007  0.1629293E+04  0.7818608E-02  0.8802751E-01
         -1   -1    0    0    0  501 -0.00000000000E+00  0.00000000000E+00  0.89502201162E+03  0.89502201162E+03  0.00000000000E+00 0.  1.
          2   -1    0    0  501    0  0.00000000000E+00 -0.00000000000E+00 -0.74148914718E+03  0.74148914718E+03  0.00000000000E+00 0. -1.
         24    2    1    2    0    0 -0.19494201865E+03 -0.49969591235E+03 -0.11872092426E+03  0.55418197899E+03  0.72969942587E+02 0.  0.
        254    2    1    2    0    0  0.19494201865E+03  0.49969591235E+03  0.27225378870E+03  0.10823291798E+04  0.89978660390E+03 0.  0.
         23    2    4    4    0    0  0.29539153924E+03 -0.17004276178E+03  0.18287612539E+02  0.35338109971E+03  0.91504440181E+02 0.  0.
         23    2    4    4    0    0 -0.10044952059E+03  0.66973867412E+03  0.25396617616E+03  0.72894808010E+03  0.90699983680E+02 0.  0.
          2    1    3    3  502    0 -0.68155661185E+02 -0.92901917647E+02 -0.24933168886E+02  0.11788818162E+03  0.00000000000E+00 0. -1.
         -1    1    3    3    0  502 -0.12678635747E+03 -0.40679399470E+03 -0.93787755375E+02  0.43629379737E+03  0.00000000000E+00 0.  1.
         11    1    5    5    0    0  0.27235706127E+03 -0.17856032006E+03  0.28214774265E+02  0.32689177140E+03  0.00000000000E+00 0.  1.
        -11    1    5    5    0    0  0.23034477971E+02  0.85175582794E+01 -0.99271617260E+01  0.26489328311E+02  0.00000000000E+00 0. -1.
          2    1    6    6  503    0 -0.26701413858E+02  0.32657567398E+03  0.16493116899E+03  0.36683365010E+03  0.00000000000E+00 0. -1.
         -2    1    6    6    0  503 -0.73748106730E+02  0.34316300014E+03  0.89035007172E+02  0.36211443000E+03  0.00000000000E+00 0.  1.
<mgrwt>
<rscale>  0 0.16292932E+04</rscale>
<asrwt>0</asrwt>
<pdfrwt beam="1">  1        2 0.11407525E+00 0.16292932E+04</pdfrwt>
<pdfrwt beam="2">  1       -1 0.13769569E+00 0.16292932E+04</pdfrwt>
<totfact> 0.18203258E+01</totfact>
</mgrwt>
</event>
<event>
12    6  0.1530720E-007  0.1488610E+04  0.7818608E-02  0.8892063E-01
         -1   -1    0    0    0  501 -0.00000000000E+00  0.00000000000E+00  0.11571229023E+04  0.11571229023E+04  0.00000000000E+00 0.  1.
          2   -1    0    0  501    0  0.00000000000E+00 -0.00000000000E+00 -0.47876489257E+03  0.47876489257E+03  0.00000000000E+00 0. -1.
         24    2    1    2    0    0  0.64491562520E+02  0.22319475820E+03 -0.22975630266E+03  0.33621699534E+03  0.79239179809E+02 0.  0.
        254    2    1    2    0    0 -0.64491562520E+02 -0.22319475820E+03  0.90811431237E+03  0.12996707995E+04  0.90027635817E+03 0.  0.
         23    2    4    4    0    0 -0.94736518043E+02  0.20073028083E+02  0.10091937778E+04  0.10178739408E+04  0.90649565856E+02 0.  0.
         23    2    4    4    0    0  0.30244955523E+02 -0.24326778628E+03 -0.10107946547E+03  0.28179685874E+03  0.95385733098E+02 0.  0.
          2    1    3    3  502    0  0.19271070551E+02  0.10403702215E+03 -0.15740906620E+03  0.18966467847E+03  0.00000000000E+00 0. -1.
         -1    1    3    3    0  502  0.45220491969E+02  0.11915773605E+03 -0.72347236458E+02  0.14655231686E+03  0.00000000000E+00 0.  1.
         11    1    5    5    0    0 -0.51082421841E+02  0.94385566236E+01  0.17693135500E+03  0.18439957851E+03  0.00000000000E+00 0. -1.
        -11    1    5    5    0    0 -0.43654096202E+02  0.10634471459E+02  0.83226242284E+03  0.83347436228E+03  0.00000000000E+00 0.  1.
          3    1    6    6  503    0 -0.32113861463E+02 -0.57074387472E+02 -0.37158072964E+02  0.75296136619E+02  0.00000000000E+00 0. -1.
         -3    1    6    6    0  503  0.62358816986E+02 -0.18619339881E+03 -0.63921392502E+02  0.20650072212E+03  0.00000000000E+00 0.  1.
<mgrwt>
<rscale>  0 0.14886099E+04</rscale>
<asrwt>0</asrwt>
<pdfrwt beam="1">  1        2 0.73656137E-01 0.14886099E+04</pdfrwt>
<pdfrwt beam="2">  1       -1 0.17801891E+00 0.14886099E+04</pdfrwt>
<totfact> 0.15398536E+01</totfact>
</mgrwt>
</event>
<event>
12    6  0.1530720E-007  0.2147890E+04  0.7818608E-02  0.8540436E-01
          2   -1    0    0  501    0  0.00000000000E+00  0.00000000000E+00  0.23179500013E+04  0.23179500013E+04  0.00000000000E+00 0. -1.
         -1   -1    0    0    0  501 -0.00000000000E+00 -0.00000000000E+00 -0.49757662078E+03  0.49757662078E+03  0.00000000000E+00 0.  1.
         24    2    1    2    0    0  0.56590380368E+03 -0.32349021088E+02 -0.14050558444E+03  0.58943807902E+03  0.80011596373E+02 0.  0.
        254    2    1    2    0    0 -0.56590380368E+03  0.32349021088E+02  0.19608789650E+04  0.22260885431E+04  0.88833006934E+03 0.  0.
         23    2    4    4    0    0 -0.19371582317E+03  0.42555951839E+03  0.11740165075E+04  0.12670342988E+04  0.91839156138E+02 0.  0.
         23    2    4    4    0    0 -0.37218798051E+03 -0.39321049730E+03  0.78686245747E+03  0.95905424426E+03  0.86568634287E+02 0.  0.
          4    1    3    3  502    0  0.15562776725E+02  0.11685502180E+02  0.10172162295E+01  0.19488091478E+02  0.00000000000E+00 0. -1.
         -3    1    3    3    0  502  0.55034102696E+03 -0.44034523268E+02 -0.14152280067E+03  0.56994998755E+03  0.00000000000E+00 0.  1.
         11    1    5    5    0    0 -0.15403811489E+03  0.35967646265E+03  0.87888601883E+03  0.96204757300E+03  0.00000000000E+00 0. -1.
        -11    1    5    5    0    0 -0.39677708278E+02  0.65883055747E+02  0.29513048866E+03  0.30498672579E+03  0.00000000000E+00 0.  1.
          4    1    6    6  503    0 -0.27358220206E+03 -0.28145313820E+03  0.63319847161E+03  0.74498549968E+03  0.00000000000E+00 0. -1.
         -4    1    6    6    0  503 -0.98605778455E+02 -0.11175735910E+03  0.15366398586E+03  0.21406874459E+03  0.00000000000E+00 0.  1.
<mgrwt>
<rscale>  0 0.21478899E+04</rscale>
<asrwt>0</asrwt>
<pdfrwt beam="1">  1        2 0.35660769E+00 0.21478899E+04</pdfrwt>
<pdfrwt beam="2">  1       -1 0.76550251E-01 0.21478899E+04</pdfrwt>
<totfact> 0.79237510E+00</totfact>
</mgrwt>
</event>
<event>
12    6  0.1530720E-007  0.1740142E+04  0.7818608E-02  0.8738795E-01
          2   -1    0    0  501    0  0.00000000000E+00  0.00000000000E+00  0.29541550486E+03  0.29541550486E+03  0.00000000000E+00 0. -1.
         -1   -1    0    0    0  501 -0.00000000000E+00 -0.00000000000E+00 -0.25625720786E+04  0.25625720786E+04  0.00000000000E+00 0.  1.
         24    2    1    2    0    0 -0.68160808793E+02  0.56330432808E+03 -0.34579420227E+03  0.66933724503E+03  0.80505002219E+02 0.  0.
        254    2    1    2    0    0  0.68160808793E+02 -0.56330432808E+03 -0.19213623715E+04  0.21886503385E+04  0.88124870470E+03 0.  0.
         23    2    4    4    0    0 -0.24336753578E+03 -0.65909770696E+03 -0.12498246536E+04  0.14366508919E+04  0.90920709880E+02 0.  0.
         23    2    4    4    0    0  0.31152834457E+03  0.95793378879E+02 -0.67153771788E+03  0.75199944660E+03  0.91181030061E+02 0.  0.
          2    1    3    3  502    0 -0.64503359694E+02  0.56387716890E+03 -0.33766752452E+03  0.66040707304E+03  0.00000000000E+00 0. -1.
         -1    1    3    3    0  502 -0.36574490989E+01 -0.57284081798E+00 -0.81266777503E+01  0.89301719900E+01  0.00000000000E+00 0.  1.
         11    1    5    5    0    0 -0.21252896520E+03 -0.53854547359E+03 -0.95729190884E+03  0.11187526925E+04  0.00000000000E+00 0.  1.
        -11    1    5    5    0    0 -0.30838570583E+02 -0.12055223336E+03 -0.29253274478E+03  0.31789819939E+03  0.00000000000E+00 0. -1.
          1    1    6    6  503    0  0.97156067501E+02  0.32129333737E+02 -0.31431685490E+03  0.33055511010E+03  0.00000000000E+00 0. -1.
         -1    1    6    6    0  503  0.21437227707E+03  0.63664045143E+02 -0.35722086298E+03  0.42144433651E+03  0.00000000000E+00 0.  1.
<mgrwt>
<rscale>  0 0.17401420E+04</rscale>
<asrwt>0</asrwt>
<pdfrwt beam="1">  1        2 0.45448539E-01 0.17401420E+04</pdfrwt>
<pdfrwt beam="2">  1       -1 0.39424186E+00 0.17401420E+04</pdfrwt>
<totfact> 0.95309009E-01</totfact>
</mgrwt>
</event>
<event>
12    6  0.1530720E-007  0.1183091E+04  0.7818608E-02  0.9127787E-01
         -1   -1    0    0    0  501 -0.00000000000E+00  0.00000000000E+00  0.16764233762E+04  0.16764233762E+04  0.00000000000E+00 0.  1.
          2   -1    0    0  501    0  0.00000000000E+00 -0.00000000000E+00 -0.20873385839E+03  0.20873385839E+03  0.00000000000E+00 0. -1.
         24    2    1    2    0    0  0.18449878512E+03 -0.55934472660E+02  0.51637509585E+03  0.56104540582E+03  0.10469116885E+03 0.  0.
        254    2    1    2    0    0 -0.18449878512E+03  0.55934472660E+02  0.95131442196E+03  0.13241118288E+04  0.90061342358E+03 0.  0.
         23    2    4    4    0    0  0.16522417112E+03 -0.13135263842E+03 -0.56798168267E+02  0.23736305137E+03  0.92534555132E+02 0.  0.
         23    2    4    4    0    0 -0.34972295624E+03  0.18728711108E+03  0.10081125902E+04  0.10867487774E+04  0.85728073200E+02 0.  0.
          2    1    3    3  502    0  0.30459200871E+02  0.26313412881E+02  0.58571500502E+02  0.71068834845E+02  0.00000000000E+00 0. -1.
         -1    1    3    3    0  502  0.15403958425E+03 -0.82247885541E+02  0.45780359535E+03  0.48997657098E+03  0.00000000000E+00 0.  1.
         11    1    5    5    0    0 -0.11212183437E+02 -0.16453699642E+02 -0.44273776053E+01  0.20397033161E+02  0.00000000000E+00 0. -1.
        -11    1    5    5    0    0  0.17643635455E+03 -0.11489893878E+03 -0.52370790662E+02  0.21696601820E+03  0.00000000000E+00 0.  1.
          1    1    6    6  503    0 -0.22964018254E+03  0.14990236165E+03  0.77145989042E+03  0.81875252304E+03  0.00000000000E+00 0. -1.
         -1    1    6    6    0  503 -0.12008277369E+03  0.37384749427E+02  0.23665269980E+03  0.26799625436E+03  0.00000000000E+00 0.  1.
<mgrwt>
<rscale>  0 0.11830914E+04</rscale>
<asrwt>0</asrwt>
<pdfrwt beam="1">  1        2 0.32112902E-01 0.11830914E+04</pdfrwt>
<pdfrwt beam="2">  1       -1 0.25791128E+00 0.11830914E+04</pdfrwt>
<totfact> 0.11605364E+01</totfact>
</mgrwt>
</event>
<event>
12    6  0.1530720E-007  0.1163190E+04  0.7818608E-02  0.9145701E-01
          2   -1    0    0  501    0  0.00000000000E+00  0.00000000000E+00  0.61857850160E+03  0.61857850160E+03  0.00000000000E+00 0. -1.
         -1   -1    0    0    0  501 -0.00000000000E+00 -0.00000000000E+00 -0.54682268780E+03  0.54682268780E+03  0.00000000000E+00 0.  1.
         24    2    1    2    0    0 -0.12481543455E+03  0.12080930982E+03 -0.16457689878E+03  0.25202178845E+03  0.79092630499E+02 0.  0.
        254    2    1    2    0    0  0.12481543455E+03 -0.12080930982E+03  0.23633271259E+03  0.91337940095E+03  0.86500577859E+03 0.  0.
         23    2    4    4    0    0 -0.10944512694E+03  0.32464365755E+03  0.13190286913E+02  0.35585475006E+03  0.95325124048E+02 0.  0.
         23    2    4    4    0    0  0.23426056149E+03 -0.44545296737E+03  0.22314242568E+03  0.55752465089E+03  0.87947924387E+02 0.  0.
          2    1    3    3  502    0 -0.10553029969E+03  0.90883315102E+02 -0.80844381164E+02  0.16103488778E+03  0.00000000000E+00 0. -1.
         -1    1    3    3    0  502 -0.19285134857E+02  0.29925994718E+02 -0.83732517619E+02  0.90986900668E+02  0.00000000000E+00 0.  1.
         11    1    5    5    0    0  0.33319510055E+01  0.11438958654E+03  0.24363178460E+02  0.11700275156E+03  0.00000000000E+00 0. -1.
        -11    1    5    5    0    0 -0.11277707794E+03  0.21025407101E+03 -0.11172891548E+02  0.23885199851E+03  0.00000000000E+00 0.  1.
          3    1    6    6  503    0  0.13909977889E+03 -0.33891205200E+03  0.18078414325E+03  0.40852543854E+03  0.00000000000E+00 0. -1.
         -3    1    6    6    0  503  0.95160782596E+02 -0.10654091537E+03  0.42358282427E+02  0.14899921235E+03  0.00000000000E+00 0.  1.
<mgrwt>
<rscale>  0 0.11631900E+04</rscale>
<asrwt>0</asrwt>
<pdfrwt beam="1">  1        2 0.95165924E-01 0.11631900E+04</pdfrwt>
<pdfrwt beam="2">  1       -1 0.84126567E-01 0.11631900E+04</pdfrwt>
<totfact> 0.75663009E+01</totfact>
</mgrwt>
</event>
<event>
12    6  0.1530720E-007  0.1634330E+04  0.7818608E-02  0.8799731E-01
          2   -1    0    0  501    0  0.00000000000E+00  0.00000000000E+00  0.28382118663E+04  0.28382118663E+04  0.00000000000E+00 0. -1.
         -1   -1    0    0    0  501 -0.00000000000E+00 -0.00000000000E+00 -0.23527432858E+03  0.23527432858E+03  0.00000000000E+00 0.  1.
         24    2    1    2    0    0  0.42966565995E+03 -0.30436830061E+03  0.53115767920E+03  0.75221534438E+03  0.80291982093E+02 0.  0.
        254    2    1    2    0    0 -0.42966565995E+03  0.30436830061E+03  0.20717798585E+04  0.23212708505E+04  0.90486128080E+03 0.  0.
         23    2    4    4    0    0  0.24671283380E+02 -0.24864116746E+03  0.95975707459E+03  0.99586928659E+03  0.90503543470E+02 0.  0.
         23    2    4    4    0    0 -0.45433694333E+03  0.55300946807E+03  0.11120227839E+04  0.13254015639E+04  0.88617739739E+02 0.  0.
          2    1    3    3  502    0  0.34274190468E+03 -0.22818868027E+03  0.45576724590E+03  0.61421972409E+03  0.00000000000E+00 0. -1.
         -1    1    3    3    0  502  0.86923755268E+02 -0.76179620342E+02  0.75390433301E+02  0.13799562029E+03  0.00000000000E+00 0.  1.
         11    1    5    5    0    0  0.30922686511E+02 -0.24661639154E+03  0.84171805691E+03  0.87764750581E+03  0.00000000000E+00 0.  1.
        -11    1    5    5    0    0 -0.62514031312E+01 -0.20247759197E+01  0.11803901768E+03  0.11822178079E+03  0.00000000000E+00 0. -1.
          1    1    6    6  503    0 -0.97818589938E+01  0.31401432605E+02  0.29575756342E+02  0.44231890059E+02  0.00000000000E+00 0. -1.
         -1    1    6    6    0  503 -0.44455508434E+03  0.52160803546E+03  0.10824470276E+04  0.12811696739E+04  0.00000000000E+00 0.  1.
<mgrwt>
<rscale>  0 0.16343297E+04</rscale>
<asrwt>0</asrwt>
<pdfrwt beam="1">  1        2 0.43664796E+00 0.16343297E+04</pdfrwt>
<pdfrwt beam="2">  1       -1 0.36196052E-01 0.16343297E+04</pdfrwt>
<totfact> 0.17510817E+01</totfact>
</mgrwt>
</event>
<event>
12    6  0.1530720E-007  0.1750289E+04  0.7818608E-02  0.8733191E-01
         -1   -1    0    0    0  501 -0.00000000000E+00  0.00000000000E+00  0.19651041414E+04  0.19651041414E+04  0.00000000000E+00 0.  1.
          2   -1    0    0  501    0  0.00000000000E+00 -0.00000000000E+00 -0.38973896863E+03  0.38973896863E+03  0.00000000000E+00 0. -1.
         24    2    1    2    0    0 -0.47741505967E+02  0.49530191782E+03  0.12867460619E+03  0.52084551830E+03  0.84378068678E+02 0.  0.
        254    2    1    2    0    0  0.47741505967E+02 -0.49530191782E+03  0.14466905666E+04  0.18339975918E+04  0.10114496181E+04 0.  0.
         23    2    4    4    0    0 -0.21840191377E+03 -0.23763166764E+03  0.14097359745E+04  0.14496397452E+04  0.99657751483E+02 0.  0.
         23    2    4    4    0    0  0.26614341973E+03 -0.25767025018E+03  0.36954592083E+02  0.38435784662E+03  0.95598298539E+02 0.  0.
          2    1    3    3  502    0 -0.20238575540E+02  0.13461796815E+03 -0.22519168559E+01  0.13614943414E+03  0.00000000000E+00 0. -1.
         -1    1    3    3    0  502 -0.27502930427E+02  0.36068394967E+03  0.13092652305E+03  0.38469608416E+03  0.00000000000E+00 0.  1.
         11    1    5    5    0    0 -0.20083598564E+03 -0.16856931273E+03  0.11935527647E+04  0.12220142832E+04  0.00000000000E+00 0. -1.
        -11    1    5    5    0    0 -0.17565928130E+02 -0.69062354912E+02  0.21618320984E+03  0.22762546192E+03  0.00000000000E+00 0.  1.
          4    1    6    6  503    0  0.18985871414E+03 -0.13481730929E+03 -0.77799204357E+01  0.23298619140E+03  0.00000000000E+00 0. -1.
         -4    1    6    6    0  503  0.76284705588E+02 -0.12285294090E+03  0.44734512519E+02  0.15137165522E+03  0.00000000000E+00 0.  1.
<mgrwt>
<rscale>  0 0.17502887E+04</rscale>
<asrwt>0</asrwt>
<pdfrwt beam="1">  1        2 0.59959843E-01 0.17502887E+04</pdfrwt>
<pdfrwt beam="2">  1       -1 0.30232371E+00 0.17502887E+04</pdfrwt>
<totfact> 0.28351336E+00</totfact>
</mgrwt>
</event>
<event>
12    6  0.1530720E-007  0.2100184E+04  0.7818608E-02  0.8561162E-01
         -1   -1    0    0    0  501 -0.00000000000E+00  0.00000000000E+00  0.87008042000E+03  0.87008042000E+03  0.00000000000E+00 0.  1.
          2   -1    0    0  501    0  0.00000000000E+00 -0.00000000000E+00 -0.12673459024E+04  0.12673459024E+04  0.00000000000E+00 0. -1.
         24    2    1    2    0    0 -0.45842911696E+03  0.57408750266E+03  0.19972699174E+03  0.76599326007E+03  0.84386534862E+02 0.  0.
        254    2    1    2    0    0  0.45842911696E+03 -0.57408750266E+03 -0.59699247417E+03  0.13714330624E+04  0.99231795022E+03 0.  0.
         23    2    4    4    0    0 -0.77943091171E+02  0.21505540707E+03 -0.25217268482E+03  0.35264918638E+03  0.91904472734E+02 0.  0.
         23    2    4    4    0    0  0.53637220813E+03 -0.78914290973E+03 -0.34481978935E+03  0.10187838760E+04  0.92618687093E+02 0.  0.
          4    1    3    3  502    0 -0.18694386010E+03  0.29982842002E+03  0.85368873357E+02  0.36350093923E+03  0.00000000000E+00 0. -1.
         -3    1    3    3    0  502 -0.27148525686E+03  0.27425908264E+03  0.11435811838E+03  0.40249232085E+03  0.00000000000E+00 0.  1.
         11    1    5    5    0    0 -0.49239426017E+02  0.18956238007E+03 -0.16034058099E+03  0.25311562362E+03  0.00000000000E+00 0.  1.
        -11    1    5    5    0    0 -0.28703665154E+02  0.25493027006E+02 -0.91832103837E+02  0.99533562754E+02  0.00000000000E+00 0. -1.
          1    1    6    6  503    0  0.45095471243E+03 -0.60368231857E+03 -0.25253136897E+03  0.79471037915E+03  0.00000000000E+00 0. -1.
         -1    1    6    6    0  503  0.85417495704E+02 -0.18546059116E+03 -0.92288420383E+02  0.22407349684E+03  0.00000000000E+00 0.  1.
<mgrwt>
<rscale>  0 0.21001837E+04</rscale>
<asrwt>0</asrwt>
<pdfrwt beam="1">  1        2 0.19497629E+00 0.21001837E+04</pdfrwt>
<pdfrwt beam="2">  1       -1 0.13385853E+00 0.21001837E+04</pdfrwt>
<totfact> 0.85442262E+00</totfact>
</mgrwt>
</event>
<event>
12    6  0.1530720E-007  0.1214688E+04  0.7818608E-02  0.9100097E-01
          2   -1    0    0  501    0  0.00000000000E+00  0.00000000000E+00  0.27796214527E+04  0.27796214527E+04  0.00000000000E+00 0. -1.
         -1   -1    0    0    0  501 -0.00000000000E+00 -0.00000000000E+00 -0.13270385127E+03  0.13270385127E+03  0.00000000000E+00 0.  1.
         24    2    1    2    0    0  0.20477216767E+03 -0.13504747920E+03  0.32826621417E+03  0.41746204087E+03  0.79664207207E+02 0.  0.
        254    2    1    2    0    0 -0.20477216767E+03  0.13504747920E+03  0.23186513872E+04  0.24948632631E+04  0.88770996590E+03 0.  0.
         23    2    4    4    0    0  0.29910111628E+03 -0.12549620093E+03  0.72169974570E+03  0.79776692238E+03  0.10183695444E+03 0.  0.
         23    2    4    4    0    0 -0.50387328396E+03  0.26054368013E+03  0.15969516415E+04  0.16970963407E+04  0.90056363576E+02 0.  0.
          2    1    3    3  502    0  0.98517029948E+02 -0.28968552668E+02  0.17503134109E+03  0.20293041319E+03  0.00000000000E+00 0. -1.
         -1    1    3    3    0  502  0.10625513773E+03 -0.10607892654E+03  0.15323487308E+03  0.21453162768E+03  0.00000000000E+00 0.  1.
         11    1    5    5    0    0  0.11218601554E+03  0.43896623484E+01  0.22991243292E+03  0.25586070044E+03  0.00000000000E+00 0. -1.
        -11    1    5    5    0    0  0.18691510074E+03 -0.12988586328E+03  0.49178731278E+03  0.54190622194E+03  0.00000000000E+00 0.  1.
          3    1    6    6  503    0 -0.28793599101E+03  0.10112991405E+03  0.80575362792E+03  0.86161087699E+03  0.00000000000E+00 0. -1.
         -3    1    6    6    0  503 -0.21593729295E+03  0.15941376609E+03  0.79119801362E+03  0.83548546371E+03  0.00000000000E+00 0.  1.
<mgrwt>
<rscale>  0 0.12146876E+04</rscale>
<asrwt>0</asrwt>
<pdfrwt beam="1">  1        2 0.42763403E+00 0.12146876E+04</pdfrwt>
<pdfrwt beam="2">  1       -1 0.20415979E-01 0.12146876E+04</pdfrwt>
<totfact> 0.53320920E+01</totfact>
</mgrwt>
</event>
<event>
12    6  0.1530720E-007  0.2450167E+04  0.7818608E-02  0.8420957E-01
          2   -1    0    0  501    0  0.00000000000E+00  0.00000000000E+00  0.10003947251E+04  0.10003947251E+04  0.00000000000E+00 0. -1.
         -1   -1    0    0    0  501 -0.00000000000E+00 -0.00000000000E+00 -0.15002374753E+04  0.15002374753E+04  0.00000000000E+00 0.  1.
         24    2    1    2    0    0  0.29251295090E+03  0.29633107950E+03  0.77710299835E+03  0.88575959691E+03  0.85469634148E+02 0.  0.
        254    2    1    2    0    0 -0.29251295090E+03 -0.29633107950E+03 -0.12769457485E+04  0.16148726035E+04  0.89657523160E+03 0.  0.
         23    2    4    4    0    0 -0.24537843598E+03 -0.86390754874E+02  0.38756027555E+02  0.27865135268E+03  0.92035902279E+02 0.  0.
         23    2    4    4    0    0 -0.47134514921E+02 -0.20994032463E+03 -0.13157017760E+04  0.13362212508E+04  0.90108075825E+02 0.  0.
          2    1    3    3  502    0  0.51401192792E+02  0.90082493171E+02  0.24798243789E+03  0.26879774497E+03  0.00000000000E+00 0. -1.
         -1    1    3    3    0  502  0.24111175811E+03  0.20624858633E+03  0.52912056046E+03  0.61696185195E+03  0.00000000000E+00 0.  1.
         11    1    5    5    0    0 -0.13192489219E+02 -0.29295420069E+02  0.22046079663E+02  0.38965279896E+02  0.00000000000E+00 0.  1.
        -11    1    5    5    0    0 -0.23218594676E+03 -0.57095334806E+02  0.16709947891E+02  0.23968607278E+03  0.00000000000E+00 0. -1.
          2    1    6    6  503    0 -0.60937018668E+02 -0.20640967320E+03 -0.11543041204E+04  0.11741960125E+04  0.00000000000E+00 0. -1.
         -2    1    6    6    0  503  0.13802503747E+02 -0.35306514278E+01 -0.16139765563E+03  0.16202523831E+03  0.00000000000E+00 0.  1.
<mgrwt>
<rscale>  0 0.24501671E+04</rscale>
<asrwt>0</asrwt>
<pdfrwt beam="1">  1        2 0.15390688E+00 0.24501671E+04</pdfrwt>
<pdfrwt beam="2">  1       -1 0.23080576E+00 0.24501671E+04</pdfrwt>
<totfact> 0.23964541E+00</totfact>
</mgrwt>
</event>
<event>
12    6  0.1530720E-007  0.1268054E+04  0.7818608E-02  0.9055290E-01
         -1   -1    0    0    0  501 -0.00000000000E+00  0.00000000000E+00  0.42679595443E+03  0.42679595443E+03  0.00000000000E+00 0.  1.
          2   -1    0    0  501    0  0.00000000000E+00 -0.00000000000E+00 -0.94187886473E+03  0.94187886473E+03  0.00000000000E+00 0. -1.
         24    2    1    2    0    0  0.11799715879E+03 -0.22075741224E+03  0.58095282917E+02  0.27102323925E+03  0.86147372408E+02 0.  0.
        254    2    1    2    0    0 -0.11799715879E+03  0.22075741224E+03 -0.57317819321E+03  0.10976515799E+04  0.90202471427E+03 0.  0.
         23    2    4    4    0    0  0.13478438984E+03  0.16294149613E+03  0.18260278926E+03  0.29344789199E+03  0.89728054513E+02 0.  0.
         23    2    4    4    0    0 -0.25278154863E+03  0.57815916116E+02 -0.75578098247E+03  0.80420368792E+03  0.91090541282E+02 0.  0.
          2    1    3    3  502    0 -0.99140314057E+01 -0.52014761788E+02  0.13223644654E+02  0.54577360146E+02  0.00000000000E+00 0. -1.
         -1    1    3    3    0  502  0.12791119020E+03 -0.16874265046E+03  0.44871638263E+02  0.21644587910E+03  0.00000000000E+00 0.  1.
         11    1    5    5    0    0  0.61979187758E+02  0.14975615791E+02  0.63818092951E+02  0.90213290436E+02  0.00000000000E+00 0.  1.
        -11    1    5    5    0    0  0.72805202082E+02  0.14796588034E+03  0.11878469631E+03  0.20323460156E+03  0.00000000000E+00 0. -1.
          1    1    6    6  503    0 -0.80396423068E+02  0.17082298969E+02 -0.37973136973E+03  0.38852452038E+03  0.00000000000E+00 0. -1.
         -1    1    6    6    0  503 -0.17238512556E+03  0.40733617147E+02 -0.37604961274E+03  0.41567916753E+03  0.00000000000E+00 0.  1.
<mgrwt>
<rscale>  0 0.12680538E+04</rscale>
<asrwt>0</asrwt>
<pdfrwt beam="1">  1        2 0.14490444E+00 0.12680538E+04</pdfrwt>
<pdfrwt beam="2">  1       -1 0.65660916E-01 0.12680538E+04</pdfrwt>
<totfact> 0.72445114E+01</totfact>
</mgrwt>
</event>
<event>
12    6  0.1530720E-007  0.1141399E+04  0.7818608E-02  0.9165755E-01
         -1   -1    0    0    0  501 -0.00000000000E+00  0.00000000000E+00  0.12444820187E+04  0.12444820187E+04  0.00000000000E+00 0.  1.
          2   -1    0    0  501    0  0.00000000000E+00 -0.00000000000E+00 -0.26171380287E+03  0.26171380287E+03  0.00000000000E+00 0. -1.
         24    2    1    2    0    0  0.10357837411E+03 -0.14753593854E+03  0.74815841308E+02  0.20959308836E+03  0.76397119290E+02 0.  0.
        254    2    1    2    0    0 -0.10357837411E+03  0.14753593854E+03  0.90795237450E+03  0.12966027332E+04  0.90791288160E+03 0.  0.
         23    2    4    4    0    0 -0.45542075404E+03 -0.72576934039E+02  0.64202436362E+03  0.79569526239E+03  0.90885601479E+02 0.  0.
         23    2    4    4    0    0  0.35184237993E+03  0.22011287258E+03  0.26592801089E+03  0.50090747079E+03  0.89150716899E+02 0.  0.
          2    1    3    3  502    0  0.89255781665E+02 -0.15023789559E+03  0.51651618870E+02  0.18222488734E+03  0.00000000000E+00 0. -1.
         -1    1    3    3    0  502  0.14322592444E+02  0.27019570564E+01  0.23164222438E+02  0.27368201026E+02  0.00000000000E+00 0.  1.
         11    1    5    5    0    0 -0.44496473849E+03 -0.85416696464E+02  0.62490364254E+03  0.77187705821E+03  0.00000000000E+00 0. -1.
        -11    1    5    5    0    0 -0.10456015550E+02  0.12839762425E+02  0.17120721074E+02  0.23818204181E+02  0.00000000000E+00 0.  1.
          3    1    6    6  503    0  0.29283351425E+03  0.14315714082E+03  0.22248794257E+03  0.39464708110E+03  0.00000000000E+00 0. -1.
         -3    1    6    6    0  503  0.59008865678E+02  0.76955731760E+02  0.43440068324E+02  0.10626038968E+03  0.00000000000E+00 0.  1.
<mgrwt>
<rscale>  0 0.11413994E+04</rscale>
<asrwt>0</asrwt>
<pdfrwt beam="1">  1        2 0.40263663E-01 0.11413994E+04</pdfrwt>
<pdfrwt beam="2">  1       -1 0.19145877E+00 0.11413994E+04</pdfrwt>
<totfact> 0.25067522E+01</totfact>
</mgrwt>
</event>
<event>
12    6  0.1530720E-007  0.1232514E+04  0.7818608E-02  0.9084863E-01
          2   -1    0    0  501    0  0.00000000000E+00  0.00000000000E+00  0.22961685742E+04  0.22961685742E+04  0.00000000000E+00 0. -1.
         -1   -1    0    0    0  501 -0.00000000000E+00 -0.00000000000E+00 -0.16539416577E+03  0.16539416577E+03  0.00000000000E+00 0.  1.
         24    2    1    2    0    0 -0.10039455657E+03  0.79177658637E+02  0.98798869925E+03  0.99922149239E+03  0.77290053596E+02 0.  0.
        254    2    1    2    0    0  0.10039455657E+03 -0.79177658637E+02  0.11427857092E+04  0.14623412476E+04  0.90340167072E+03 0.  0.
         23    2    4    4    0    0 -0.17871272515E+03 -0.20569792776E+03  0.12717970995E+02  0.28794472913E+03  0.92198398189E+02 0.  0.
         23    2    4    4    0    0  0.27910728172E+03  0.12652026913E+03  0.11300677382E+04  0.11743965185E+04  0.90806588129E+02 0.  0.
          2    1    3    3  502    0 -0.86019111486E+02  0.57719789788E+02  0.92986815020E+03  0.93562045640E+03  0.00000000000E+00 0. -1.
         -1    1    3    3    0  502 -0.14375445083E+02  0.21457868850E+02  0.58120549049E+02  0.63601035987E+02  0.00000000000E+00 0.  1.
         11    1    5    5    0    0 -0.79549992738E+02 -0.28398582754E+02  0.12745583398E+01  0.84476655628E+02  0.00000000000E+00 0.  1.
        -11    1    5    5    0    0 -0.99162732415E+02 -0.17729934501E+03  0.11443412656E+02  0.20346807350E+03  0.00000000000E+00 0. -1.
          3    1    6    6  503    0  0.18003053253E+03  0.10768156484E+03  0.88217166514E+03  0.90677073112E+03  0.00000000000E+00 0. -1.
         -3    1    6    6    0  503  0.99076749195E+02  0.18838704283E+02  0.24789607308E+03  0.26762578736E+03  0.00000000000E+00 0.  1.
<mgrwt>
<rscale>  0 0.12325143E+04</rscale>
<asrwt>0</asrwt>
<pdfrwt beam="1">  1        2 0.35325668E+00 0.12325143E+04</pdfrwt>
<pdfrwt beam="2">  1       -1 0.25445258E-01 0.12325143E+04</pdfrwt>
<totfact> 0.69685344E+01</totfact>
</mgrwt>
</event>
<event>
12    6  0.1530720E-007  0.1477270E+04  0.7818608E-02  0.8899710E-01
          2   -1    0    0  501    0  0.00000000000E+00  0.00000000000E+00  0.74123030305E+03  0.74123030305E+03  0.00000000000E+00 0. -1.
         -1   -1    0    0    0  501 -0.00000000000E+00 -0.00000000000E+00 -0.73604907772E+03  0.73604907772E+03  0.00000000000E+00 0.  1.
         24    2    1    2    0    0  0.41837339369E+03 -0.12351222745E+02  0.18047727104E+03  0.46298787811E+03  0.81221183574E+02 0.  0.
        254    2    1    2    0    0 -0.41837339369E+03  0.12351222745E+02 -0.17529604571E+03  0.10142915027E+04  0.90712165638E+03 0.  0.
         23    2    4    4    0    0 -0.42151010662E+03 -0.30550447056E+02  0.30138715534E+03  0.52704194124E+03  0.91295622152E+02 0.  0.
         23    2    4    4    0    0  0.31367129341E+01  0.42901669801E+02 -0.47668320105E+03  0.48724956141E+03  0.91295502060E+02 0.  0.
          2    1    3    3  502    0  0.24332284848E+03  0.25097116357E+02  0.12991630659E+03  0.27697314050E+03  0.00000000000E+00 0. -1.
         -1    1    3    3    0  502  0.17505054522E+03 -0.37448339103E+02  0.50560964451E+02  0.18601473761E+03  0.00000000000E+00 0.  1.
         11    1    5    5    0    0 -0.13879092660E+03 -0.47116259764E+02  0.13068211933E+03  0.19636873364E+03  0.00000000000E+00 0. -1.
        -11    1    5    5    0    0 -0.28271918003E+03  0.16565812708E+02  0.17070503601E+03  0.33067320760E+03  0.00000000000E+00 0.  1.
          3    1    6    6  503    0 -0.37078786968E+02  0.27868311858E+02 -0.13219740945E+03  0.14009865921E+03  0.00000000000E+00 0. -1.
         -3    1    6    6    0  503  0.40215499902E+02  0.15033357944E+02 -0.34448579160E+03  0.34715090220E+03  0.00000000000E+00 0.  1.
<mgrwt>
<rscale>  0 0.14772703E+04</rscale>
<asrwt>0</asrwt>
<pdfrwt beam="1">  1        2 0.11403543E+00 0.14772703E+04</pdfrwt>
<pdfrwt beam="2">  1       -1 0.11323832E+00 0.14772703E+04</pdfrwt>
<totfact> 0.29985595E+01</totfact>
</mgrwt>
</event>
<event>
12    6  0.1530720E-007  0.1085384E+04  0.7818608E-02  0.9219556E-01
         -1   -1    0    0    0  501 -0.00000000000E+00  0.00000000000E+00  0.90043757516E+03  0.90043757516E+03  0.00000000000E+00 0.  1.
          2   -1    0    0  501    0  0.00000000000E+00 -0.00000000000E+00 -0.32707952732E+03  0.32707952732E+03  0.00000000000E+00 0. -1.
         24    2    1    2    0    0 -0.31300735381E+02  0.15543262589E+03  0.11722445704E+03  0.21278796421E+03  0.79988168850E+02 0.  0.
        254    2    1    2    0    0  0.31300735381E+02 -0.15543262589E+03  0.45613359079E+03  0.10147291383E+04  0.89245634861E+03 0.  0.
         23    2    4    4    0    0  0.27610506552E+02  0.33557257497E+03  0.18087544631E+02  0.34992106464E+03  0.93521650273E+02 0.  0.
         23    2    4    4    0    0  0.36902288291E+01 -0.49100520086E+03  0.43804604616E+03  0.66480807363E+03  0.94792990985E+02 0.  0.
          2    1    3    3  502    0 -0.27306718065E+02  0.73090200761E+02  0.11728184559E+02  0.78901106531E+02  0.00000000000E+00 0. -1.
         -1    1    3    3    0  502 -0.39940173158E+01  0.82342425134E+02  0.10549627249E+03  0.13388685768E+03  0.00000000000E+00 0.  1.
         11    1    5    5    0    0  0.26989875959E+02  0.32164523613E+03  0.38646536192E+02  0.32508101466E+03  0.00000000000E+00 0. -1.
        -11    1    5    5    0    0  0.62063059256E+00  0.13927338832E+02 -0.20558991561E+02  0.24840049985E+02  0.00000000000E+00 0.  1.
          4    1    6    6  503    0 -0.10773944420E+01 -0.26572879477E+03  0.17373019550E+03  0.31748249397E+03  0.00000000000E+00 0. -1.
         -4    1    6    6    0  503  0.47676232711E+01 -0.22527640609E+03  0.26431585066E+03  0.34732557966E+03  0.00000000000E+00 0.  1.
<mgrwt>
<rscale>  0 0.10853842E+04</rscale>
<asrwt>0</asrwt>
<pdfrwt beam="1">  1        2 0.50319928E-01 0.10853842E+04</pdfrwt>
<pdfrwt beam="2">  1       -1 0.13852886E+00 0.10853842E+04</pdfrwt>
<totfact> 0.48909050E+01</totfact>
</mgrwt>
</event>
<event>
12    6  0.1530720E-007  0.2214270E+04  0.7818608E-02  0.8512512E-01
          2   -1    0    0  501    0  0.00000000000E+00  0.00000000000E+00  0.23211223903E+04  0.23211223903E+04  0.00000000000E+00 0. -1.
         -1   -1    0    0    0  501 -0.00000000000E+00 -0.00000000000E+00 -0.52808432047E+03  0.52808432047E+03  0.00000000000E+00 0.  1.
         24    2    1    2    0    0 -0.33781587892E+03  0.79300757507E+03  0.33810108982E+03  0.92934181959E+03  0.79895484984E+02 0.  0.
        254    2    1    2    0    0  0.33781587892E+03 -0.79300757507E+03  0.14549369800E+04  0.19198648912E+04  0.90887788095E+03 0.  0.
         23    2    4    4    0    0  0.25773645436E+03 -0.98386445032E+03  0.11188092620E+04  0.15148049883E+04  0.92101311162E+02 0.  0.
         23    2    4    4    0    0  0.80079424562E+02  0.19085687525E+03  0.33612771803E+03  0.40505990285E+03  0.90843937613E+02 0.  0.
          4    1    3    3  502    0 -0.64389788425E+02  0.19307127197E+03  0.11222839634E+03  0.23241724088E+03  0.00000000000E+00 0. -1.
         -3    1    3    3    0  502 -0.27342609050E+03  0.59993630310E+03  0.22587269348E+03  0.69692457870E+03  0.00000000000E+00 0.  1.
         11    1    5    5    0    0  0.17988746847E+02 -0.17640910012E+03  0.22792984778E+03  0.28878327709E+03  0.00000000000E+00 0.  1.
        -11    1    5    5    0    0  0.23974770751E+03 -0.80745535020E+03  0.89087941420E+03  0.12260217113E+04  0.00000000000E+00 0. -1.
          3    1    6    6  503    0  0.53797252552E+01  0.35762586340E+02  0.13768368612E+03  0.14235414096E+03  0.00000000000E+00 0. -1.
         -3    1    6    6    0  503  0.74699699306E+02  0.15509428891E+03  0.19844403191E+03  0.26270576189E+03  0.00000000000E+00 0.  1.
<mgrwt>
<rscale>  0 0.22142704E+04</rscale>
<asrwt>0</asrwt>
<pdfrwt beam="1">  1        2 0.35709575E+00 0.22142704E+04</pdfrwt>
<pdfrwt beam="2">  1       -1 0.81243743E-01 0.22142704E+04</pdfrwt>
<totfact> 0.69148290E+00</totfact>
</mgrwt>
</event>
<event>
12    6  0.1530720E-007  0.1214485E+04  0.7818608E-02  0.9100271E-01
         -1   -1    0    0    0  501 -0.00000000000E+00  0.00000000000E+00  0.39666428105E+03  0.39666428105E+03  0.00000000000E+00 0.  1.
          2   -1    0    0  501    0  0.00000000000E+00 -0.00000000000E+00 -0.92961101278E+03  0.92961101278E+03  0.00000000000E+00 0. -1.
         24    2    1    2    0    0  0.24942319263E+03  0.76200561305E+02 -0.60004992068E+02  0.27911729573E+03  0.79293197294E+02 0.  0.
        254    2    1    2    0    0 -0.24942319263E+03 -0.76200561305E+02 -0.47294173966E+03  0.10471579981E+04  0.89713294963E+03 0.  0.
         23    2    4    4    0    0 -0.32358034108E+03  0.87553149571E+02  0.16018776237E+03  0.38248410637E+03  0.90907542480E+02 0.  0.
         23    2    4    4    0    0  0.74157148446E+02 -0.16375371088E+03 -0.63312950203E+03  0.66467389174E+03  0.92864716229E+02 0.  0.
          4    1    3    3  502    0  0.25237900902E+03  0.78671144315E+02 -0.65553128190E+02  0.27236285679E+03  0.00000000000E+00 0. -1.
         -3    1    3    3    0  502 -0.29558163933E+01 -0.24705830098E+01  0.55481361214E+01  0.67544389390E+01  0.00000000000E+00 0.  1.
         11    1    5    5    0    0 -0.40298959813E+02  0.43826825893E+02  0.16134687600E+02  0.61685695050E+02  0.00000000000E+00 0.  1.
        -11    1    5    5    0    0 -0.28328138126E+03  0.43726323677E+02  0.14405307477E+03  0.32079841132E+03  0.00000000000E+00 0. -1.
          3    1    6    6  503    0  0.52643853565E+02 -0.17092211665E+03 -0.57882142191E+03  0.60582174254E+03  0.00000000000E+00 0. -1.
         -3    1    6    6    0  503  0.21513294881E+02  0.71684057705E+01 -0.54308080122E+02  0.58852149191E+02  0.00000000000E+00 0.  1.
<mgrwt>
<rscale>  0 0.12144850E+04</rscale>
<asrwt>0</asrwt>
<pdfrwt beam="1">  1        2 0.14301708E+00 0.12144850E+04</pdfrwt>
<pdfrwt beam="2">  1       -1 0.61025275E-01 0.12144850E+04</pdfrwt>
<totfact> 0.85801319E+01</totfact>
</mgrwt>
</event>
<event>
12    6  0.1530720E-007  0.1714347E+04  0.7818608E-02  0.8753224E-01
          2   -1    0    0  501    0  0.00000000000E+00  0.00000000000E+00  0.13954083871E+04  0.13954083871E+04  0.00000000000E+00 0. -1.
         -1   -1    0    0    0  501 -0.00000000000E+00 -0.00000000000E+00 -0.52654593885E+03  0.52654593885E+03  0.00000000000E+00 0.  1.
         24    2    1    2    0    0  0.31899204552E+03 -0.56596590234E+02  0.91548489729E+03  0.97410857117E+03  0.76261472175E+02 0.  0.
        254    2    1    2    0    0 -0.31899204552E+03  0.56596590234E+02 -0.46622449029E+02  0.94784575478E+03  0.88953854496E+03 0.  0.
         23    2    4    4    0    0  0.66952060670E+02 -0.17517134889E+02  0.35731729683E+03  0.37551611042E+03  0.92451447396E+02 0.  0.
         23    2    4    4    0    0 -0.38594410619E+03  0.74113725123E+02 -0.40393974586E+03  0.57232964436E+03  0.99740694679E+02 0.  0.
          2    1    3    3  502    0  0.30149235906E+03 -0.59846989626E+02  0.89803816881E+03  0.94918483836E+03  0.00000000000E+00 0. -1.
         -1    1    3    3    0  502  0.17499686468E+02  0.32503993912E+01  0.17446728477E+02  0.24923732811E+02  0.00000000000E+00 0.  1.
         11    1    5    5    0    0  0.23171085220E+02  0.28596516214E+02  0.23291445773E+03  0.23580458975E+03  0.00000000000E+00 0.  1.
        -11    1    5    5    0    0  0.43780975450E+02 -0.46113651103E+02  0.12440283910E+03  0.13971152066E+03  0.00000000000E+00 0. -1.
          1    1    6    6  503    0 -0.31938133568E+02  0.29838601316E+02 -0.76367612833E+02  0.87990901769E+02  0.00000000000E+00 0. -1.
         -1    1    6    6    0  503 -0.35400597263E+03  0.44275123807E+02 -0.32757213303E+03  0.48433874260E+03  0.00000000000E+00 0.  1.
<mgrwt>
<rscale>  0 0.17143472E+04</rscale>
<asrwt>0</asrwt>
<pdfrwt beam="1">  1        2 0.21467821E+00 0.17143472E+04</pdfrwt>
<pdfrwt beam="2">  1       -1 0.81007068E-01 0.17143472E+04</pdfrwt>
<totfact> 0.23953499E+01</totfact>
</mgrwt>
</event>
<event>
12    6  0.1530720E-007  0.1395216E+04  0.7818608E-02  0.8957289E-01
          2   -1    0    0  501    0  0.00000000000E+00  0.00000000000E+00  0.11983950534E+04  0.11983950534E+04  0.00000000000E+00 0. -1.
         -1   -1    0    0    0  501 -0.00000000000E+00 -0.00000000000E+00 -0.40609064057E+03  0.40609064057E+03  0.00000000000E+00 0.  1.
         24    2    1    2    0    0  0.21184782247E+03  0.11172051895E+03 -0.13574776597E+03  0.28653701335E+03  0.79467161843E+02 0.  0.
        254    2    1    2    0    0 -0.21184782247E+03 -0.11172051895E+03  0.92805217880E+03  0.13179486806E+04  0.90462528371E+03 0.  0.
         23    2    4    4    0    0 -0.19428190744E+03 -0.43840391803E+03  0.22451395917E+03  0.53730382750E+03  0.91353326584E+02 0.  0.
         23    2    4    4    0    0 -0.17565915033E+02  0.32668339908E+03  0.70353821964E+03  0.78064485313E+03  0.86079937385E+02 0.  0.
          4    1    3    3  502    0  0.62938954500E+02  0.32095771544E+02 -0.12548122801E+01  0.70661340905E+02  0.00000000000E+00 0. -1.
         -3    1    3    3    0  502  0.14890886797E+03  0.79624747409E+02 -0.13449295369E+03  0.21587567245E+03  0.00000000000E+00 0.  1.
         11    1    5    5    0    0 -0.20405806403E+03 -0.42599807094E+03  0.21763464823E+03  0.52007585028E+03  0.00000000000E+00 0. -1.
        -11    1    5    5    0    0  0.97761565930E+01 -0.12405847093E+02  0.68793109414E+01  0.17227977213E+02  0.00000000000E+00 0.  1.
          1    1    6    6  503    0 -0.38531486545E+02  0.22891061444E+03  0.41838568757E+03  0.47846768796E+03  0.00000000000E+00 0. -1.
         -1    1    6    6    0  503  0.20965571511E+02  0.97772784643E+02  0.28515253207E+03  0.30217716517E+03  0.00000000000E+00 0.  1.
<mgrwt>
<rscale>  0 0.13952161E+04</rscale>
<asrwt>0</asrwt>
<pdfrwt beam="1">  1        2 0.18436847E+00 0.13952161E+04</pdfrwt>
<pdfrwt beam="2">  1       -1 0.62475483E-01 0.13952161E+04</pdfrwt>
<totfact> 0.54763000E+01</totfact>
</mgrwt>
</event>
<event>
12    6  0.1530720E-007  0.1499005E+04  0.7818608E-02  0.8885115E-01
          2   -1    0    0  501    0  0.00000000000E+00  0.00000000000E+00  0.96573557866E+03  0.96573557866E+03  0.00000000000E+00 0. -1.
         -1   -1    0    0    0  501 -0.00000000000E+00 -0.00000000000E+00 -0.58168505775E+03  0.58168505775E+03  0.00000000000E+00 0.  1.
         24    2    1    2    0    0 -0.21380340182E+03  0.80907237390E+02  0.55630168273E+03  0.60725640626E+03  0.83850492178E+02 0.  0.
        254    2    1    2    0    0  0.21380340182E+03 -0.80907237390E+02 -0.17225116181E+03  0.94016423016E+03  0.89553360698E+03 0.  0.
         23    2    4    4    0    0 -0.15640337427E+01 -0.27244785659E+03 -0.44676127881E+03  0.53203242758E+03  0.96086330948E+02 0.  0.
         23    2    4    4    0    0  0.21536743556E+03  0.19154061920E+03  0.27451011699E+03  0.40813180257E+03  0.90248672219E+02 0.  0.
          4    1    3    3  502    0 -0.21783645881E+03  0.87474769678E+02  0.54653461002E+03  0.59481479308E+03  0.00000000000E+00 0. -1.
         -1    1    3    3    0  502  0.40330569929E+01 -0.65675322885E+01  0.97670727112E+01  0.12441613176E+02  0.00000000000E+00 0.  1.
         11    1    5    5    0    0  0.58252864480E+01 -0.13872419487E+03 -0.31458979401E+03  0.34386781574E+03  0.00000000000E+00 0.  1.
        -11    1    5    5    0    0 -0.73893201906E+01 -0.13372366172E+03 -0.13217148479E+03  0.18816461184E+03  0.00000000000E+00 0. -1.
          1    1    6    6  503    0  0.37184793086E+02  0.74334086670E+02  0.43822102413E+02  0.93960853220E+02  0.00000000000E+00 0. -1.
         -1    1    6    6    0  503  0.17818264247E+03  0.11720653253E+03  0.23068801458E+03  0.31417094935E+03  0.00000000000E+00 0.  1.
<mgrwt>
<rscale>  0 0.14990049E+04</rscale>
<asrwt>0</asrwt>
<pdfrwt beam="1">  1        2 0.14857470E+00 0.14990049E+04</pdfrwt>
<pdfrwt beam="2">  1       -1 0.89490009E-01 0.14990049E+04</pdfrwt>
<totfact> 0.35764080E+01</totfact>
</mgrwt>
</event>
<event>
12    6  0.1530720E-007  0.2609481E+04  0.7818608E-02  0.8364988E-01
         -1   -1    0    0    0  501 -0.00000000000E+00  0.00000000000E+00  0.88325143470E+03  0.88325143470E+03  0.00000000000E+00 0.  1.
          2   -1    0    0  501    0  0.00000000000E+00 -0.00000000000E+00 -0.19273650995E+04  0.19273650995E+04  0.00000000000E+00 0. -1.
         24    2    1    2    0    0 -0.55843685080E+03  0.99979263556E+03 -0.19557085447E+03  0.11644963342E+04  0.79791746280E+02 0.  0.
        254    2    1    2    0    0  0.55843685080E+03 -0.99979263556E+03 -0.84854281034E+03  0.16461202000E+04  0.82355921553E+03 0.  0.
         23    2    4    4    0    0  0.20474435728E+03 -0.10652858592E+03  0.12307258435E+03  0.27668942686E+03  0.90230740132E+02 0.  0.
         23    2    4    4    0    0  0.35369249352E+03 -0.89326404964E+03 -0.97161539470E+03  0.13694307732E+04  0.91022661467E+02 0.  0.
          2    1    3    3  502    0 -0.28664648850E+03  0.47275233642E+03 -0.12952527612E+03  0.56783604862E+03  0.00000000000E+00 0. -1.
         -1    1    3    3    0  502 -0.27179036230E+03  0.52704029914E+03 -0.66045578351E+02  0.59666028556E+03  0.00000000000E+00 0.  1.
         11    1    5    5    0    0  0.26011579549E+02  0.26752413548E+01 -0.10600019817E+02  0.28215591560E+02  0.00000000000E+00 0. -1.
        -11    1    5    5    0    0  0.17873277773E+03 -0.10920382727E+03  0.13367260417E+03  0.24847383530E+03  0.00000000000E+00 0.  1.
          2    1    6    6  503    0  0.15435782652E+03 -0.39780729116E+03 -0.49605457414E+03  0.65432951946E+03  0.00000000000E+00 0. -1.
         -2    1    6    6    0  503  0.19933466700E+03 -0.49545675848E+03 -0.47556082056E+03  0.71510125370E+03  0.00000000000E+00 0.  1.
<mgrwt>
<rscale>  0 0.26094812E+04</rscale>
<asrwt>0</asrwt>
<pdfrwt beam="1">  1        2 0.29651771E+00 0.26094812E+04</pdfrwt>
<pdfrwt beam="2">  1       -1 0.13588484E+00 0.26094812E+04</pdfrwt>
<totfact> 0.33404394E+00</totfact>
</mgrwt>
</event>
<event>
12    6  0.1530720E-007  0.3416272E+04  0.7818608E-02  0.8133924E-01
          2   -1    0    0  501    0  0.00000000000E+00  0.00000000000E+00  0.20946566270E+04  0.20946566270E+04  0.00000000000E+00 0. -1.
         -1   -1    0    0    0  501 -0.00000000000E+00 -0.00000000000E+00 -0.13929389922E+04  0.13929389922E+04  0.00000000000E+00 0.  1.
         24    2    1    2    0    0  0.11411594741E+04  0.24810968577E+03 -0.77136261763E+03  0.14017656336E+04  0.78378837352E+02 0.  0.
        254    2    1    2    0    0 -0.11411594741E+04 -0.24810968577E+03  0.14730802525E+04  0.20858299856E+04  0.90383512718E+03 0.  0.
         23    2    4    4    0    0 -0.53509121162E+03 -0.14538808595E+03  0.13362101761E+04  0.14495072488E+04  0.90295787839E+02 0.  0.
         23    2    4    4    0    0 -0.60606826247E+03 -0.10272159982E+03  0.13687007637E+03  0.63632273680E+03  0.91119381686E+02 0.  0.
          2    1    3    3  502    0  0.29952952009E+03  0.58553629661E+02 -0.16182510541E+03  0.34544728352E+03  0.00000000000E+00 0. -1.
         -1    1    3    3    0  502  0.84162995401E+03  0.18955605611E+03 -0.60953751221E+03  0.10563183501E+04  0.00000000000E+00 0.  1.
         11    1    5    5    0    0 -0.11394266233E+03  0.15133466441E+01  0.32132333151E+03  0.34093093713E+03  0.00000000000E+00 0.  1.
        -11    1    5    5    0    0 -0.42114854929E+03 -0.14690143260E+03  0.10148868446E+04  0.11085763117E+04  0.00000000000E+00 0. -1.
          2    1    6    6  503    0 -0.18151636847E+03  0.86588842419E+01  0.25579370706E+02  0.18351422970E+03  0.00000000000E+00 0. -1.
         -2    1    6    6    0  503 -0.42455189401E+03 -0.11138048406E+03  0.11129070566E+03  0.45280850710E+03  0.00000000000E+00 0.  1.
<mgrwt>
<rscale>  0 0.34162722E+04</rscale>
<asrwt>0</asrwt>
<pdfrwt beam="1">  1        2 0.32225487E+00 0.34162722E+04</pdfrwt>
<pdfrwt beam="2">  1       -1 0.21429831E+00 0.34162722E+04</pdfrwt>
<totfact> 0.66923067E-01</totfact>
</mgrwt>
</event>
<event>
12    6  0.1530720E-007  0.1101001E+04  0.7818608E-02  0.9204217E-01
          2   -1    0    0  501    0  0.00000000000E+00  0.00000000000E+00  0.14975106683E+04  0.14975106683E+04  0.00000000000E+00 0. -1.
         -1   -1    0    0    0  501 -0.00000000000E+00 -0.00000000000E+00 -0.20236961626E+03  0.20236961626E+03  0.00000000000E+00 0.  1.
         24    2    1    2    0    0  0.27555745624E+01 -0.11398476541E+03  0.38565418794E+03  0.41007884619E+03  0.80220866854E+02 0.  0.
        254    2    1    2    0    0 -0.27555745624E+01  0.11398476541E+03  0.90948686413E+03  0.12898014384E+04  0.90742563030E+03 0.  0.
         23    2    4    4    0    0 -0.79385639355E+02 -0.25227618618E+03  0.85575833005E+03  0.90079327726E+03  0.95712355790E+02 0.  0.
         23    2    4    4    0    0  0.76630064792E+02  0.36626095159E+03  0.53728534083E+02  0.38900816114E+03  0.91767873299E+02 0.  0.
          4    1    3    3  502    0 -0.33171229156E+01 -0.95244161829E+02  0.18170833001E+03  0.20518374902E+03  0.00000000000E+00 0. -1.
         -3    1    3    3    0  502  0.60726974780E+01 -0.18740603584E+02  0.20394585792E+03  0.20489509716E+03  0.00000000000E+00 0.  1.
         11    1    5    5    0    0 -0.31856236559E+02 -0.13907353563E+03  0.60494373128E+03  0.62154097704E+03  0.00000000000E+00 0. -1.
        -11    1    5    5    0    0 -0.47529402796E+02 -0.11320265055E+03  0.25081459877E+03  0.27925230022E+03  0.00000000000E+00 0.  1.
          3    1    6    6  503    0  0.51122352024E+02  0.28063474779E+03  0.98137346413E+00  0.28525483280E+03  0.00000000000E+00 0. -1.
         -3    1    6    6    0  503  0.25507712769E+02  0.85626203802E+02  0.52747160619E+02  0.10375332834E+03  0.00000000000E+00 0.  1.
<mgrwt>
<rscale>  0 0.11010007E+04</rscale>
<asrwt>0</asrwt>
<pdfrwt beam="1">  1        2 0.23038625E+00 0.11010007E+04</pdfrwt>
<pdfrwt beam="2">  1       -1 0.31133788E-01 0.11010007E+04</pdfrwt>
<totfact> 0.13759410E+02</totfact>
</mgrwt>
</event>
<event>
12    6  0.1530720E-007  0.1625762E+04  0.7818608E-02  0.8804876E-01
         -1   -1    0    0    0  501 -0.00000000000E+00  0.00000000000E+00  0.19257236475E+03  0.19257236475E+03  0.00000000000E+00 0.  1.
          2   -1    0    0  501    0  0.00000000000E+00 -0.00000000000E+00 -0.34313083969E+04  0.34313083969E+04  0.00000000000E+00 0. -1.
         24    2    1    2    0    0  0.30622702787E+03 -0.51338026412E+03 -0.13745485208E+04  0.15011032589E+04  0.81197719167E+02 0.  0.
        254    2    1    2    0    0 -0.30622702787E+03  0.51338026412E+03 -0.18641875113E+04  0.21227775027E+04  0.82076486318E+03 0.  0.
         23    2    4    4    0    0 -0.43168728011E+03 -0.32837048611E+02 -0.73118884373E+03  0.85476644652E+03  0.92500666608E+02 0.  0.
         23    2    4    4    0    0  0.12546025224E+03  0.54621731273E+03 -0.11329986676E+04  0.12680110562E+04  0.10036149834E+03 0.  0.
          2    1    3    3  502    0  0.14174044417E+03 -0.17233369827E+03 -0.56146030706E+03  0.60417458858E+03  0.00000000000E+00 0. -1.
         -1    1    3    3    0  502  0.16448658370E+03 -0.34104656585E+03 -0.81308821375E+03  0.89692867032E+03  0.00000000000E+00 0.  1.
         11    1    5    5    0    0 -0.39435220173E+03 -0.57114428437E+01 -0.62571878547E+03  0.73964199318E+03  0.00000000000E+00 0. -1.
        -11    1    5    5    0    0 -0.37335078382E+02 -0.27125605768E+02 -0.10547005826E+03  0.11512445334E+03  0.00000000000E+00 0.  1.
          4    1    6    6  503    0  0.84548257133E+02  0.50176308010E+03 -0.10051107080E+04  0.11265709616E+04  0.00000000000E+00 0. -1.
         -4    1    6    6    0  503  0.40911995109E+02  0.44454232633E+02 -0.12788795962E+03  0.14144009460E+03  0.00000000000E+00 0.  1.
<mgrwt>
<rscale>  0 0.16257616E+04</rscale>
<asrwt>0</asrwt>
<pdfrwt beam="1">  1        2 0.52789356E+00 0.16257616E+04</pdfrwt>
<pdfrwt beam="2">  1       -1 0.29626520E-01 0.16257616E+04</pdfrwt>
<totfact> 0.10422246E+01</totfact>
</mgrwt>
</event>
<event>
12    6  0.1530720E-007  0.1411500E+04  0.7818608E-02  0.8945536E-01
         -1   -1    0    0    0  501 -0.00000000000E+00  0.00000000000E+00  0.11814735035E+04  0.11814735035E+04  0.00000000000E+00 0.  1.
          2   -1    0    0  501    0  0.00000000000E+00 -0.00000000000E+00 -0.42157804251E+03  0.42157804251E+03  0.00000000000E+00 0. -1.
         24    2    1    2    0    0  0.72104280892E+01  0.36291850860E+03 -0.55251963761E+00  0.37143952304E+03  0.78772963899E+02 0.  0.
        254    2    1    2    0    0 -0.72104280892E+01 -0.36291850860E+03  0.76044798064E+03  0.12316120230E+04  0.89823449597E+03 0.  0.
         23    2    4    4    0    0 -0.22685500555E+03 -0.57144805116E+03  0.64812559234E+03  0.89764337779E+03  0.87640068033E+02 0.  0.
         23    2    4    4    0    0  0.21964457746E+03  0.20852954257E+03  0.11232238831E+03  0.33396864520E+03  0.84796382767E+02 0.  0.
          4    1    3    3  502    0  0.82086311823E+01  0.30165222253E+03  0.29480873683E+02  0.30320053907E+03  0.00000000000E+00 0. -1.
         -3    1    3    3    0  502 -0.99820309316E+00  0.61266286070E+02 -0.30033393320E+02  0.68238983965E+02  0.00000000000E+00 0.  1.
         11    1    5    5    0    0 -0.18653907614E+03 -0.36940910562E+03  0.45843297035E+03  0.61759266718E+03  0.00000000000E+00 0.  1.
        -11    1    5    5    0    0 -0.40315929414E+02 -0.20203894554E+03  0.18969262198E+03  0.28005071061E+03  0.00000000000E+00 0. -1.
          3    1    6    6  503    0  0.18166533577E+01  0.26643715342E+02  0.26189948758E+02  0.37404561388E+02  0.00000000000E+00 0. -1.
         -3    1    6    6    0  503  0.21782792411E+03  0.18188582723E+03  0.86132439548E+02  0.29656408381E+03  0.00000000000E+00 0.  1.
<mgrwt>
<rscale>  0 0.14115003E+04</rscale>
<asrwt>0</asrwt>
<pdfrwt beam="1">  1        2 0.64858161E-01 0.14115003E+04</pdfrwt>
<pdfrwt beam="2">  1       -1 0.18176515E+00 0.14115003E+04</pdfrwt>
<totfact> 0.16846768E+01</totfact>
</mgrwt>
</event>
<event>
12    6  0.1530720E-007  0.1734261E+04  0.7818608E-02  0.8742062E-01
         -1   -1    0    0    0  501 -0.00000000000E+00  0.00000000000E+00  0.21711816045E+03  0.21711816045E+03  0.00000000000E+00 0.  1.
          2   -1    0    0  501    0  0.00000000000E+00 -0.00000000000E+00 -0.34631599764E+04  0.34631599764E+04  0.00000000000E+00 0. -1.
         24    2    1    2    0    0 -0.14048208111E+03 -0.46460477726E+02 -0.24903465486E+04  0.24959671817E+04  0.78309956579E+02 0.  0.
        254    2    1    2    0    0  0.14048208111E+03  0.46460477726E+02 -0.75569526741E+03  0.11843109551E+04  0.89979070353E+03 0.  0.
         23    2    4    4    0    0  0.23493354910E+03  0.42497422931E+03 -0.53064049953E+03  0.72515087710E+03  0.92019491171E+02 0.  0.
         23    2    4    4    0    0 -0.94451467989E+02 -0.37851375158E+03 -0.22505476788E+03  0.45916007803E+03  0.89356526171E+02 0.  0.
          2    1    3    3  502    0 -0.12381617965E+03 -0.46183630761E+02 -0.15948625144E+04  0.16003280333E+04  0.00000000000E+00 0. -1.
         -1    1    3    3    0  502 -0.16665901461E+02 -0.27684696445E+00 -0.89548403412E+03  0.89563914847E+03  0.00000000000E+00 0.  1.
         11    1    5    5    0    0  0.11476168311E+03  0.19594156937E+03 -0.31552380045E+03  0.38873977307E+03  0.00000000000E+00 0.  1.
        -11    1    5    5    0    0  0.12017186599E+03  0.22903265994E+03 -0.21511669908E+03  0.33641110404E+03  0.00000000000E+00 0. -1.
          3    1    6    6  503    0 -0.18094078674E+02 -0.77963347828E+02 -0.91387501847E+02  0.12147985340E+03  0.00000000000E+00 0. -1.
         -3    1    6    6    0  503 -0.76357389315E+02 -0.30055040375E+03 -0.13366726603E+03  0.33768022463E+03  0.00000000000E+00 0.  1.
<mgrwt>
<rscale>  0 0.17342606E+04</rscale>
<asrwt>0</asrwt>
<pdfrwt beam="1">  1        2 0.53279383E+00 0.17342606E+04</pdfrwt>
<pdfrwt beam="2">  1       -1 0.33402795E-01 0.17342606E+04</pdfrwt>
<totfact> 0.79322261E+00</totfact>
</mgrwt>
</event>
<event>
12    6  0.1530720E-007  0.2030953E+04  0.7818608E-02  0.8592284E-01
         -1   -1    0    0    0  501 -0.00000000000E+00  0.00000000000E+00  0.11675626820E+04  0.11675626820E+04  0.00000000000E+00 0.  1.
          2   -1    0    0  501    0  0.00000000000E+00 -0.00000000000E+00 -0.88320095681E+03  0.88320095681E+03  0.00000000000E+00 0. -1.
         24    2    1    2    0    0 -0.40426074102E+03  0.90871320390E+02  0.84477805860E+03  0.94331054814E+03  0.67085604639E+02 0.  0.
        254    2    1    2    0    0  0.40426074102E+03 -0.90871320390E+02 -0.56041633343E+03  0.11074530906E+04  0.86064019055E+03 0.  0.
         23    2    4    4    0    0  0.53277444254E+03  0.89838533413E+02 -0.58702155828E+02  0.55145445074E+03  0.93469243254E+02 0.  0.
         23    2    4    4    0    0 -0.12851370153E+03 -0.18070985380E+03 -0.50171417760E+03  0.55599863990E+03  0.90805004371E+02 0.  0.
          2    1    3    3  502    0  0.13371264940E+01 -0.30946583774E+01  0.58023913323E+01  0.67106305893E+01  0.00000000000E+00 0. -1.
         -3    1    3    3    0  502 -0.40559786751E+03  0.93965978767E+02  0.83897566727E+03  0.93659991755E+03  0.00000000000E+00 0.  1.
         11    1    5    5    0    0  0.19787845192E+03  0.36562078664E+02  0.23302705616E+02  0.20257266207E+03  0.00000000000E+00 0.  1.
        -11    1    5    5    0    0  0.33489599062E+03  0.53276454749E+02 -0.82004861444E+02  0.34888178867E+03  0.00000000000E+00 0. -1.
          4    1    6    6  503    0 -0.73074656637E+02 -0.15678817465E+03 -0.42137746231E+03  0.45550126552E+03  0.00000000000E+00 0.  1.
         -4    1    6    6    0  503 -0.55439044889E+02 -0.23921679155E+02 -0.80336715295E+02  0.10049737437E+03  0.00000000000E+00 0. -1.
<mgrwt>
<rscale>  0 0.20309530E+04</rscale>
<asrwt>0</asrwt>
<pdfrwt beam="1">  1        2 0.13587707E+00 0.20309530E+04</pdfrwt>
<pdfrwt beam="2">  1       -1 0.17962503E+00 0.20309530E+04</pdfrwt>
<totfact> 0.66656006E+00</totfact>
</mgrwt>
</event>
<event>
12    6  0.1530720E-007  0.1817911E+04  0.7818608E-02  0.8696832E-01
         -1   -1    0    0    0  501 -0.00000000000E+00  0.00000000000E+00  0.28111105104E+03  0.28111105104E+03  0.00000000000E+00 0.  1.
          2   -1    0    0  501    0  0.00000000000E+00 -0.00000000000E+00 -0.29390527996E+04  0.29390527996E+04  0.00000000000E+00 0. -1.
         24    2    1    2    0    0 -0.46310381518E+03  0.38647862672E+03 -0.15641584406E+04  0.16783347733E+04  0.79906892167E+02 0.  0.
        254    2    1    2    0    0  0.46310381518E+03 -0.38647862672E+03 -0.10937833080E+04  0.15418290774E+04  0.90390492113E+03 0.  0.
         23    2    4    4    0    0 -0.89651405251E+02 -0.22918755347E+02 -0.80295419621E+03  0.81349008484E+03  0.92021916501E+02 0.  0.
         23    2    4    4    0    0  0.55275522043E+03 -0.36355987137E+03 -0.29082911180E+03  0.72833899254E+03  0.90454419452E+02 0.  0.
          4    1    3    3  502    0 -0.43143572374E+03  0.34729133117E+03 -0.13693060845E+04  0.14770738659E+04  0.00000000000E+00 0. -1.
         -3    1    3    3    0  502 -0.31668091440E+02  0.39187295542E+02 -0.19485235614E+03  0.20126090738E+03  0.00000000000E+00 0.  1.
         11    1    5    5    0    0 -0.39492474080E+02  0.16685010920E+02 -0.57929332418E+03  0.58087761236E+03  0.00000000000E+00 0.  1.
        -11    1    5    5    0    0 -0.50158931170E+02 -0.39603766267E+02 -0.22366087203E+03  0.23261247248E+03  0.00000000000E+00 0. -1.
          3    1    6    6  503    0 -0.33912599373E+01 -0.35343778436E+01 -0.43250833798E+01  0.65344331771E+01  0.00000000000E+00 0. -1.
         -3    1    6    6    0  503  0.55614648037E+03 -0.36002549353E+03 -0.28650402842E+03  0.72180455936E+03  0.00000000000E+00 0.  1.
<mgrwt>
<rscale>  0 0.18179111E+04</rscale>
<asrwt>0</asrwt>
<pdfrwt beam="1">  1        2 0.45216198E+00 0.18179111E+04</pdfrwt>
<pdfrwt beam="2">  1       -1 0.43247853E-01 0.18179111E+04</pdfrwt>
<totfact> 0.10792174E+01</totfact>
</mgrwt>
</event>
<event>
12    6  0.1530720E-007  0.2234995E+04  0.7818608E-02  0.8504002E-01
         -1   -1    0    0    0  501 -0.00000000000E+00  0.00000000000E+00  0.63843456491E+03  0.63843456491E+03  0.00000000000E+00 0.  1.
          2   -1    0    0  501    0  0.00000000000E+00 -0.00000000000E+00 -0.19560356034E+04  0.19560356034E+04  0.00000000000E+00 0. -1.
         24    2    1    2    0    0 -0.62968562701E+03  0.13110223680E+03 -0.13421529475E+04  0.14904534703E+04  0.79907616536E+02 0.  0.
        254    2    1    2    0    0  0.62968562701E+03 -0.13110223680E+03  0.24551908984E+02  0.11040166981E+04  0.89697173201E+03 0.  0.
         23    2    4    4    0    0 -0.18739671015E+02 -0.38915556006E+03 -0.38399924342E+01  0.39982698713E+03  0.89742124424E+02 0.  0.
         23    2    4    4    0    0  0.64842529802E+03  0.25805332326E+03  0.28391901418E+02  0.70418971094E+03  0.89611183283E+02 0.  0.
          2    1    3    3  502    0 -0.57852276408E+03  0.97595691259E+02 -0.12277616314E+04  0.13607395530E+04  0.00000000000E+00 0. -1.
         -1    1    3    3    0  502 -0.51162862933E+02  0.33506545542E+02 -0.11439131607E+03  0.12971391725E+03  0.00000000000E+00 0.  1.
         11    1    5    5    0    0 -0.30728460369E+02 -0.29844370223E+03  0.31646603664E+02  0.30168591150E+03  0.00000000000E+00 0. -1.
        -11    1    5    5    0    0  0.11988789354E+02 -0.90711857832E+02 -0.35486596098E+02  0.98141075621E+02  0.00000000000E+00 0.  1.
          1    1    6    6  503    0  0.13619293318E+03  0.82442982452E+02 -0.20368433794E+02  0.16049994859E+03  0.00000000000E+00 0. -1.
         -1    1    6    6    0  503  0.51223236485E+03  0.17561034081E+03  0.48760335211E+02  0.54368976235E+03  0.00000000000E+00 0.  1.
<mgrwt>
<rscale>  0 0.22349951E+04</rscale>
<asrwt>0</asrwt>
<pdfrwt beam="1">  1        2 0.30092855E+00 0.22349951E+04</pdfrwt>
<pdfrwt beam="2">  1       -1 0.98220704E-01 0.22349951E+04</pdfrwt>
<totfact> 0.72808904E+00</totfact>
</mgrwt>
</event>
<event>
12    6  0.1530720E-007  0.1263691E+04  0.7818608E-02  0.9058864E-01
         -1   -1    0    0    0  501 -0.00000000000E+00  0.00000000000E+00  0.34701671376E+03  0.34701671376E+03  0.00000000000E+00 0.  1.
          2   -1    0    0  501    0  0.00000000000E+00 -0.00000000000E+00 -0.11504602632E+04  0.11504602632E+04  0.00000000000E+00 0. -1.
         24    2    1    2    0    0 -0.32294114227E+03 -0.29588699267E+02 -0.37092606906E+03  0.49909583921E+03  0.79649453943E+02 0.  0.
        254    2    1    2    0    0  0.32294114227E+03  0.29588699267E+02 -0.43251748040E+03  0.99838113776E+03  0.83936109804E+03 0.  0.
         23    2    4    4    0    0 -0.20380483950E+03 -0.18277374637E+03 -0.28613750198E+03  0.40585503723E+03  0.88887492040E+02 0.  0.
         23    2    4    4    0    0  0.52674598176E+03  0.21236244564E+03 -0.14637997842E+03  0.59252610053E+03  0.84267099807E+02 0.  0.
          2    1    3    3  502    0 -0.19209603702E+03  0.37039511452E+01 -0.16722600182E+03  0.25471384410E+03  0.00000000000E+00 0. -1.
         -1    1    3    3    0  502 -0.13084510525E+03 -0.33292650413E+02 -0.20370006724E+03  0.24438199511E+03  0.00000000000E+00 0.  1.
         11    1    5    5    0    0 -0.67366109155E+02 -0.54747639190E+02 -0.15406240629E+03  0.17683529538E+03  0.00000000000E+00 0.  1.
        -11    1    5    5    0    0 -0.13643873034E+03 -0.12802610718E+03 -0.13207509569E+03  0.22901974185E+03  0.00000000000E+00 0. -1.
          2    1    6    6  503    0  0.40415273888E+03  0.14085467723E+03 -0.14055199538E+03  0.45048234132E+03  0.00000000000E+00 0. -1.
         -2    1    6    6    0  503  0.12259324289E+03  0.71507768410E+02 -0.58279830419E+01  0.14204375921E+03  0.00000000000E+00 0.  1.
<mgrwt>
<rscale>  0 0.12636913E+04</rscale>
<asrwt>0</asrwt>
<pdfrwt beam="1">  1        2 0.17699388E+00 0.12636913E+04</pdfrwt>
<pdfrwt beam="2">  1       -1 0.53387187E-01 0.12636913E+04</pdfrwt>
<totfact> 0.80443170E+01</totfact>
</mgrwt>
</event>
<event>
12    6  0.1530720E-007  0.1465661E+04  0.7818608E-02  0.8907615E-01
          2   -1    0    0  501    0  0.00000000000E+00  0.00000000000E+00  0.14314210080E+04  0.14314210080E+04  0.00000000000E+00 0. -1.
         -1   -1    0    0    0  501 -0.00000000000E+00 -0.00000000000E+00 -0.37518001910E+03  0.37518001910E+03  0.00000000000E+00 0.  1.
         24    2    1    2    0    0  0.15782849088E+03 -0.20573696185E+02 -0.19223630911E+03  0.26289394466E+03  0.82615483372E+02 0.  0.
        254    2    1    2    0    0 -0.15782849088E+03  0.20573696185E+02  0.12484772980E+04  0.15437070824E+04  0.89386961197E+03 0.  0.
         23    2    4    4    0    0 -0.10069320038E+03  0.41547778990E+03  0.92112899257E+03  0.10196763259E+04  0.92196931791E+02 0.  0.
         23    2    4    4    0    0 -0.57135290495E+02 -0.39490409372E+03  0.32734830541E+03  0.52403075647E+03  0.90761423598E+02 0.  0.
          2    1    3    3  502    0 -0.40857927716E+01 -0.14608432835E+02 -0.29946798427E+02  0.33569491335E+02  0.00000000000E+00 0. -1.
         -1    1    3    3    0  502  0.16191428365E+03 -0.59652633503E+01 -0.16228951068E+03  0.22932445332E+03  0.00000000000E+00 0.  1.
         11    1    5    5    0    0  0.29347836440E+01 -0.40401014925E+01  0.75427594475E+01  0.90459159398E+01  0.00000000000E+00 0.  1.
        -11    1    5    5    0    0 -0.10362798402E+03  0.41951789139E+03  0.91358623312E+03  0.10106304100E+04  0.00000000000E+00 0. -1.
          2    1    6    6  503    0 -0.64279263973E+02 -0.17602890905E+03  0.18173184353E+03  0.26104494546E+03  0.00000000000E+00 0.  1.
         -2    1    6    6    0  503  0.71439734775E+01 -0.21887518466E+03  0.14561646189E+03  0.26298581101E+03  0.00000000000E+00 0. -1.
<mgrwt>
<rscale>  0 0.14656610E+04</rscale>
<asrwt>0</asrwt>
<pdfrwt beam="1">  1        2 0.22021861E+00 0.14656610E+04</pdfrwt>
<pdfrwt beam="2">  1       -1 0.57720004E-01 0.14656610E+04</pdfrwt>
<totfact> 0.46597219E+01</totfact>
</mgrwt>
</event>
<event>
12    6  0.1530720E-007  0.2322154E+04  0.7818608E-02  0.8469237E-01
         -1   -1    0    0    0  501 -0.00000000000E+00  0.00000000000E+00  0.80779531460E+03  0.80779531460E+03  0.00000000000E+00 0.  1.
          2   -1    0    0  501    0  0.00000000000E+00 -0.00000000000E+00 -0.16688624288E+04  0.16688624288E+04  0.00000000000E+00 0. -1.
         24    2    1    2    0    0 -0.16383223027E+03  0.44290667400E+03 -0.12861162770E+04  0.13724080150E+04  0.80008500898E+02 0.  0.
        254    2    1    2    0    0  0.16383223027E+03 -0.44290667400E+03  0.42504916285E+03  0.11042497283E+04  0.90315743372E+03 0.  0.
         23    2    4    4    0    0 -0.15305420147E+03 -0.61444158281E+03  0.19907443435E+03  0.66995497958E+03  0.90801965706E+02 0.  0.
         23    2    4    4    0    0  0.31688643174E+03  0.17153490880E+03  0.22597472849E+03  0.43429474873E+03  0.87784482107E+02 0.  0.
          2    1    3    3  502    0 -0.13723418745E+03  0.40871328714E+03 -0.11037179023E+04  0.11849358553E+04  0.00000000000E+00 0. -1.
         -1    1    3    3    0  502 -0.26598042819E+02  0.34193386868E+02 -0.18239837472E+03  0.18747215976E+03  0.00000000000E+00 0.  1.
         11    1    5    5    0    0 -0.53058573456E+02 -0.34831072789E+03  0.77486074236E+02  0.36074875894E+03  0.00000000000E+00 0. -1.
        -11    1    5    5    0    0 -0.99995628014E+02 -0.26613085492E+03  0.12158836012E+03  0.30920622064E+03  0.00000000000E+00 0.  1.
          2    1    6    6  503    0  0.11620858123E+03  0.11104023463E+03  0.10979037841E+03  0.19464915939E+03  0.00000000000E+00 0. -1.
         -2    1    6    6    0  503  0.20067785051E+03  0.60494674172E+02  0.11618435009E+03  0.23964558934E+03  0.00000000000E+00 0.  1.
<mgrwt>
<rscale>  0 0.23221535E+04</rscale>
<asrwt>0</asrwt>
<pdfrwt beam="1">  1        2 0.25674806E+00 0.23221535E+04</pdfrwt>
<pdfrwt beam="2">  1       -1 0.12427620E+00 0.23221535E+04</pdfrwt>
<totfact> 0.59719650E+00</totfact>
</mgrwt>
</event>
<event>
12    6  0.1530720E-007  0.1193525E+04  0.7818608E-02  0.9118543E-01
          2   -1    0    0  501    0  0.00000000000E+00  0.00000000000E+00  0.57002025698E+03  0.57002025698E+03  0.00000000000E+00 0. -1.
         -1   -1    0    0    0  501 -0.00000000000E+00 -0.00000000000E+00 -0.62475960185E+03  0.62475960185E+03  0.00000000000E+00 0.  1.
         24    2    1    2    0    0 -0.54651408619E+02  0.11936553519E+03 -0.22214365003E+03  0.27119570983E+03  0.83453006715E+02 0.  0.
        254    2    1    2    0    0  0.54651408619E+02 -0.11936553519E+03  0.16740430515E+03  0.92358414899E+03  0.89874833598E+03 0.  0.
         23    2    4    4    0    0  0.20641012408E+03  0.27333661606E+03 -0.15442983399E+03  0.38609704198E+03  0.88906170766E+02 0.  0.
         23    2    4    4    0    0 -0.15175871546E+03 -0.39270215125E+03  0.32183413914E+03  0.53748710701E+03  0.89830338867E+02 0.  0.
          4    1    3    3  502    0  0.14920878306E+02 -0.25610250214E+01 -0.23559672584E+02  0.28004457339E+02  0.00000000000E+00 0. -1.
         -1    1    3    3    0  502 -0.69572286925E+02  0.12192656021E+03 -0.19858397744E+03  0.24319125249E+03  0.00000000000E+00 0.  1.
         11    1    5    5    0    0  0.20119228977E+03  0.21195630411E+03 -0.12933561387E+03  0.31958021423E+03  0.00000000000E+00 0. -1.
        -11    1    5    5    0    0  0.52178343032E+01  0.61380311949E+02 -0.25094220121E+02  0.66516827744E+02  0.00000000000E+00 0.  1.
          3    1    6    6  503    0 -0.13530772949E+03 -0.38556617518E+03  0.32084191821E+03  0.51952766393E+03  0.00000000000E+00 0. -1.
         -3    1    6    6    0  503 -0.16450985966E+02 -0.71359760616E+01  0.99222093014E+00  0.17959443087E+02  0.00000000000E+00 0.  1.
<mgrwt>
<rscale>  0 0.11935252E+04</rscale>
<asrwt>0</asrwt>
<pdfrwt beam="1">  1        2 0.87695424E-01 0.11935252E+04</pdfrwt>
<pdfrwt beam="2">  1       -1 0.96116862E-01 0.11935252E+04</pdfrwt>
<totfact> 0.62117058E+01</totfact>
</mgrwt>
</event>
<event>
12    6  0.1530720E-007  0.1902174E+04  0.7818608E-02  0.8653775E-01
         -1   -1    0    0    0  501 -0.00000000000E+00  0.00000000000E+00  0.19131951402E+04  0.19131951402E+04  0.00000000000E+00 0.  1.
          2   -1    0    0  501    0  0.00000000000E+00 -0.00000000000E+00 -0.47280423287E+03  0.47280423287E+03  0.00000000000E+00 0. -1.
         24    2    1    2    0    0 -0.63439005299E+03 -0.32024682392E+03  0.78667138597E+03  0.10631315906E+04  0.79925852754E+02 0.  0.
        254    2    1    2    0    0  0.63439005299E+03  0.32024682392E+03  0.65371952132E+03  0.13228677824E+04  0.90422408151E+03 0.  0.
         23    2    4    4    0    0  0.84785474245E+03  0.16480412408E+03  0.46267825385E+03  0.98419610001E+03  0.92480987701E+02 0.  0.
         23    2    4    4    0    0 -0.21346468946E+03  0.15544269984E+03  0.19104126747E+03  0.33867168238E+03  0.92044206735E+02 0.  0.
          4    1    3    3  502    0 -0.87878770036E+02 -0.33740919916E+02  0.69337024952E+02  0.11691343348E+03  0.00000000000E+00 0. -1.
         -3    1    3    3    0  502 -0.54651128295E+03 -0.28650590400E+03  0.71733436102E+03  0.94621815715E+03  0.00000000000E+00 0.  1.
         11    1    5    5    0    0  0.26186020284E+03  0.94680140033E+02  0.14427729864E+03  0.31360968360E+03  0.00000000000E+00 0. -1.
        -11    1    5    5    0    0  0.58599453961E+03  0.70123984043E+02  0.31840095521E+03  0.67058641641E+03  0.00000000000E+00 0.  1.
          3    1    6    6  503    0 -0.42549943097E+02  0.45276250310E+02  0.95666434361E+02  0.11407235933E+03  0.00000000000E+00 0. -1.
         -3    1    6    6    0  503 -0.17091474636E+03  0.11016644953E+03  0.95374833105E+02  0.22459932305E+03  0.00000000000E+00 0.  1.
<mgrwt>
<rscale>  0 0.19021743E+04</rscale>
<asrwt>0</asrwt>
<pdfrwt beam="1">  1        2 0.72739114E-01 0.19021743E+04</pdfrwt>
<pdfrwt beam="2">  1       -1 0.29433771E+00 0.19021743E+04</pdfrwt>
<totfact> 0.25285976E+00</totfact>
</mgrwt>
</event>
<event>
12    6  0.1530720E-007  0.1795159E+04  0.7818608E-02  0.8708878E-01
          2   -1    0    0  501    0  0.00000000000E+00  0.00000000000E+00  0.12455035316E+04  0.12455035316E+04  0.00000000000E+00 0. -1.
         -1   -1    0    0    0  501 -0.00000000000E+00 -0.00000000000E+00 -0.64684566761E+03  0.64684566761E+03  0.00000000000E+00 0.  1.
         24    2    1    2    0    0 -0.14686966385E+03  0.29013887496E+03  0.84379989378E+03  0.90773949248E+03  0.79002914685E+02 0.  0.
        254    2    1    2    0    0  0.14686966385E+03 -0.29013887496E+03 -0.24514202976E+03  0.98460970677E+03  0.89644319117E+03 0.  0.
         23    2    4    4    0    0 -0.12472085712E+03 -0.10120335860E+03  0.29324959495E+03  0.34659157733E+03  0.91285182500E+02 0.  0.
         23    2    4    4    0    0  0.27159052097E+03 -0.18893551635E+03 -0.53839162471E+03  0.63801812944E+03  0.87997451740E+02 0.  0.
          4    1    3    3  502    0 -0.13105924748E+03  0.22702053319E+03  0.58784364836E+03  0.64364198414E+03  0.00000000000E+00 0. -1.
         -3    1    3    3    0  502 -0.15810416369E+02  0.63118341764E+02  0.25595624543E+03  0.26409750833E+03  0.00000000000E+00 0.  1.
         11    1    5    5    0    0 -0.75355269155E+02 -0.84155680834E+01  0.15847349558E+03  0.17567893208E+03  0.00000000000E+00 0. -1.
        -11    1    5    5    0    0 -0.49365587967E+02 -0.92787790521E+02  0.13477609937E+03  0.17091264525E+03  0.00000000000E+00 0.  1.
          4    1    6    6  503    0  0.16362815083E+03 -0.90729135239E+02 -0.22735248235E+03  0.29444031476E+03  0.00000000000E+00 0. -1.
         -4    1    6    6    0  503  0.10796237013E+03 -0.98206381113E+02 -0.31103914236E+03  0.34357781468E+03  0.00000000000E+00 0.  1.
<mgrwt>
<rscale>  0 0.17951586E+04</rscale>
<asrwt>0</asrwt>
<pdfrwt beam="1">  1        2 0.19161593E+00 0.17951586E+04</pdfrwt>
<pdfrwt beam="2">  1       -1 0.99514718E-01 0.17951586E+04</pdfrwt>
<totfact> 0.18470396E+01</totfact>
</mgrwt>
</event>
<event>
12    6  0.1530720E-007  0.1203671E+04  0.7818608E-02  0.9109650E-01
          2   -1    0    0  501    0  0.00000000000E+00  0.00000000000E+00  0.18280982877E+04  0.18280982877E+04  0.00000000000E+00 0. -1.
         -1   -1    0    0    0  501 -0.00000000000E+00 -0.00000000000E+00 -0.19813260195E+03  0.19813260195E+03  0.00000000000E+00 0.  1.
         24    2    1    2    0    0  0.11436023942E+03 -0.19071364107E+03  0.12625851943E+03  0.26884742793E+03  0.82992581153E+02 0.  0.
        254    2    1    2    0    0 -0.11436023942E+03  0.19071364107E+03  0.15037071664E+04  0.17573834618E+04  0.88193618376E+03 0.  0.
         23    2    4    4    0    0 -0.12458160162E+03  0.21220684611E+03  0.16002263868E+04  0.16216898372E+04  0.92742212765E+02 0.  0.
         23    2    4    4    0    0  0.10221362202E+02 -0.21493205044E+02 -0.96519220423E+02  0.13569362458E+03  0.92359979062E+02 0.  0.
          2    1    3    3  502    0  0.49280989655E+02 -0.17827260919E+02  0.32769193199E+02  0.61808148299E+02  0.00000000000E+00 0. -1.
         -1    1    3    3    0  502  0.65079249768E+02 -0.17288638015E+03  0.93489326232E+02  0.20703927963E+03  0.00000000000E+00 0.  1.
         11    1    5    5    0    0 -0.80126807771E+02  0.19616135120E+03  0.14010483857E+04  0.14169813549E+04  0.00000000000E+00 0. -1.
        -11    1    5    5    0    0 -0.44454793854E+02  0.16045494915E+02  0.19917800111E+03  0.20470848231E+03  0.00000000000E+00 0.  1.
          3    1    6    6  503    0 -0.29833969958E+01 -0.27732481392E+02 -0.11140272926E+03  0.11484145275E+03  0.00000000000E+00 0. -1.
         -3    1    6    6    0  503  0.13204759198E+02  0.62392763484E+01  0.14883508839E+02  0.20852171834E+02  0.00000000000E+00 0.  1.
<mgrwt>
<rscale>  0 0.12036708E+04</rscale>
<asrwt>0</asrwt>
<pdfrwt beam="1">  1        2 0.28124588E+00 0.12036708E+04</pdfrwt>
<pdfrwt beam="2">  1       -1 0.30481940E-01 0.12036708E+04</pdfrwt>
<totfact> 0.92854195E+01</totfact>
</mgrwt>
</event>
<event>
12    6  0.1530720E-007  0.1278203E+04  0.7818608E-02  0.9047032E-01
         -1   -1    0    0    0  501 -0.00000000000E+00  0.00000000000E+00  0.81236482294E+03  0.81236482294E+03  0.00000000000E+00 0.  1.
          2   -1    0    0  501    0  0.00000000000E+00 -0.00000000000E+00 -0.50279188781E+03  0.50279188781E+03  0.00000000000E+00 0. -1.
         24    2    1    2    0    0  0.19565163288E+03  0.21574907552E+03 -0.16519434175E+02  0.30239318664E+03  0.79633677473E+02 0.  0.
        254    2    1    2    0    0 -0.19565163288E+03 -0.21574907552E+03  0.32609236931E+03  0.10127635241E+04  0.91352421828E+03 0.  0.
         23    2    4    4    0    0  0.16506981817E+03 -0.12679830640E+03 -0.23930786520E+03  0.33005277187E+03  0.91327556065E+02 0.  0.
         23    2    4    4    0    0 -0.36072145104E+03 -0.88950769117E+02  0.56540023450E+03  0.68271075223E+03  0.91566049726E+02 0.  0.
          2    1    3    3  502    0  0.12123789105E+03  0.18375195149E+03 -0.23176110526E+01  0.22015625639E+03  0.00000000000E+00 0. -1.
         -1    1    3    3    0  502  0.74413741825E+02  0.31997124027E+02 -0.14201823123E+02  0.82236930259E+02  0.00000000000E+00 0.  1.
         11    1    5    5    0    0  0.32771331462E+02 -0.24931663491E+02 -0.37892884999E+01  0.41351018338E+02  0.00000000000E+00 0. -1.
        -11    1    5    5    0    0  0.13229848670E+03 -0.10186664291E+03 -0.23551857670E+03  0.28870175353E+03  0.00000000000E+00 0.  1.
          3    1    6    6  503    0 -0.85502106156E+02 -0.49547424766E+02  0.20461151668E+03  0.22722550521E+03  0.00000000000E+00 0. -1.
         -3    1    6    6    0  503 -0.27521934489E+03 -0.39403344351E+02  0.36078871782E+03  0.45548524702E+03  0.00000000000E+00 0.  1.
<mgrwt>
<rscale>  0 0.12782026E+04</rscale>
<asrwt>0</asrwt>
<pdfrwt beam="1">  1        2 0.77352598E-01 0.12782026E+04</pdfrwt>
<pdfrwt beam="2">  1       -1 0.12497920E+00 0.12782026E+04</pdfrwt>
<totfact> 0.38463036E+01</totfact>
</mgrwt>
</event>
<event>
12    6  0.1530720E-007  0.1242646E+04  0.7818608E-02  0.9076326E-01
         -1   -1    0    0    0  501 -0.00000000000E+00  0.00000000000E+00  0.79971041671E+03  0.79971041671E+03  0.00000000000E+00 0.  1.
          2   -1    0    0  501    0  0.00000000000E+00 -0.00000000000E+00 -0.48272789573E+03  0.48272789573E+03  0.00000000000E+00 0. -1.
         24    2    1    2    0    0  0.70136597759E+01  0.28969523401E+03  0.32915742292E+02  0.30215141529E+03  0.78990579455E+02 0.  0.
        254    2    1    2    0    0 -0.70136597759E+01 -0.28969523401E+03  0.28406677869E+03  0.98028689715E+03  0.89235415947E+03 0.  0.
         23    2    4    4    0    0 -0.32207346153E+03 -0.25541462582E+03  0.44524977528E+03  0.61287181338E+03  0.91632699084E+02 0.  0.
         23    2    4    4    0    0  0.31505980176E+03 -0.34280608187E+02 -0.16118299659E+03  0.36741508377E+03  0.92606946871E+02 0.  0.
          2    1    3    3  502    0  0.11974157765E+02  0.33995602562E+02 -0.19659118782E+02  0.41055601312E+02  0.00000000000E+00 0. -1.
         -1    1    3    3    0  502 -0.49604979888E+01  0.25569963144E+03  0.52574861075E+02  0.26109581398E+03  0.00000000000E+00 0.  1.
         11    1    5    5    0    0 -0.29449695816E+03 -0.20382430733E+03  0.41071662882E+03  0.54494124070E+03  0.00000000000E+00 0. -1.
        -11    1    5    5    0    0 -0.27576503372E+02 -0.51590318494E+02  0.34533146460E+02  0.67930572682E+02  0.00000000000E+00 0.  1.
          2    1    6    6  503    0  0.48326140492E+02 -0.31629569872E+02 -0.56696584364E+02  0.80934221586E+02  0.00000000000E+00 0. -1.
         -2    1    6    6    0  503  0.26673366127E+03 -0.26510383147E+01 -0.10448641222E+03  0.28648086218E+03  0.00000000000E+00 0.  1.
<mgrwt>
<rscale>  0 0.12426464E+04</rscale>
<asrwt>0</asrwt>
<pdfrwt beam="1">  1        2 0.74265830E-01 0.12426464E+04</pdfrwt>
<pdfrwt beam="2">  1       -1 0.12303237E+00 0.12426464E+04</pdfrwt>
<totfact> 0.42039595E+01</totfact>
</mgrwt>
</event>
<event>
12    6  0.1530720E-007  0.2663188E+04  0.7818608E-02  0.8347049E-01
          2   -1    0    0  501    0  0.00000000000E+00  0.00000000000E+00  0.14915313216E+04  0.14915313216E+04  0.00000000000E+00 0. -1.
         -1   -1    0    0    0  501 -0.00000000000E+00 -0.00000000000E+00 -0.11888066823E+04  0.11888066823E+04  0.00000000000E+00 0.  1.
         24    2    1    2    0    0  0.10126998267E+04 -0.47355546439E+02 -0.48496097543E+03  0.11267500382E+04  0.81086460676E+02 0.  0.
        254    2    1    2    0    0 -0.10126998267E+04  0.47355546439E+02  0.78768561478E+03  0.15535879656E+04  0.87486196193E+03 0.  0.
         23    2    4    4    0    0 -0.59279150709E+03  0.17393842286E+03 -0.25194162612E+02  0.62509710692E+03  0.91952712989E+02 0.  0.
         23    2    4    4    0    0 -0.41990831964E+03 -0.12658287642E+03  0.81287977739E+03  0.92849085873E+03  0.94739224957E+02 0.  0.
          2    1    3    3  502    0  0.19906790000E+03 -0.22181086667E+02 -0.63699794996E+02  0.21018490264E+03  0.00000000000E+00 0. -1.
         -1    1    3    3    0  502  0.81363192673E+03 -0.25174459772E+02 -0.42126118043E+03  0.91656513558E+03  0.00000000000E+00 0.  1.
         11    1    5    5    0    0 -0.49744976093E+03  0.15806382598E+03 -0.52681891242E+02  0.52461015945E+03  0.00000000000E+00 0.  1.
        -11    1    5    5    0    0 -0.95341746162E+02  0.15874596882E+02  0.27487728630E+02  0.10048694747E+03  0.00000000000E+00 0. -1.
          4    1    6    6  503    0 -0.20594854056E+03 -0.16943112033E+02  0.33654818994E+03  0.39492601149E+03  0.00000000000E+00 0. -1.
         -4    1    6    6    0  503 -0.21395977908E+03 -0.10963976439E+03  0.47633158745E+03  0.53356484724E+03  0.00000000000E+00 0.  1.
<mgrwt>
<rscale>  0 0.26631879E+04</rscale>
<asrwt>0</asrwt>
<pdfrwt beam="1">  1        2 0.22946636E+00 0.26631879E+04</pdfrwt>
<pdfrwt beam="2">  1       -1 0.18289334E+00 0.26631879E+04</pdfrwt>
<totfact> 0.25521388E+00</totfact>
</mgrwt>
</event>
<event>
12    6  0.1530720E-007  0.1544966E+04  0.7818608E-02  0.8855090E-01
          2   -1    0    0  501    0  0.00000000000E+00  0.00000000000E+00  0.71576383294E+03  0.71576383294E+03  0.00000000000E+00 0. -1.
         -1   -1    0    0    0  501 -0.00000000000E+00 -0.00000000000E+00 -0.83369626906E+03  0.83369626906E+03  0.00000000000E+00 0.  1.
         24    2    1    2    0    0  0.23833103722E+03  0.44927837972E+03  0.21867624329E+02  0.51517575517E+03  0.79215654618E+02 0.  0.
        254    2    1    2    0    0 -0.23833103722E+03 -0.44927837972E+03 -0.13980006045E+03  0.10342843468E+04  0.88968944437E+03 0.  0.
         23    2    4    4    0    0  0.18079216944E+03  0.38772960082E+02 -0.30145772430E+03  0.36491245385E+03  0.89973265313E+02 0.  0.
         23    2    4    4    0    0 -0.41912320666E+03 -0.48805133980E+03  0.16165766385E+03  0.66937189298E+03  0.89817360158E+02 0.  0.
          2    1    3    3  502    0  0.31604526488E+02  0.85701882579E+02 -0.23959711706E+02  0.94433715151E+02  0.00000000000E+00 0. -1.
         -1    1    3    3    0  502  0.20672651073E+03  0.36357649714E+03  0.45827336036E+02  0.42074204002E+03  0.00000000000E+00 0.  1.
         11    1    5    5    0    0  0.21152754656E+02 -0.26955952736E+01 -0.46491549779E-01  0.21323869838E+02  0.00000000000E+00 0.  1.
        -11    1    5    5    0    0  0.15963941479E+03  0.41468555355E+02 -0.30141123275E+03  0.34358858402E+03  0.00000000000E+00 0. -1.
          1    1    6    6  503    0 -0.36210840290E+03 -0.41026082202E+03  0.16882447453E+03  0.57265883450E+03  0.00000000000E+00 0. -1.
         -1    1    6    6    0  503 -0.57014803766E+02 -0.77790517783E+02 -0.71668106762E+01  0.96713058481E+02  0.00000000000E+00 0.  1.
<mgrwt>
<rscale>  0 0.15449655E+04</rscale>
<asrwt>0</asrwt>
<pdfrwt beam="1">  1        2 0.11011751E+00 0.15449655E+04</pdfrwt>
<pdfrwt beam="2">  1       -1 0.12826096E+00 0.15449655E+04</pdfrwt>
<totfact> 0.22985847E+01</totfact>
</mgrwt>
</event>
<event>
12    6  0.1530720E-007  0.3894709E+04  0.7818608E-02  0.8026131E-01
         -3   -1    0    0    0  501 -0.00000000000E+00  0.00000000000E+00  0.13216984650E+04  0.13216984650E+04  0.00000000000E+00 0.  1.
          2   -1    0    0  501    0  0.00000000000E+00 -0.00000000000E+00 -0.28691785440E+04  0.28691785440E+04  0.00000000000E+00 0. -1.
         24    2    1    2    0    0  0.14286413357E+04 -0.11214291612E+04 -0.10640855946E+04  0.21064950419E+04  0.80148481642E+02 0.  0.
        254    2    1    2    0    0 -0.14286413357E+04  0.11214291612E+04 -0.48339448440E+03  0.20843819671E+04  0.90130934053E+03 0.  0.
         23    2    4    4    0    0 -0.14860493883E+04  0.10930227091E+04 -0.58190764398E+03  0.19364869157E+04  0.91233993778E+02 0.  0.
         23    2    4    4    0    0  0.57408052617E+02  0.28406452184E+02  0.98513159576E+02  0.14789505134E+03  0.89808087448E+02 0.  0.
          4    1    3    3  502    0  0.10262535718E+04 -0.80287763082E+03 -0.72120267806E+03  0.14892757255E+04  0.00000000000E+00 0. -1.
         -3    1    3    3    0  502  0.40238776383E+03 -0.31855153043E+03 -0.34288291658E+03  0.61721931637E+03  0.00000000000E+00 0.  1.
         11    1    5    5    0    0 -0.84062625819E+03  0.59421003755E+03 -0.36751662028E+03  0.10930720657E+04  0.00000000000E+00 0.  1.
        -11    1    5    5    0    0 -0.64542313011E+03  0.49881267152E+03 -0.21439102370E+03  0.84341484999E+03  0.00000000000E+00 0. -1.
          1    1    6    6  503    0 -0.91519811724E+01 -0.10589798931E+02  0.60118031988E+02  0.61725848482E+02  0.00000000000E+00 0. -1.
         -1    1    6    6    0  503  0.66560033790E+02  0.38996251115E+02  0.38395127588E+02  0.86169202861E+02  0.00000000000E+00 0.  1.
<mgrwt>
<rscale>  0 0.38947087E+04</rscale>
<asrwt>0</asrwt>
<pdfrwt beam="1">  1        2 0.44141208E+00 0.38947087E+04</pdfrwt>
<pdfrwt beam="2">  1       -3 0.20333823E+00 0.38947087E+04</pdfrwt>
<totfact> 0.14756521E-01</totfact>
</mgrwt>
</event>
<event>
12    6  0.1530720E-007  0.1697865E+04  0.7818608E-02  0.8762583E-01
          2   -1    0    0  501    0  0.00000000000E+00  0.00000000000E+00  0.24326252553E+04  0.24326252553E+04  0.00000000000E+00 0. -1.
         -1   -1    0    0    0  501 -0.00000000000E+00 -0.00000000000E+00 -0.29625855350E+03  0.29625855350E+03  0.00000000000E+00 0.  1.
         24    2    1    2    0    0  0.12758008463E+03  0.58984727616E+03  0.87863710153E+03  0.10690198391E+04  0.81263602184E+02 0.  0.
        254    2    1    2    0    0 -0.12758008463E+03 -0.58984727616E+03  0.12577296003E+04  0.16598639697E+04  0.89948216398E+03 0.  0.
         23    2    4    4    0    0 -0.38956636277E+03 -0.27809927488E+03  0.11186561110E+04  0.12201381795E+04  0.90799364883E+02 0.  0.
         23    2    4    4    0    0  0.26198627814E+03 -0.31174800128E+03  0.13907348934E+03  0.43972579027E+03  0.90519108249E+02 0.  0.
          4    1    3    3  502    0  0.11991612004E+03  0.56778888243E+03  0.86602597351E+03  0.10424802529E+04  0.00000000000E+00 0. -1.
         -3    1    3    3    0  502  0.76639645887E+01  0.22058393731E+02  0.12611128018E+02  0.26539586227E+02  0.00000000000E+00 0.  1.
         11    1    5    5    0    0 -0.37217564818E+02 -0.20953523288E+02  0.18121222220E+03  0.18617751406E+03  0.00000000000E+00 0.  1.
        -11    1    5    5    0    0 -0.35234879796E+03 -0.25714575160E+03  0.93744388878E+03  0.10339606654E+04  0.00000000000E+00 0. -1.
          1    1    6    6  503    0  0.16670504514E+03 -0.16360403019E+03  0.37994069473E+02  0.23664403665E+03  0.00000000000E+00 0. -1.
         -1    1    6    6    0  503  0.95281233006E+02 -0.14814397109E+03  0.10107941987E+03  0.20308175362E+03  0.00000000000E+00 0.  1.
<mgrwt>
<rscale>  0 0.16978646E+04</rscale>
<asrwt>0</asrwt>
<pdfrwt beam="1">  1        2 0.37425003E+00 0.16978646E+04</pdfrwt>
<pdfrwt beam="2">  1       -1 0.45578241E-01 0.16978646E+04</pdfrwt>
<totfact> 0.19757924E+01</totfact>
</mgrwt>
</event>
<event>
12    6  0.1530720E-007  0.1879255E+04  0.7818608E-02  0.8665252E-01
          2   -1    0    0  501    0  0.00000000000E+00  0.00000000000E+00  0.87896300154E+03  0.87896300154E+03  0.00000000000E+00 0. -1.
         -1   -1    0    0    0  501 -0.00000000000E+00 -0.00000000000E+00 -0.10044788938E+04  0.10044788938E+04  0.00000000000E+00 0.  1.
         24    2    1    2    0    0  0.23094287510E+03 -0.25972873161E+02  0.64202514964E+03  0.68741045991E+03  0.79546501626E+02 0.  0.
        254    2    1    2    0    0 -0.23094287510E+03  0.25972873161E+02 -0.76754104192E+03  0.11960314354E+04  0.88733462788E+03 0.  0.
         23    2    4    4    0    0  0.10633066358E+03 -0.14850431557E+03  0.11236135561E+03  0.23344985983E+03  0.92271453105E+02 0.  0.
         23    2    4    4    0    0 -0.33727353868E+03  0.17447718873E+03 -0.87990239754E+03  0.96258157561E+03  0.90218242281E+02 0.  0.
          2    1    3    3  502    0  0.20368294918E+03  0.11257515096E+01  0.57673142017E+03  0.61164298583E+03  0.00000000000E+00 0. -1.
         -3    1    3    3    0  502  0.27259925917E+02 -0.27098624670E+02  0.65293729475E+02  0.75767474082E+02  0.00000000000E+00 0.  1.
         11    1    5    5    0    0  0.84561607179E+02 -0.98862130174E+02  0.27838541465E+02  0.13303898144E+03  0.00000000000E+00 0.  1.
        -11    1    5    5    0    0  0.21769056403E+02 -0.49642185395E+02  0.84522814149E+02  0.10041087839E+03  0.00000000000E+00 0. -1.
          1    1    6    6  503    0 -0.14268232341E+03  0.30622654572E+02 -0.38375056795E+03  0.41056119007E+03  0.00000000000E+00 0. -1.
         -1    1    6    6    0  503 -0.19459121527E+03  0.14385453416E+03 -0.49615182958E+03  0.55202038555E+03  0.00000000000E+00 0.  1.
<mgrwt>
<rscale>  0 0.18792549E+04</rscale>
<asrwt>0</asrwt>
<pdfrwt beam="1">  1        2 0.13522508E+00 0.18792549E+04</pdfrwt>
<pdfrwt beam="2">  1       -1 0.15453521E+00 0.18792549E+04</pdfrwt>
<totfact> 0.10439772E+01</totfact>
</mgrwt>
</event>
<event>
12    6  0.1530720E-007  0.2401012E+04  0.7818608E-02  0.8439125E-01
          2   -1    0    0  501    0  0.00000000000E+00  0.00000000000E+00  0.24100288283E+04  0.24100288283E+04  0.00000000000E+00 0. -1.
         -1   -1    0    0    0  501 -0.00000000000E+00 -0.00000000000E+00 -0.59800726245E+03  0.59800726245E+03  0.00000000000E+00 0.  1.
         24    2    1    2    0    0  0.64902784385E+03  0.21090857916E+03  0.16746968437E+04  0.18101956971E+04  0.80494550054E+02 0.  0.
        254    2    1    2    0    0 -0.64902784385E+03 -0.21090857916E+03  0.13732472215E+03  0.11978403937E+04  0.97480457453E+03 0.  0.
         23    2    4    4    0    0 -0.74983061694E+03 -0.28166907758E+03 -0.19832770482E+03  0.82992689178E+03  0.88664219569E+02 0.  0.
         23    2    4    4    0    0  0.10080277310E+03  0.70760498420E+02  0.33565242697E+03  0.36791350189E+03  0.86772956276E+02 0.  0.
          2    1    3    3  502    0  0.59506568866E+03  0.16842814937E+03  0.15136354852E+04  0.16351035433E+04  0.00000000000E+00 0. -1.
         -1    1    3    3    0  502  0.53962155181E+02  0.42480429790E+02  0.16106135850E+03  0.17509215376E+03  0.00000000000E+00 0.  1.
         11    1    5    5    0    0 -0.62220183217E+03 -0.19787231906E+03 -0.16948432409E+03  0.67454689290E+03  0.00000000000E+00 0. -1.
        -11    1    5    5    0    0 -0.12762878477E+03 -0.83796758517E+02 -0.28843380731E+02  0.15537999888E+03  0.00000000000E+00 0.  1.
          2    1    6    6  503    0 -0.10953924246E+01 -0.33842936731E+01  0.10516553022E+03  0.10522567213E+03  0.00000000000E+00 0. -1.
         -2    1    6    6    0  503  0.10189816552E+03  0.74144792093E+02  0.23048689674E+03  0.26268782975E+03  0.00000000000E+00 0.  1.
<mgrwt>
<rscale>  0 0.24010121E+04</rscale>
<asrwt>0</asrwt>
<pdfrwt beam="1">  1        2 0.37077366E+00 0.24010121E+04</pdfrwt>
<pdfrwt beam="2">  1       -1 0.92001118E-01 0.24010121E+04</pdfrwt>
<totfact> 0.46160098E+00</totfact>
</mgrwt>
</event>
<event>
12    6  0.1530720E-007  0.1529073E+04  0.7818608E-02  0.8865346E-01
          2   -1    0    0  501    0  0.00000000000E+00  0.00000000000E+00  0.18775268866E+04  0.18775268866E+04  0.00000000000E+00 0. -1.
         -1   -1    0    0    0  501 -0.00000000000E+00 -0.00000000000E+00 -0.31132241591E+03  0.31132241591E+03  0.00000000000E+00 0.  1.
         24    2    1    2    0    0  0.10618834437E+03 -0.46356651960E+03  0.30068888262E+03  0.56831723525E+03  0.80004957170E+02 0.  0.
        254    2    1    2    0    0 -0.10618834437E+03  0.46356651960E+03  0.12655155880E+04  0.16205320672E+04  0.89354607871E+03 0.  0.
         23    2    4    4    0    0 -0.43359254118E+02  0.72067219776E+03  0.84715178698E+03  0.11166982384E+04  0.90002021252E+02 0.  0.
         23    2    4    4    0    0 -0.62829090249E+02 -0.25710567816E+03  0.41836380105E+03  0.50383382887E+03  0.93645249527E+02 0.  0.
          2    1    3    3  502    0  0.11746770305E+03 -0.44448183346E+03  0.28214305193E+03  0.53941399990E+03  0.00000000000E+00 0. -1.
         -1    1    3    3    0  502 -0.11279358686E+02 -0.19084686143E+02  0.18545830687E+02  0.28903235345E+02  0.00000000000E+00 0.  1.
         11    1    5    5    0    0  0.13627268554E+02  0.34899147718E+03  0.36388178411E+03  0.50437159555E+03  0.00000000000E+00 0. -1.
        -11    1    5    5    0    0 -0.56986522672E+02  0.37168072058E+03  0.48327000287E+03  0.61232664281E+03  0.00000000000E+00 0.  1.
          3    1    6    6  503    0 -0.77837291929E+02 -0.17719198689E+03  0.24393231193E+03  0.31138178662E+03  0.00000000000E+00 0. -1.
         -3    1    6    6    0  503  0.15008201680E+02 -0.79913691266E+02  0.17443148912E+03  0.19245204225E+03  0.00000000000E+00 0.  1.
<mgrwt>
<rscale>  0 0.15290732E+04</rscale>
<asrwt>0</asrwt>
<pdfrwt beam="1">  1        2 0.28885028E+00 0.15290732E+04</pdfrwt>
<pdfrwt beam="2">  1       -1 0.47895757E-01 0.15290732E+04</pdfrwt>
<totfact> 0.37382885E+01</totfact>
</mgrwt>
</event>
<event>
12    6  0.1530720E-007  0.2434261E+04  0.7818608E-02  0.8426787E-01
          2   -1    0    0  501    0  0.00000000000E+00  0.00000000000E+00  0.16341654322E+04  0.16341654322E+04  0.00000000000E+00 0. -1.
         -1   -1    0    0    0  501 -0.00000000000E+00 -0.00000000000E+00 -0.90652195029E+03  0.90652195029E+03  0.00000000000E+00 0.  1.
         24    2    1    2    0    0 -0.61512051292E+03 -0.21428495306E+03 -0.54043222015E+03  0.85052898313E+03  0.83912335565E+02 0.  0.
        254    2    1    2    0    0  0.61512051292E+03  0.21428495306E+03  0.12680757021E+04  0.16901583994E+04  0.90792518540E+03 0.  0.
         23    2    4    4    0    0  0.52977496020E+02 -0.31538789437E+03  0.29945882380E+03  0.44791008268E+03  0.93122049060E+02 0.  0.
         23    2    4    4    0    0  0.56214301690E+03  0.52967284743E+03  0.96861687829E+03  0.12422483167E+04  0.91674024133E+02 0.  0.
          2    1    3    3  502    0 -0.53861332702E+02 -0.45208273296E+02 -0.50560802627E+02  0.86609617809E+02  0.00000000000E+00 0. -1.
         -3    1    3    3    0  502 -0.56125918022E+03 -0.16907667976E+03 -0.48987141752E+03  0.76391936532E+03  0.00000000000E+00 0.  1.
         11    1    5    5    0    0  0.48491064212E+02 -0.31687045333E+03  0.30368660250E+03  0.44156972274E+03  0.00000000000E+00 0. -1.
        -11    1    5    5    0    0  0.44864318082E+01  0.14825589608E+01 -0.42277787047E+01  0.63403599439E+01  0.00000000000E+00 0.  1.
          1    1    6    6  503    0  0.52176461090E+03  0.50919340546E+03  0.93609548161E+03  0.11865036806E+04  0.00000000000E+00 0. -1.
         -1    1    6    6    0  503  0.40378405997E+02  0.20479441969E+02  0.32521396680E+02  0.55744636120E+02  0.00000000000E+00 0.  1.
<mgrwt>
<rscale>  0 0.24342611E+04</rscale>
<asrwt>0</asrwt>
<pdfrwt beam="1">  1        2 0.25141007E+00 0.24342611E+04</pdfrwt>
<pdfrwt beam="2">  1       -1 0.13946492E+00 0.24342611E+04</pdfrwt>
<totfact> 0.46137511E+00</totfact>
</mgrwt>
</event>
<event>
12    6  0.1530720E-007  0.2326602E+04  0.7818608E-02  0.8467506E-01
         -1   -1    0    0    0  501 -0.00000000000E+00  0.00000000000E+00  0.45514629336E+03  0.45514629336E+03  0.00000000000E+00 0.  1.
          2   -1    0    0  501    0  0.00000000000E+00 -0.00000000000E+00 -0.29732608571E+04  0.29732608571E+04  0.00000000000E+00 0. -1.
         24    2    1    2    0    0  0.64924438449E+03 -0.53855079107E+03 -0.18338811611E+04  0.20201403857E+04  0.79321115201E+02 0.  0.
        254    2    1    2    0    0 -0.64924438449E+03  0.53855079107E+03 -0.68423340263E+03  0.14082667648E+04  0.89637308428E+03 0.  0.
         23    2    4    4    0    0 -0.57211029087E+03  0.71099012748E+02 -0.71738124362E+03  0.92463595344E+03  0.89165818397E+02 0.  0.
         23    2    4    4    0    0 -0.77134093619E+02  0.46745177833E+03  0.33147840987E+02  0.48363081136E+03  0.91318940416E+02 0.  0.
          4    1    3    3  502    0  0.38687934978E+03 -0.34881826099E+03 -0.10532501275E+04  0.11750258046E+04  0.00000000000E+00 0. -1.
         -3    1    3    3    0  502  0.26236503471E+03 -0.18973253008E+03 -0.78063103361E+03  0.84511458102E+03  0.00000000000E+00 0.  1.
         11    1    5    5    0    0 -0.10831860315E+03 -0.19663820390E+02 -0.15364756072E+03  0.18901629172E+03  0.00000000000E+00 0.  1.
        -11    1    5    5    0    0 -0.46379168772E+03  0.90762833138E+02 -0.56373368290E+03  0.73561966172E+03  0.00000000000E+00 0. -1.
          3    1    6    6  503    0 -0.16148283774E+02  0.28020241792E+03  0.53260066870E+02  0.28567603470E+03  0.00000000000E+00 0. -1.
         -3    1    6    6    0  503 -0.60985809846E+02  0.18724936041E+03 -0.20112225883E+02  0.19795477667E+03  0.00000000000E+00 0.  1.
<mgrwt>
<rscale>  0 0.23266015E+04</rscale>
<asrwt>0</asrwt>
<pdfrwt beam="1">  1        2 0.45742474E+00 0.23266015E+04</pdfrwt>
<pdfrwt beam="2">  1       -1 0.70022508E-01 0.23266015E+04</pdfrwt>
<totfact> 0.38422662E+00</totfact>
</mgrwt>
</event>
<event>
12    6  0.1530720E-007  0.1443878E+04  0.7818608E-02  0.8922656E-01
         -1   -1    0    0    0  501 -0.00000000000E+00  0.00000000000E+00  0.31441965567E+03  0.31441965567E+03  0.00000000000E+00 0.  1.
          2   -1    0    0  501    0  0.00000000000E+00 -0.00000000000E+00 -0.16576448405E+04  0.16576448405E+04  0.00000000000E+00 0. -1.
         24    2    1    2    0    0 -0.15401658989E+03  0.10691257320E+03  0.16562568278E+03  0.26197930700E+03  0.77780988878E+02 0.  0.
        254    2    1    2    0    0  0.15401658989E+03 -0.10691257320E+03 -0.15088508676E+04  0.17100851891E+04  0.78269342992E+03 0.  0.
         23    2    4    4    0    0 -0.54102220454E+02 -0.32019061015E+03 -0.26831262343E+03  0.43093855048E+03  0.90924657345E+02 0.  0.
         23    2    4    4    0    0  0.20811881035E+03  0.21327803695E+03 -0.12405382441E+04  0.12791466386E+04  0.92087066025E+02 0.  0.
          4    1    3    3  502    0 -0.58245343971E+02  0.14287984211E+02  0.16911163708E+02  0.62310946430E+02  0.00000000000E+00 0. -1.
         -3    1    3    3    0  502 -0.95771245922E+02  0.92624588990E+02  0.14871451907E+03  0.19966836057E+03  0.00000000000E+00 0.  1.
         11    1    5    5    0    0  0.18427799456E+02 -0.17256724953E+02 -0.26491626175E+02  0.36594871311E+02  0.00000000000E+00 0. -1.
        -11    1    5    5    0    0 -0.72530019910E+02 -0.30293388520E+03 -0.24182099726E+03  0.39434367917E+03  0.00000000000E+00 0.  1.
          1    1    6    6  503    0  0.52610472678E+02  0.74263396331E+02 -0.56041123722E+03  0.56775317584E+03  0.00000000000E+00 0. -1.
         -1    1    6    6    0  503  0.15550833767E+03  0.13901464062E+03 -0.68012700691E+03  0.71139346280E+03  0.00000000000E+00 0.  1.
<mgrwt>
<rscale>  0 0.14438783E+04</rscale>
<asrwt>0</asrwt>
<pdfrwt beam="1">  1        2 0.25502228E+00 0.14438783E+04</pdfrwt>
<pdfrwt beam="2">  1       -1 0.48372255E-01 0.14438783E+04</pdfrwt>
<totfact> 0.48921179E+01</totfact>
</mgrwt>
</event>
<event>
12    6  0.1530720E-007  0.2299764E+04  0.7818608E-02  0.8478014E-01
         -1   -1    0    0    0  501 -0.00000000000E+00  0.00000000000E+00  0.98048642115E+03  0.98048642115E+03  0.00000000000E+00 0.  1.
          2   -1    0    0  501    0  0.00000000000E+00 -0.00000000000E+00 -0.13485434965E+04  0.13485434965E+04  0.00000000000E+00 0. -1.
         24    2    1    2    0    0  0.11566567965E+03  0.43136330809E+03  0.71769147959E+03  0.84896533329E+03  0.78792285399E+02 0.  0.
        254    2    1    2    0    0 -0.11566567965E+03 -0.43136330809E+03 -0.10857485550E+04  0.14800645844E+04  0.90127043464E+03 0.  0.
         23    2    4    4    0    0  0.33561437473E+02 -0.87715937440E+02 -0.10859261924E+04  0.10937617493E+04  0.90876911752E+02 0.  0.
         23    2    4    4    0    0 -0.14922711712E+03 -0.34364737065E+03  0.17763745799E+00  0.38630283509E+03  0.94167940419E+02 0.  0.
          2    1    3    3  502    0  0.21993764200E+02  0.11525225097E+03  0.13007766439E+03  0.17517706982E+03  0.00000000000E+00 0. -1.
         -1    1    3    3    0  502  0.93671915450E+02  0.31611105711E+03  0.58761381519E+03  0.67378826346E+03  0.00000000000E+00 0.  1.
         11    1    5    5    0    0  0.29493847768E+02 -0.10688257284E+03 -0.89909290107E+03  0.90590386697E+03  0.00000000000E+00 0. -1.
        -11    1    5    5    0    0  0.40675897057E+01  0.19166635405E+02 -0.18683329135E+03  0.18785788234E+03  0.00000000000E+00 0.  1.
          2    1    6    6  503    0 -0.14672100462E+03 -0.34977477976E+03 -0.20842389980E+01  0.37930699151E+03  0.00000000000E+00 0. -1.
         -2    1    6    6    0  503 -0.25061125045E+01  0.61274091122E+01  0.22618764559E+01  0.69958435814E+01  0.00000000000E+00 0.  1.
<mgrwt>
<rscale>  0 0.22997640E+04</rscale>
<asrwt>0</asrwt>
<pdfrwt beam="1">  1        2 0.20746823E+00 0.22997640E+04</pdfrwt>
<pdfrwt beam="2">  1       -1 0.15084407E+00 0.22997640E+04</pdfrwt>
<totfact> 0.55004435E+00</totfact>
</mgrwt>
</event>
<event>
12    6  0.1530720E-007  0.1835694E+04  0.7818608E-02  0.8687545E-01
         -1   -1    0    0    0  501 -0.00000000000E+00  0.00000000000E+00  0.21724980668E+04  0.21724980668E+04  0.00000000000E+00 0.  1.
          2   -1    0    0  501    0  0.00000000000E+00 -0.00000000000E+00 -0.38777629986E+03  0.38777629986E+03  0.00000000000E+00 0. -1.
         24    2    1    2    0    0 -0.60670935803E+03 -0.10381060440E+02  0.11692539922E+04  0.13196505248E+04  0.78221465125E+02 0.  0.
        254    2    1    2    0    0  0.60670935803E+03  0.10381060440E+02  0.61546777470E+03  0.12406238419E+04  0.89002411420E+03 0.  0.
         23    2    4    4    0    0 -0.12159041474E+03 -0.61824058502E+02 -0.11739337980E+03  0.20075345836E+03  0.88962364275E+02 0.  0.
         23    2    4    4    0    0  0.72829977277E+03  0.72205118942E+02  0.73286115450E+03  0.10398703835E+04  0.92794420946E+02 0.  0.
          4    1    3    3  502    0 -0.11855166794E+03  0.28916022593E+02  0.22621729103E+03  0.25703092634E+03  0.00000000000E+00 0. -1.
         -1    1    3    3    0  502 -0.48815769009E+03 -0.39297083034E+02  0.94303670120E+03  0.10626195984E+04  0.00000000000E+00 0.  1.
         11    1    5    5    0    0  0.82347271351E+01 -0.14802668974E+02 -0.37692617811E+02  0.41323881439E+02  0.00000000000E+00 0.  1.
        -11    1    5    5    0    0 -0.12982514188E+03 -0.47021389527E+02 -0.79700761988E+02  0.15942957693E+03  0.00000000000E+00 0. -1.
          3    1    6    6  503    0  0.65813639944E+02 -0.19638249698E+02  0.75920903202E+02  0.10237714392E+03  0.00000000000E+00 0. -1.
         -3    1    6    6    0  503  0.66248613283E+03  0.91843368640E+02  0.65694025129E+03  0.93749323961E+03  0.00000000000E+00 0.  1.
<mgrwt>
<rscale>  0 0.18356942E+04</rscale>
<asrwt>0</asrwt>
<pdfrwt beam="1">  1        2 0.59657894E-01 0.18356942E+04</pdfrwt>
<pdfrwt beam="2">  1       -1 0.33423046E+00 0.18356942E+04</pdfrwt>
<totfact> 0.17537886E+00</totfact>
</mgrwt>
</event>
<event>
12    6  0.1530720E-007  0.1395265E+04  0.7818608E-02  0.8957253E-01
         -1   -1    0    0    0  501 -0.00000000000E+00  0.00000000000E+00  0.35144099343E+03  0.35144099343E+03  0.00000000000E+00 0.  1.
          2   -1    0    0  501    0  0.00000000000E+00 -0.00000000000E+00 -0.13848450247E+04  0.13848450247E+04  0.00000000000E+00 0. -1.
         24    2    1    2    0    0  0.39307674231E+03 -0.11357145981E+03 -0.14532307066E+03  0.44208930056E+03  0.83164613753E+02 0.  0.
        254    2    1    2    0    0 -0.39307674231E+03  0.11357145981E+03 -0.88808096055E+03  0.12941967175E+04  0.84784995683E+03 0.  0.
         23    2    4    4    0    0  0.95298481906E+02 -0.20394454178E+02  0.10838719953E+03  0.17276813837E+03  0.92754030634E+02 0.  0.
         23    2    4    4    0    0 -0.48837522421E+03  0.13396591399E+03 -0.99646816009E+03  0.11214285791E+04  0.90531974000E+02 0.  0.
          2    1    3    3  502    0  0.32379602706E+03 -0.86717513575E+02 -0.15083937425E+03  0.36758170674E+03  0.00000000000E+00 0. -1.
         -1    1    3    3    0  502  0.69280715242E+02 -0.26853946237E+02  0.55163035842E+01  0.74507593829E+02  0.00000000000E+00 0.  1.
         11    1    5    5    0    0  0.98788760519E+02  0.11597331802E+02  0.96139126239E+02  0.13833455427E+03  0.00000000000E+00 0.  1.
        -11    1    5    5    0    0 -0.34902786129E+01 -0.31991785980E+02  0.12248073295E+02  0.34433584107E+02  0.00000000000E+00 0. -1.
          3    1    6    6  503    0 -0.12749188943E+03 -0.54174043830E+00 -0.20884355450E+03  0.24468368481E+03  0.00000000000E+00 0. -1.
         -3    1    6    6    0  503 -0.36088333478E+03  0.13450765443E+03 -0.78762460558E+03  0.87674489434E+03  0.00000000000E+00 0.  1.
<mgrwt>
<rscale>  0 0.13952653E+04</rscale>
<asrwt>0</asrwt>
<pdfrwt beam="1">  1        2 0.21305308E+00 0.13952653E+04</pdfrwt>
<pdfrwt beam="2">  1       -1 0.54067846E-01 0.13952653E+04</pdfrwt>
<totfact> 0.56573762E+01</totfact>
</mgrwt>
</event>
<event>
12    6  0.1530720E-007  0.1418006E+04  0.7818608E-02  0.8940887E-01
         -1   -1    0    0    0  501 -0.00000000000E+00  0.00000000000E+00  0.15396952980E+04  0.15396952980E+04  0.00000000000E+00 0.  1.
          2   -1    0    0  501    0  0.00000000000E+00 -0.00000000000E+00 -0.32648361805E+03  0.32648361805E+03  0.00000000000E+00 0. -1.
         24    2    1    2    0    0  0.36373386838E+03  0.81290855446E+02  0.56391033719E+03  0.67990145124E+03  0.73216014811E+02 0.  0.
        254    2    1    2    0    0 -0.36373386838E+03 -0.81290855446E+02  0.64930134272E+03  0.11862774648E+04  0.92019099081E+03 0.  0.
         23    2    4    4    0    0 -0.43357054091E+03 -0.19145884630E+03  0.82090478724E+03  0.95231034934E+03  0.91490043026E+02 0.  0.
         23    2    4    4    0    0  0.69836672536E+02  0.11016799086E+03 -0.17160344452E+03  0.23396711543E+03  0.90987482048E+02 0.  0.
          2    1    3    3  502    0  0.91840519928E+02  0.48686405136E+02  0.18800110468E+03  0.21482425958E+03  0.00000000000E+00 0. -1.
         -3    1    3    3    0  502  0.27189334845E+03  0.32604450310E+02  0.37590923252E+03  0.46507719166E+03  0.00000000000E+00 0.  1.
         11    1    5    5    0    0 -0.23383241552E+02 -0.37533126430E+02  0.86596979716E+02  0.97234502421E+02  0.00000000000E+00 0.  1.
        -11    1    5    5    0    0 -0.41018729936E+03 -0.15392571987E+03  0.73430780752E+03  0.85507584692E+03  0.00000000000E+00 0. -1.
          1    1    6    6  503    0  0.37029406497E+02  0.11245779277E+03 -0.99265392256E+02  0.15450420771E+03  0.00000000000E+00 0. -1.
         -1    1    6    6    0  503  0.32807266039E+02 -0.22898019104E+01 -0.72338052264E+02  0.79462907718E+02  0.00000000000E+00 0.  1.
<mgrwt>
<rscale>  0 0.14180061E+04</rscale>
<asrwt>0</asrwt>
<pdfrwt beam="1">  1        2 0.50228250E-01 0.14180061E+04</pdfrwt>
<pdfrwt beam="2">  1       -1 0.23687619E+00 0.14180061E+04</pdfrwt>
<totfact> 0.94556793E+00</totfact>
</mgrwt>
</event>
<event>
12    6  0.1530720E-007  0.2094311E+04  0.7818608E-02  0.8563753E-01
         -1   -1    0    0    0  501 -0.00000000000E+00  0.00000000000E+00  0.78939413737E+03  0.78939413737E+03  0.00000000000E+00 0.  1.
          2   -1    0    0  501    0  0.00000000000E+00 -0.00000000000E+00 -0.13890840485E+04  0.13890840485E+04  0.00000000000E+00 0. -1.
         24    2    1    2    0    0 -0.51184168102E+03  0.43096196095E+03 -0.69528113974E+03  0.96825329903E+03  0.79927902388E+02 0.  0.
        254    2    1    2    0    0  0.51184168102E+03 -0.43096196095E+03  0.95591228594E+02  0.12102248869E+04  0.10038906691E+04 0.  0.
         23    2    4    4    0    0 -0.10101454742E+03 -0.10427593151E+03 -0.34285045244E+03  0.38311731155E+03  0.90305221254E+02 0.  0.
         23    2    4    4    0    0  0.61285622845E+03 -0.32668602944E+03  0.43844168103E+03  0.82710757531E+03  0.97771748899E+02 0.  0.
          2    1    3    3  502    0 -0.39688219241E+03  0.36061534446E+03 -0.58958983940E+03  0.79697871994E+03  0.00000000000E+00 0. -1.
         -1    1    3    3    0  502 -0.11495948862E+03  0.70346616486E+02 -0.10569130033E+03  0.17127457908E+03  0.00000000000E+00 0.  1.
         11    1    5    5    0    0 -0.44906644439E+02 -0.10092034101E+01 -0.48158624535E+02  0.65854979488E+02  0.00000000000E+00 0. -1.
        -11    1    5    5    0    0 -0.56107902984E+02 -0.10326672810E+03 -0.29469182790E+03  0.31726233206E+03  0.00000000000E+00 0.  1.
          1    1    6    6  503    0  0.22408792117E+03 -0.96200944691E+02  0.20413137954E+03  0.31802458755E+03  0.00000000000E+00 0. -1.
         -1    1    6    6    0  503  0.38876830728E+03 -0.23048508475E+03  0.23431030149E+03  0.50908298775E+03  0.00000000000E+00 0.  1.
<mgrwt>
<rscale>  0 0.20943112E+04</rscale>
<asrwt>0</asrwt>
<pdfrwt beam="1">  1        2 0.21370524E+00 0.20943112E+04</pdfrwt>
<pdfrwt beam="2">  1       -1 0.12144525E+00 0.20943112E+04</pdfrwt>
<totfact> 0.92725427E+00</totfact>
</mgrwt>
</event>
<event>
12    6  0.1530720E-007  0.1453771E+04  0.7818608E-02  0.8915791E-01
          2   -1    0    0  501    0  0.00000000000E+00  0.00000000000E+00  0.34161300306E+03  0.34161300306E+03  0.00000000000E+00 0. -1.
         -1   -1    0    0    0  501 -0.00000000000E+00 -0.00000000000E+00 -0.15466688335E+04  0.15466688335E+04  0.00000000000E+00 0.  1.
         24    2    1    2    0    0  0.15371813879E+03  0.28688752903E+01  0.15879049270E+03  0.23545753557E+03  0.81168552068E+02 0.  0.
        254    2    1    2    0    0 -0.15371813879E+03 -0.28688752903E+01 -0.13638463232E+04  0.16528243010E+04  0.92093098556E+03 0.  0.
         23    2    4    4    0    0 -0.22836660134E+03 -0.34270143484E+03 -0.11712513617E+04  0.12448711610E+04  0.90988333958E+02 0.  0.
         23    2    4    4    0    0  0.74648462554E+02  0.33983255955E+03 -0.19259496144E+03  0.40795314008E+03  0.90963640185E+02 0.  0.
          2    1    3    3  502    0  0.14496390461E+03 -0.19975788517E+02  0.14974797063E+03  0.20937531009E+03  0.00000000000E+00 0. -1.
         -1    1    3    3    0  502  0.87542341756E+01  0.22844663808E+02  0.90425220751E+01  0.26082225480E+02  0.00000000000E+00 0.  1.
         11    1    5    5    0    0  0.45665155509E+01 -0.24040417765E+02 -0.10744972646E+03  0.11020090048E+03  0.00000000000E+00 0. -1.
        -11    1    5    5    0    0 -0.23293311689E+03 -0.31866101708E+03 -0.10638016353E+04  0.11346702605E+04  0.00000000000E+00 0.  1.
          1    1    6    6  503    0  0.73820947358E+02  0.12782476916E+03 -0.80514091476E+02  0.16814048533E+03  0.00000000000E+00 0. -1.
         -1    1    6    6    0  503  0.82751519612E+00  0.21200779039E+03 -0.11208086996E+03  0.23981265475E+03  0.00000000000E+00 0.  1.
<mgrwt>
<rscale>  0 0.14537705E+04</rscale>
<asrwt>0</asrwt>
<pdfrwt beam="1">  1        2 0.52555847E-01 0.14537705E+04</pdfrwt>
<pdfrwt beam="2">  1       -1 0.23794905E+00 0.14537705E+04</pdfrwt>
<totfact> 0.88175209E+00</totfact>
</mgrwt>
</event>
<event>
12    6  0.1530720E-007  0.1855646E+04  0.7818608E-02  0.8677255E-01
          2   -1    0    0  501    0  0.00000000000E+00  0.00000000000E+00  0.90280188368E+03  0.90280188368E+03  0.00000000000E+00 0. -1.
         -1   -1    0    0    0  501 -0.00000000000E+00 -0.00000000000E+00 -0.95353715510E+03  0.95353715510E+03  0.00000000000E+00 0.  1.
         24    2    1    2    0    0  0.69366426056E+03  0.16906417885E+02  0.11477273793E+03  0.70790279475E+03  0.80608015105E+02 0.  0.
        254    2    1    2    0    0 -0.69366426056E+03 -0.16906417885E+02 -0.16550800935E+03  0.11484362440E+04  0.90003165059E+03 0.  0.
         23    2    4    4    0    0  0.20697779728E+03 -0.19594954415E+02 -0.68969944099E+02  0.23881829493E+03  0.95150165517E+02 0.  0.
         23    2    4    4    0    0 -0.90064205784E+03  0.26885365303E+01 -0.96538065251E+02  0.90961794909E+03  0.83197780552E+02 0.  0.
          2    1    3    3  502    0  0.62573691842E+03  0.35262819799E+02  0.11674881541E+03  0.63751113200E+03  0.00000000000E+00 0. -1.
         -1    1    3    3    0  502  0.67927342149E+02 -0.18356401914E+02 -0.19760774814E+01  0.70391662751E+02  0.00000000000E+00 0.  1.
         11    1    5    5    0    0  0.20222118702E+03 -0.11254593355E+02 -0.37577843201E+02  0.20599070040E+03  0.00000000000E+00 0.  1.
        -11    1    5    5    0    0  0.47566102604E+01 -0.83403610609E+01 -0.31392100898E+02  0.32827594529E+02  0.00000000000E+00 0. -1.
          1    1    6    6  503    0 -0.10575970151E+03  0.31353732737E+01  0.15298881066E+02  0.10690650490E+03  0.00000000000E+00 0. -1.
         -1    1    6    6    0  503 -0.79488235633E+03 -0.44683674342E+00 -0.11183694632E+03  0.80271144419E+03  0.00000000000E+00 0.  1.
<mgrwt>
<rscale>  0 0.18556456E+04</rscale>
<asrwt>0</asrwt>
<pdfrwt beam="1">  1        2 0.13889260E+00 0.18556456E+04</pdfrwt>
<pdfrwt beam="2">  1       -1 0.14669802E+00 0.18556456E+04</pdfrwt>
<totfact> 0.11598348E+01</totfact>
</mgrwt>
</event>
<event>
12    6  0.1530720E-007  0.2033041E+04  0.7818608E-02  0.8591327E-01
         -1   -1    0    0    0  501 -0.00000000000E+00  0.00000000000E+00  0.13984640260E+04  0.13984640260E+04  0.00000000000E+00 0.  1.
          2   -1    0    0  501    0  0.00000000000E+00 -0.00000000000E+00 -0.73889224208E+03  0.73889224208E+03  0.00000000000E+00 0. -1.
         24    2    1    2    0    0 -0.35268213646E+03  0.60606509329E+03  0.69527626665E+03  0.99061447162E+03  0.78793132606E+02 0.  0.
        254    2    1    2    0    0  0.35268213646E+03 -0.60606509329E+03 -0.35704482767E+02  0.11467417964E+04  0.90666551215E+03 0.  0.
         23    2    4    4    0    0  0.17674472635E+03 -0.82818550509E+03 -0.32746266011E+02  0.85228746329E+03  0.90507861589E+02 0.  0.
         23    2    4    4    0    0  0.17593741010E+03  0.22212041180E+03 -0.29582167564E+01  0.29445433314E+03  0.80019707848E+02 0.  0.
          4    1    3    3  502    0 -0.12160226754E+03  0.24889202341E+03  0.22872509396E+03  0.35923463000E+03  0.00000000000E+00 0. -1.
         -3    1    3    3    0  502 -0.23107986892E+03  0.35717306988E+03  0.46655117269E+03  0.63137984162E+03  0.00000000000E+00 0.  1.
         11    1    5    5    0    0  0.12209571708E+03 -0.48814866988E+03 -0.60300941094E+02  0.50678663314E+03  0.00000000000E+00 0. -1.
        -11    1    5    5    0    0  0.54649009276E+02 -0.34003683521E+03  0.27554675084E+02  0.34550083015E+03  0.00000000000E+00 0.  1.
          1    1    6    6  503    0  0.17342528821E+03  0.22873893153E+03 -0.79278232827E+00  0.28705131578E+03  0.00000000000E+00 0. -1.
         -1    1    6    6    0  503  0.25121218922E+01 -0.66185197242E+01 -0.21654344281E+01  0.74030173580E+01  0.00000000000E+00 0.  1.
<mgrwt>
<rscale>  0 0.20330413E+04</rscale>
<asrwt>0</asrwt>
<pdfrwt beam="1">  1        2 0.11367573E+00 0.20330413E+04</pdfrwt>
<pdfrwt beam="2">  1       -1 0.21514831E+00 0.20330413E+04</pdfrwt>
<totfact> 0.47965204E+00</totfact>
</mgrwt>
</event>
<event>
12    6  0.1530720E-007  0.1913079E+04  0.7818608E-02  0.8648373E-01
         -1   -1    0    0    0  501 -0.00000000000E+00  0.00000000000E+00  0.92629353232E+03  0.92629353232E+03  0.00000000000E+00 0.  1.
          2   -1    0    0  501    0  0.00000000000E+00 -0.00000000000E+00 -0.98777349049E+03  0.98777349049E+03  0.00000000000E+00 0. -1.
         24    2    1    2    0    0 -0.32206394829E+03 -0.46087167033E+02  0.64003932053E+03  0.72251112226E+03  0.80763706025E+02 0.  0.
        254    2    1    2    0    0  0.32206394829E+03  0.46087167033E+02 -0.70151927871E+03  0.11915559005E+04  0.90654671803E+03 0.  0.
         23    2    4    4    0    0 -0.57701774359E+02 -0.30371831856E+03 -0.83687889283E+01  0.32247445805E+03  0.91353312357E+02 0.  0.
         23    2    4    4    0    0  0.37976572265E+03  0.34980548559E+03 -0.69315048978E+03  0.86908144249E+03  0.90879427552E+02 0.  0.
          4    1    3    3  502    0 -0.62981294539E+02  0.18621670912E+02  0.94002421053E+02  0.11467286189E+03  0.00000000000E+00 0. -1.
         -3    1    3    3    0  502 -0.25908265375E+03 -0.64708837945E+02  0.54603689948E+03  0.60783826038E+03  0.00000000000E+00 0.  1.
         11    1    5    5    0    0 -0.80916317385E+02 -0.23260088846E+03 -0.18565619851E+02  0.24697227774E+03  0.00000000000E+00 0. -1.
        -11    1    5    5    0    0  0.23214543026E+02 -0.71117430101E+02  0.10196830923E+02  0.75502180319E+02  0.00000000000E+00 0.  1.
          1    1    6    6  503    0  0.18752774218E+03  0.22657686697E+03 -0.42557986918E+03  0.51732190731E+03  0.00000000000E+00 0. -1.
         -1    1    6    6    0  503  0.19223798047E+03  0.12322861862E+03 -0.26757062060E+03  0.35175953518E+03  0.00000000000E+00 0.  1.
<mgrwt>
<rscale>  0 0.19130794E+04</rscale>
<asrwt>0</asrwt>
<pdfrwt beam="1">  1        2 0.15196515E+00 0.19130794E+04</pdfrwt>
<pdfrwt beam="2">  1       -1 0.14250670E+00 0.19130794E+04</pdfrwt>
<totfact> 0.10953149E+01</totfact>
</mgrwt>
</event>
<event>
12    6  0.1530720E-007  0.2244687E+04  0.7818608E-02  0.8500055E-01
          2   -1    0    0  501    0  0.00000000000E+00  0.00000000000E+00  0.20744854306E+04  0.20744854306E+04  0.00000000000E+00 0. -1.
         -1   -1    0    0    0  501 -0.00000000000E+00 -0.00000000000E+00 -0.60721311007E+03  0.60721311007E+03  0.00000000000E+00 0.  1.
         24    2    1    2    0    0 -0.70086850089E+03 -0.52850745419E+03  0.19139128681E+03  0.90202710797E+03  0.80532565955E+02 0.  0.
        254    2    1    2    0    0  0.70086850089E+03  0.52850745419E+03  0.12758810338E+04  0.17796714327E+04  0.87682450439E+03 0.  0.
         23    2    4    4    0    0 -0.11154525140E+03 -0.12441368328E+03  0.25677472074E+03  0.31910545684E+03  0.89296851426E+02 0.  0.
         23    2    4    4    0    0  0.81241375229E+03  0.65292113746E+03  0.10191063130E+04  0.14605659759E+04  0.91395711304E+02 0.  0.
          2    1    3    3  502    0 -0.40875267232E+03 -0.28305022505E+03  0.72921747141E+02  0.50250747083E+03  0.00000000000E+00 0. -1.
         -1    1    3    3    0  502 -0.29211582857E+03 -0.24545722914E+03  0.11846953966E+03  0.39951963715E+03  0.00000000000E+00 0.  1.
         11    1    5    5    0    0 -0.15174561152E+02 -0.25613476981E+02  0.26103972889E+01  0.29885308819E+02  0.00000000000E+00 0. -1.
        -11    1    5    5    0    0 -0.96370690250E+02 -0.98800206294E+02  0.25416432345E+03  0.28922014802E+03  0.00000000000E+00 0.  1.
          3    1    6    6  503    0  0.43870947825E+03  0.39929922060E+03  0.61596903915E+03  0.85517467869E+03  0.00000000000E+00 0. -1.
         -3    1    6    6    0  503  0.37370427404E+03  0.25362191687E+03  0.40313727388E+03  0.60539129721E+03  0.00000000000E+00 0.  1.
<mgrwt>
<rscale>  0 0.22446868E+04</rscale>
<asrwt>0</asrwt>
<pdfrwt beam="1">  1        2 0.31915160E+00 0.22446868E+04</pdfrwt>
<pdfrwt beam="2">  1       -1 0.93417403E-01 0.22446868E+04</pdfrwt>
<totfact> 0.69969460E+00</totfact>
</mgrwt>
</event>
<event>
12    6  0.1530720E-007  0.2096391E+04  0.7818608E-02  0.8562835E-01
         -1   -1    0    0    0  501 -0.00000000000E+00  0.00000000000E+00  0.20617883517E+04  0.20617883517E+04  0.00000000000E+00 0.  1.
          2   -1    0    0  501    0  0.00000000000E+00 -0.00000000000E+00 -0.53289337125E+03  0.53289337125E+03  0.00000000000E+00 0. -1.
         24    2    1    2    0    0  0.29449775205E+03  0.72658623400E+03  0.12128672375E+04  0.14463486936E+04  0.78874116976E+02 0.  0.
        254    2    1    2    0    0 -0.29449775205E+03 -0.72658623400E+03  0.31602774296E+03  0.11483330293E+04  0.77726361715E+03 0.  0.
         23    2    4    4    0    0 -0.20912390946E+03 -0.53478731105E+03  0.56559998823E+03  0.81090154841E+03  0.89037615442E+02 0.  0.
         23    2    4    4    0    0 -0.85373842595E+02 -0.19179892294E+03 -0.24957224528E+03  0.33743148092E+03  0.86592025394E+02 0.  0.
          4    1    3    3  502    0  0.10158444514E+03  0.24042324136E+03  0.47367102116E+03  0.54082064566E+03  0.00000000000E+00 0. -1.
         -3    1    3    3    0  502  0.19291330691E+03  0.48616299264E+03  0.73919621635E+03  0.90552804796E+03  0.00000000000E+00 0.  1.
         11    1    5    5    0    0 -0.75137176879E+02 -0.10290677495E+03  0.10117921980E+03  0.16270413086E+03  0.00000000000E+00 0. -1.
        -11    1    5    5    0    0 -0.13398673258E+03 -0.43188053611E+03  0.46442076843E+03  0.64819741756E+03  0.00000000000E+00 0.  1.
          4    1    6    6  503    0  0.98211130622E+01 -0.18370846660E+01 -0.31131811439E+02  0.32695853336E+02  0.00000000000E+00 0. -1.
         -4    1    6    6    0  503 -0.95194955657E+02 -0.18996183828E+03 -0.21844043384E+03  0.30473562758E+03  0.00000000000E+00 0.  1.
<mgrwt>
<rscale>  0 0.20963906E+04</rscale>
<asrwt>0</asrwt>
<pdfrwt beam="1">  1        2 0.81983597E-01 0.20963906E+04</pdfrwt>
<pdfrwt beam="2">  1       -1 0.31719820E+00 0.20963906E+04</pdfrwt>
<totfact> 0.15370076E+00</totfact>
</mgrwt>
</event>
<event>
12    6  0.1530720E-007  0.1381887E+04  0.7818608E-02  0.8967035E-01
          2   -1    0    0  501    0  0.00000000000E+00  0.00000000000E+00  0.13287556080E+04  0.13287556080E+04  0.00000000000E+00 0. -1.
         -1   -1    0    0    0  501 -0.00000000000E+00 -0.00000000000E+00 -0.35928551556E+03  0.35928551556E+03  0.00000000000E+00 0.  1.
         24    2    1    2    0    0 -0.89266929983E+02  0.27570786824E+03  0.60731511660E+03  0.67774930576E+03  0.80802581643E+02 0.  0.
        254    2    1    2    0    0  0.89266929983E+02 -0.27570786824E+03  0.36215497583E+03  0.10102918178E+04  0.89752432680E+03 0.  0.
         23    2    4    4    0    0 -0.14717972090E+02 -0.29371882728E+03  0.63389960972E+03  0.70481890358E+03  0.91943479588E+02 0.  0.
         23    2    4    4    0    0  0.10398490207E+03  0.18010959041E+02 -0.27174463389E+03  0.30547291422E+03  0.91275959433E+02 0.  0.
          2    1    3    3  502    0 -0.14850094856E+02  0.12148409176E+03  0.32837777518E+03  0.35044382303E+03  0.00000000000E+00 0. -1.
         -1    1    3    3    0  502 -0.74416835127E+02  0.15422377648E+03  0.27893734142E+03  0.32730548273E+03  0.00000000000E+00 0.  1.
         11    1    5    5    0    0  0.16539779647E+02 -0.26171485435E+03  0.56140931338E+03  0.61963589828E+03  0.00000000000E+00 0. -1.
        -11    1    5    5    0    0 -0.31257751737E+02 -0.32003972936E+02  0.72490296339E+02  0.85183005293E+02  0.00000000000E+00 0.  1.
          2    1    6    6  503    0  0.82259443652E+01 -0.11981294025E+02 -0.13542630588E+03  0.13620389822E+03  0.00000000000E+00 0. -1.
         -2    1    6    6    0  503  0.95758957708E+02  0.29992253067E+02 -0.13631832801E+03  0.16926901600E+03  0.00000000000E+00 0.  1.
<mgrwt>
<rscale>  0 0.13818866E+04</rscale>
<asrwt>0</asrwt>
<pdfrwt beam="1">  1        2 0.20442394E+00 0.13818866E+04</pdfrwt>
<pdfrwt beam="2">  1       -1 0.55274695E-01 0.13818866E+04</pdfrwt>
<totfact> 0.58459963E+01</totfact>
</mgrwt>
</event>
<event>
12    6  0.1530720E-007  0.1692735E+04  0.7818608E-02  0.8765519E-01
          2   -1    0    0  501    0  0.00000000000E+00  0.00000000000E+00  0.12562151523E+04  0.12562151523E+04  0.00000000000E+00 0. -1.
         -1   -1    0    0    0  501 -0.00000000000E+00 -0.00000000000E+00 -0.57023476688E+03  0.57023476688E+03  0.00000000000E+00 0.  1.
         24    2    1    2    0    0  0.22028690521E+03  0.38358566481E+03 -0.21164042075E+03  0.49630058011E+03  0.76539632056E+02 0.  0.
        254    2    1    2    0    0 -0.22028690521E+03 -0.38358566481E+03  0.89762080613E+03  0.13301493390E+04  0.87630466715E+03 0.  0.
         23    2    4    4    0    0  0.50365953048E+02 -0.16577102233E+03  0.94750652062E+03  0.96771800111E+03  0.93234982595E+02 0.  0.
         23    2    4    4    0    0 -0.27065285826E+03 -0.21781464248E+03 -0.49885714489E+02  0.36243133792E+03  0.90397466980E+02 0.  0.
          2    1    3    3  502    0 -0.51516792293E+01  0.23641818787E+02 -0.11735632551E+02  0.26892386763E+02  0.00000000000E+00 0. -1.
         -1    1    3    3    0  502  0.22543858444E+03  0.35994384602E+03 -0.19990478819E+03  0.46940819335E+03  0.00000000000E+00 0.  1.
         11    1    5    5    0    0  0.56907035221E+02 -0.48870036796E+02  0.27266151708E+03  0.28279143207E+03  0.00000000000E+00 0. -1.
        -11    1    5    5    0    0 -0.65410821736E+01 -0.11690098553E+03  0.67484500354E+03  0.68492656904E+03  0.00000000000E+00 0.  1.
          1    1    6    6  503    0 -0.23619795404E+02  0.17598081600E+01 -0.19214734373E+02  0.30499142229E+02  0.00000000000E+00 0. -1.
         -1    1    6    6    0  503 -0.24703306285E+03 -0.21957445064E+03 -0.30670980117E+02  0.33193219569E+03  0.00000000000E+00 0.  1.
<mgrwt>
<rscale>  0 0.16927345E+04</rscale>
<asrwt>0</asrwt>
<pdfrwt beam="1">  1        2 0.19326387E+00 0.16927345E+04</pdfrwt>
<pdfrwt beam="2">  1       -1 0.87728426E-01 0.16927345E+04</pdfrwt>
<totfact> 0.24330872E+01</totfact>
</mgrwt>
</event>
<event>
12    6  0.1530720E-007  0.2780808E+04  0.7818608E-02  0.8309251E-01
          2   -1    0    0  501    0  0.00000000000E+00  0.00000000000E+00  0.90132873758E+03  0.90132873758E+03  0.00000000000E+00 0. -1.
         -1   -1    0    0    0  501 -0.00000000000E+00 -0.00000000000E+00 -0.21448596239E+04  0.21448596239E+04  0.00000000000E+00 0.  1.
         24    2    1    2    0    0  0.48054408347E+03 -0.38722296017E+03 -0.17018966025E+04  0.18120597437E+04  0.79020455151E+02 0.  0.
        254    2    1    2    0    0 -0.48054408347E+03  0.38722296017E+03  0.45836571614E+03  0.12341286177E+04  0.96545848092E+03 0.  0.
         23    2    4    4    0    0 -0.23987807642E+03  0.26122798350E+03 -0.26713592562E+03  0.45366470495E+03  0.93104837965E+02 0.  0.
         23    2    4    4    0    0 -0.24066600705E+03  0.12599497667E+03  0.72550164176E+03  0.78046391280E+03  0.94744001814E+02 0.  0.
          2    1    3    3  502    0  0.64884935641E+02 -0.26296689570E+02 -0.15332512915E+03  0.16855315477E+03  0.00000000000E+00 0. -1.
         -1    1    3    3    0  502  0.41565914783E+03 -0.36092627060E+03 -0.15485714733E+04  0.16435065890E+04  0.00000000000E+00 0.  1.
         11    1    5    5    0    0 -0.14504670213E+03  0.10026544506E+03 -0.98416934417E+02  0.20193463856E+03  0.00000000000E+00 0. -1.
        -11    1    5    5    0    0 -0.94831374285E+02  0.16096253844E+03 -0.16871899121E+03  0.25173006639E+03  0.00000000000E+00 0.  1.
          1    1    6    6  503    0 -0.61122984654E+02  0.50783715575E+02  0.11582206095E+03  0.14046264565E+03  0.00000000000E+00 0. -1.
         -1    1    6    6    0  503 -0.17954302240E+03  0.75211261095E+02  0.60967958081E+03  0.64000126714E+03  0.00000000000E+00 0.  1.
<mgrwt>
<rscale>  0 0.27808082E+04</rscale>
<asrwt>0</asrwt>
<pdfrwt beam="1">  1        2 0.13866596E+00 0.27808082E+04</pdfrwt>
<pdfrwt beam="2">  1       -1 0.32997841E+00 0.27808082E+04</pdfrwt>
<totfact> 0.61216845E-01</totfact>
</mgrwt>
</event>
<event>
12    6  0.1530720E-007  0.1442031E+04  0.7818608E-02  0.8923944E-01
         -1   -1    0    0    0  501 -0.00000000000E+00  0.00000000000E+00  0.47458013224E+03  0.47458013224E+03  0.00000000000E+00 0.  1.
          2   -1    0    0  501    0  0.00000000000E+00 -0.00000000000E+00 -0.10954181925E+04  0.10954181925E+04  0.00000000000E+00 0. -1.
         24    2    1    2    0    0 -0.19678456451E+03  0.32272860839E+03 -0.26931102660E+02  0.38734590318E+03  0.80210005068E+02 0.  0.
        254    2    1    2    0    0  0.19678456451E+03 -0.32272860839E+03 -0.59390695760E+03  0.11826524216E+04  0.95029645713E+03 0.  0.
         23    2    4    4    0    0  0.17497331279E+03 -0.30468408321E+01  0.22326030404E+03  0.30069665917E+03  0.99741536246E+02 0.  0.
         23    2    4    4    0    0  0.21811251723E+02 -0.31968176756E+03 -0.81716726163E+03  0.88195576238E+03  0.86089895476E+02 0.  0.
          4    1    3    3  502    0 -0.44435618178E+02  0.73006421075E+02 -0.40350184738E+02  0.94512428228E+02  0.00000000000E+00 0. -1.
         -3    1    3    3    0  502 -0.15234894633E+03  0.24972218732E+03  0.13419082078E+02  0.29283347495E+03  0.00000000000E+00 0.  1.
         11    1    5    5    0    0  0.10970364582E+03  0.45570302160E+02  0.11580041514E+03  0.16589538418E+03  0.00000000000E+00 0.  1.
        -11    1    5    5    0    0  0.65269666967E+02 -0.48617142992E+02  0.10745988889E+03  0.13480127499E+03  0.00000000000E+00 0. -1.
          3    1    6    6  503    0  0.73664311033E+01 -0.13422202991E+03 -0.46014527286E+03  0.47937823246E+03  0.00000000000E+00 0. -1.
         -3    1    6    6    0  503  0.14444820619E+02 -0.18545973765E+03 -0.35702198877E+03  0.40257752992E+03  0.00000000000E+00 0.  1.
<mgrwt>
<rscale>  0 0.14420315E+04</rscale>
<asrwt>0</asrwt>
<pdfrwt beam="1">  1        2 0.16852587E+00 0.14420315E+04</pdfrwt>
<pdfrwt beam="2">  1       -1 0.73012328E-01 0.14420315E+04</pdfrwt>
<totfact> 0.45900676E+01</totfact>
</mgrwt>
</event>
<event>
12    6  0.1530720E-007  0.3156149E+04  0.7818608E-02  0.8200495E-01
         -1   -1    0    0    0  501 -0.00000000000E+00  0.00000000000E+00  0.17761480258E+04  0.17761480258E+04  0.00000000000E+00 0.  1.
          2   -1    0    0  501    0  0.00000000000E+00 -0.00000000000E+00 -0.14020901431E+04  0.14020901431E+04  0.00000000000E+00 0. -1.
         24    2    1    2    0    0  0.41722293076E+03 -0.95007508167E+03  0.11925189912E+04  0.15828878818E+04  0.81944293744E+02 0.  0.
        254    2    1    2    0    0 -0.41722293076E+03  0.95007508167E+03 -0.81846110854E+03  0.15953502871E+04  0.89361418834E+03 0.  0.
         23    2    4    4    0    0 -0.54319113514E+03  0.19792277922E+03 -0.23234443676E+03  0.62937998281E+03  0.88911133362E+02 0.  0.
         23    2    4    4    0    0  0.12596820438E+03  0.75215230245E+03 -0.58611667178E+03  0.96597030430E+03  0.89245735224E+02 0.  0.
          2    1    3    3  502    0  0.23061313854E+03 -0.58130948834E+03  0.66708705172E+03  0.91438956439E+03  0.00000000000E+00 0. -1.
         -1    1    3    3    0  502  0.18660979222E+03 -0.36876559333E+03  0.52543193944E+03  0.66849831740E+03  0.00000000000E+00 0.  1.
         11    1    5    5    0    0 -0.38902790602E+03  0.12207377596E+03 -0.20156350602E+03  0.45483245860E+03  0.00000000000E+00 0.  1.
        -11    1    5    5    0    0 -0.15416322912E+03  0.75849003261E+02 -0.30780930737E+02  0.17454752420E+03  0.00000000000E+00 0. -1.
          1    1    6    6  503    0 -0.30080409506E+01  0.15159596161E+03 -0.14443821513E+03  0.20941055817E+03  0.00000000000E+00 0. -1.
         -1    1    6    6    0  503  0.12897624533E+03  0.60055634084E+03 -0.44167845665E+03  0.75655974613E+03  0.00000000000E+00 0.  1.
<mgrwt>
<rscale>  0 0.31561493E+04</rscale>
<asrwt>0</asrwt>
<pdfrwt beam="1">  1        2 0.21570618E+00 0.31561493E+04</pdfrwt>
<pdfrwt beam="2">  1       -1 0.27325354E+00 0.31561493E+04</pdfrwt>
<totfact> 0.68350472E-01</totfact>
</mgrwt>
</event>
<event>
12    6  0.1530720E-007  0.2400477E+04  0.7818608E-02  0.8439325E-01
         -1   -1    0    0    0  501 -0.00000000000E+00  0.00000000000E+00  0.55635890920E+03  0.55635890920E+03  0.00000000000E+00 0.  1.
          2   -1    0    0  501    0  0.00000000000E+00 -0.00000000000E+00 -0.25892855683E+04  0.25892855683E+04  0.00000000000E+00 0. -1.
         24    2    1    2    0    0  0.49245200212E+03 -0.85521123045E+03 -0.12459319074E+04  0.15913423960E+04  0.78288443967E+02 0.  0.
        254    2    1    2    0    0 -0.49245200212E+03  0.85521123045E+03 -0.78699475168E+03  0.15543020814E+04  0.90697243516E+03 0.  0.
         23    2    4    4    0    0  0.14257440068E+03  0.17530924652E+03  0.10202863836E+03  0.26399884524E+03  0.90690438302E+02 0.  0.
         23    2    4    4    0    0 -0.63502640280E+03  0.67990198392E+03 -0.88902339003E+03  0.12903032362E+04  0.94839935295E+02 0.  0.
          2    1    3    3  502    0  0.28316238455E+03 -0.55206749506E+03 -0.81830036010E+03  0.10269249897E+04  0.00000000000E+00 0. -1.
         -1    1    3    3    0  502  0.20928961757E+03 -0.30314373538E+03 -0.42763154727E+03  0.56441740631E+03  0.00000000000E+00 0.  1.
         11    1    5    5    0    0  0.10992335124E+03  0.16768696130E+03  0.11114939225E+03  0.22925149407E+03  0.00000000000E+00 0. -1.
        -11    1    5    5    0    0  0.32651049441E+02  0.76222852271E+01 -0.91207538984E+01  0.34747351171E+02  0.00000000000E+00 0.  1.
          3    1    6    6  503    0 -0.60984191037E+03  0.67252059080E+03 -0.87335373772E+03  0.12597372154E+04  0.00000000000E+00 0. -1.
         -3    1    6    6    0  503 -0.25184492435E+02  0.73813931266E+01 -0.15669652310E+02  0.30566020794E+02  0.00000000000E+00 0.  1.
<mgrwt>
<rscale>  0 0.24004767E+04</rscale>
<asrwt>0</asrwt>
<pdfrwt beam="1">  1        2 0.39835163E+00 0.24004767E+04</pdfrwt>
<pdfrwt beam="2">  1       -1 0.85593678E-01 0.24004767E+04</pdfrwt>
<totfact> 0.42587215E+00</totfact>
</mgrwt>
</event>
<event>
12    6  0.1530720E-007  0.1975463E+04  0.7818608E-02  0.8618179E-01
         -1   -1    0    0    0  501 -0.00000000000E+00  0.00000000000E+00  0.46164724396E+03  0.46164724396E+03  0.00000000000E+00 0.  1.
          2   -1    0    0  501    0  0.00000000000E+00 -0.00000000000E+00 -0.21133315828E+04  0.21133315828E+04  0.00000000000E+00 0. -1.
         24    2    1    2    0    0  0.18441934080E+02 -0.14627974063E+03  0.34205550635E+03  0.38124005965E+03  0.81265898182E+02 0.  0.
        254    2    1    2    0    0 -0.18441934080E+02  0.14627974063E+03 -0.19937398452E+04  0.21937387671E+04  0.90319064465E+03 0.  0.
         23    2    4    4    0    0  0.92191542874E+02 -0.34496988226E+03 -0.54988136675E+03  0.66184812281E+03  0.90387609367E+02 0.  0.
         23    2    4    4    0    0 -0.11063347695E+03  0.49124962289E+03 -0.14438584785E+04  0.15318906443E+04  0.91627954828E+02 0.  0.
          4    1    3    3  502    0  0.31221706269E+02 -0.46564221182E+02  0.61507303280E+02  0.83223614398E+02  0.00000000000E+00 0. -1.
         -3    1    3    3    0  502 -0.12779772189E+02 -0.99715519450E+02  0.28054820307E+03  0.29801644525E+03  0.00000000000E+00 0.  1.
         11    1    5    5    0    0  0.55001100225E+02 -0.13873896898E+03 -0.15727658553E+03  0.21681685104E+03  0.00000000000E+00 0. -1.
        -11    1    5    5    0    0  0.37190442649E+02 -0.20623091328E+03 -0.39260478122E+03  0.44503127177E+03  0.00000000000E+00 0.  1.
          4    1    6    6  503    0 -0.98322475798E+01  0.18453365450E+03 -0.43481143095E+03  0.47245139773E+03  0.00000000000E+00 0. -1.
         -4    1    6    6    0  503 -0.10080122937E+03  0.30671596840E+03 -0.10090470475E+04  0.10594392466E+04  0.00000000000E+00 0.  1.
<mgrwt>
<rscale>  0 0.19754632E+04</rscale>
<asrwt>0</asrwt>
<pdfrwt beam="1">  1        2 0.32512794E+00 0.19754632E+04</pdfrwt>
<pdfrwt beam="2">  1       -1 0.71022653E-01 0.19754632E+04</pdfrwt>
<totfact> 0.12258136E+01</totfact>
</mgrwt>
</event>
<event>
12    6  0.1530720E-007  0.1540225E+04  0.7818608E-02  0.8858136E-01
         -1   -1    0    0    0  501 -0.00000000000E+00  0.00000000000E+00  0.52806824059E+03  0.52806824059E+03  0.00000000000E+00 0.  1.
          2   -1    0    0  501    0  0.00000000000E+00 -0.00000000000E+00 -0.11230994922E+04  0.11230994922E+04  0.00000000000E+00 0. -1.
         24    2    1    2    0    0  0.11532614502E+03  0.29105884119E+03  0.20363952577E+03  0.38203028168E+03  0.80390987720E+02 0.  0.
        254    2    1    2    0    0 -0.11532614502E+03 -0.29105884119E+03 -0.79867077743E+03  0.12691374511E+04  0.93531785530E+03 0.  0.
         23    2    4    4    0    0 -0.28505352156E+03 -0.49808240235E+02  0.99373352679E+02  0.31931050401E+03  0.91366097640E+02 0.  0.
         23    2    4    4    0    0  0.16972737653E+03 -0.24125060096E+03 -0.89804413011E+03  0.94982694714E+03  0.93159728929E+02 0.  0.
          2    1    3    3  502    0 -0.51008404174E+01  0.88811753131E+00 -0.30117122094E+01  0.59898026800E+01  0.00000000000E+00 0. -1.
         -1    1    3    3    0  502  0.12042698544E+03  0.29017072366E+03  0.20665123797E+03  0.37604047900E+03  0.00000000000E+00 0.  1.
         11    1    5    5    0    0 -0.16177549875E+03 -0.43060168054E+01  0.95366381566E+02  0.18784195620E+03  0.00000000000E+00 0.  1.
        -11    1    5    5    0    0 -0.12327802281E+03 -0.45502223430E+02  0.40069711137E+01  0.13146854780E+03  0.00000000000E+00 0. -1.
          3    1    6    6  503    0  0.19209006914E+00  0.80757428201E+00 -0.80588161763E+02  0.80592436935E+02  0.00000000000E+00 0. -1.
         -3    1    6    6    0  503  0.16953528647E+03 -0.24205817524E+03 -0.81745596834E+03  0.86923451021E+03  0.00000000000E+00 0.  1.
<mgrwt>
<rscale>  0 0.15402249E+04</rscale>
<asrwt>0</asrwt>
<pdfrwt beam="1">  1        2 0.17278453E+00 0.15402249E+04</pdfrwt>
<pdfrwt beam="2">  1       -1 0.81241269E-01 0.15402249E+04</pdfrwt>
<totfact> 0.34969012E+01</totfact>
</mgrwt>
</event>
<event>
12    6  0.1530720E-007  0.1373901E+04  0.7818608E-02  0.8972930E-01
          2   -1    0    0  501    0  0.00000000000E+00  0.00000000000E+00  0.24144086777E+04  0.24144086777E+04  0.00000000000E+00 0. -1.
         -1   -1    0    0    0  501 -0.00000000000E+00 -0.00000000000E+00 -0.19545199878E+03  0.19545199878E+03  0.00000000000E+00 0.  1.
         24    2    1    2    0    0 -0.35807686161E+03 -0.17011436843E+02  0.37981386176E+03  0.52838590981E+03  0.80154053473E+02 0.  0.
        254    2    1    2    0    0  0.35807686161E+03  0.17011436843E+02  0.18391428171E+04  0.20814747666E+04  0.90641186809E+03 0.  0.
         23    2    4    4    0    0  0.51649358171E+03 -0.20535529333E+03  0.16320545259E+04  0.17265277411E+04  0.91431115443E+02 0.  0.
         23    2    4    4    0    0 -0.15841672010E+03  0.22236673017E+03  0.20708829123E+03  0.35494702554E+03  0.92514921395E+02 0.  0.
          2    1    3    3  502    0 -0.30494396995E+03  0.53569598659E+01  0.34726607067E+03  0.46218313001E+03  0.00000000000E+00 0. -1.
         -1    1    3    3    0  502 -0.53132891660E+02 -0.22368396708E+02  0.32547791097E+02  0.66202779796E+02  0.00000000000E+00 0.  1.
         11    1    5    5    0    0  0.15572401536E+01 -0.60245589647E+00  0.53591362714E+02  0.53617367593E+02  0.00000000000E+00 0.  1.
        -11    1    5    5    0    0  0.51493634156E+03 -0.20475283743E+03  0.15784631632E+04  0.16729103735E+04  0.00000000000E+00 0. -1.
          2    1    6    6  503    0 -0.14840293043E+03  0.22673157687E+03  0.17888098701E+03  0.32469839117E+03  0.00000000000E+00 0. -1.
         -2    1    6    6    0  503 -0.10013789666E+02 -0.43648466996E+01  0.28207304218E+02  0.30248634373E+02  0.00000000000E+00 0.  1.
<mgrwt>
<rscale>  0 0.13739010E+04</rscale>
<asrwt>0</asrwt>
<pdfrwt beam="1">  1        2 0.37144747E+00 0.13739010E+04</pdfrwt>
<pdfrwt beam="2">  1       -1 0.30069540E-01 0.13739010E+04</pdfrwt>
<totfact> 0.44164502E+01</totfact>
</mgrwt>
</event>
<event>
12    6  0.1530720E-007  0.3171548E+04  0.7818608E-02  0.8196372E-01
          2   -1    0    0  501    0  0.00000000000E+00  0.00000000000E+00  0.17267505619E+04  0.17267505619E+04  0.00000000000E+00 0. -1.
         -1   -1    0    0    0  501 -0.00000000000E+00 -0.00000000000E+00 -0.14563070295E+04  0.14563070295E+04  0.00000000000E+00 0.  1.
         24    2    1    2    0    0  0.57110854628E+03  0.81935737500E+03 -0.94103435379E+03  0.13746419339E+04  0.81137610445E+02 0.  0.
        254    2    1    2    0    0 -0.57110854628E+03 -0.81935737500E+03  0.12114778862E+04  0.18084156575E+04  0.89731657833E+03 0.  0.
         23    2    4    4    0    0 -0.20102181241E+03  0.91918199588E+02 -0.86205385121E+01  0.23897405039E+03  0.90418795602E+02 0.  0.
         23    2    4    4    0    0 -0.37008673388E+03 -0.91127557459E+03  0.12200984247E+04  0.15694416071E+04  0.84376706028E+02 0.  0.
          4    1    3    3  502    0  0.14485689365E+03  0.16614695646E+03 -0.24075227187E+03  0.32641995525E+03  0.00000000000E+00 0. -1.
         -3    1    3    3    0  502  0.42625165264E+03  0.65321041855E+03 -0.70028208193E+03  0.10482219787E+04  0.00000000000E+00 0.  1.
         11    1    5    5    0    0 -0.11797697855E+03  0.70184248408E+02  0.36433272441E+02  0.14202739008E+03  0.00000000000E+00 0. -1.
        -11    1    5    5    0    0 -0.83044833863E+02  0.21733951180E+02 -0.45053810953E+02  0.96946660317E+02  0.00000000000E+00 0.  1.
          3    1    6    6  503    0 -0.10610009571E+03 -0.22201001780E+03  0.25373184666E+03  0.35344805605E+03  0.00000000000E+00 0. -1.
         -3    1    6    6    0  503 -0.26398663816E+03 -0.68926555679E+03  0.96636657806E+03  0.12159935510E+04  0.00000000000E+00 0.  1.
<mgrwt>
<rscale>  0 0.31715479E+04</rscale>
<asrwt>0</asrwt>
<pdfrwt beam="1">  1        2 0.26565393E+00 0.31715479E+04</pdfrwt>
<pdfrwt beam="2">  1       -1 0.22404723E+00 0.31715479E+04</pdfrwt>
<totfact> 0.94127496E-01</totfact>
</mgrwt>
</event>
<event>
12    6  0.1530720E-007  0.2251254E+04  0.7818608E-02  0.8497393E-01
          2   -1    0    0  501    0  0.00000000000E+00  0.00000000000E+00  0.17418075061E+04  0.17418075061E+04  0.00000000000E+00 0. -1.
         -1   -1    0    0    0  501 -0.00000000000E+00 -0.00000000000E+00 -0.72742573885E+03  0.72742573885E+03  0.00000000000E+00 0.  1.
         24    2    1    2    0    0  0.88801626000E+03 -0.29775198965E+03  0.40625109373E+03  0.10240383342E+04  0.79908907062E+02 0.  0.
        254    2    1    2    0    0 -0.88801626000E+03  0.29775198965E+03  0.60813067353E+03  0.14451949107E+04  0.91735287026E+03 0.  0.
         23    2    4    4    0    0 -0.52565899922E+03 -0.59928969047E+02 -0.12240339605E+03  0.55031032016E+03  0.89162729407E+02 0.  0.
         23    2    4    4    0    0 -0.36235726078E+03  0.35768095870E+03  0.73053406958E+03  0.89488459058E+03  0.88881668520E+02 0.  0.
          2    1    3    3  502    0  0.31028055709E+02 -0.12936464348E+02  0.32232965387E+02  0.46573129684E+02  0.00000000000E+00 0. -1.
         -1    1    3    3    0  502  0.85698820429E+03 -0.28481552530E+03  0.37401812834E+03  0.97746520453E+03  0.00000000000E+00 0.  1.
         11    1    5    5    0    0 -0.44592229038E+03 -0.75012353167E+02 -0.81645514914E+02  0.45949921903E+03  0.00000000000E+00 0.  1.
        -11    1    5    5    0    0 -0.79736708842E+02  0.15083384120E+02 -0.40757881131E+02  0.90811101127E+02  0.00000000000E+00 0. -1.
          3    1    6    6  503    0 -0.63593829880E+02  0.10460595645E+03  0.21648350172E+03  0.24869999566E+03  0.00000000000E+00 0. -1.
         -3    1    6    6    0  503 -0.29876343090E+03  0.25307500224E+03  0.51405056785E+03  0.64618459492E+03  0.00000000000E+00 0.  1.
<mgrwt>
<rscale>  0 0.22512535E+04</rscale>
<asrwt>0</asrwt>
<pdfrwt beam="1">  1        2 0.26797038E+00 0.22512535E+04</pdfrwt>
<pdfrwt beam="2">  1       -1 0.11191165E+00 0.22512535E+04</pdfrwt>
<totfact> 0.70575218E+00</totfact>
</mgrwt>
</event>
<event>
12    6  0.1530720E-007  0.1307814E+04  0.7818608E-02  0.9023391E-01
         -1   -1    0    0    0  501 -0.00000000000E+00  0.00000000000E+00  0.31473174252E+03  0.31473174252E+03  0.00000000000E+00 0.  1.
          2   -1    0    0  501    0  0.00000000000E+00 -0.00000000000E+00 -0.13585995833E+04  0.13585995833E+04  0.00000000000E+00 0. -1.
         24    2    1    2    0    0 -0.29343403926E+03 -0.21868730617E+03 -0.17616938745E+03  0.41400909308E+03  0.80250874183E+02 0.  0.
        254    2    1    2    0    0  0.29343403926E+03  0.21868730617E+03 -0.86769845330E+03  0.12593222327E+04  0.83610059601E+03 0.  0.
         23    2    4    4    0    0  0.13742585801E+03 -0.67512528543E+02 -0.90226228701E+03  0.91920438513E+03  0.86114221344E+02 0.  0.
         23    2    4    4    0    0  0.15600818125E+03  0.28619983471E+03  0.34563833708E+02  0.34011784758E+03  0.90755681014E+02 0.  0.
          2    1    3    3  502    0 -0.51704084073E+01 -0.11877327241E+02 -0.25425711377E+02  0.28535431038E+02  0.00000000000E+00 0. -1.
         -1    1    3    3    0  502 -0.28826363085E+03 -0.20680997892E+03 -0.15074367608E+03  0.38547366205E+03  0.00000000000E+00 0.  1.
         11    1    5    5    0    0  0.10594529555E+03 -0.23581046443E+02 -0.41517739205E+03  0.42913021132E+03  0.00000000000E+00 0. -1.
        -11    1    5    5    0    0  0.31480562460E+02 -0.43931482100E+02 -0.48708489496E+03  0.49007417380E+03  0.00000000000E+00 0.  1.
          3    1    6    6  503    0 -0.53711577533E+01  0.28927405933E+02 -0.13963765865E+02  0.32567328825E+02  0.00000000000E+00 0. -1.
         -3    1    6    6    0  503  0.16137933900E+03  0.25727242878E+03  0.48527599573E+02  0.30755051875E+03  0.00000000000E+00 0.  1.
<mgrwt>
<rscale>  0 0.13078141E+04</rscale>
<asrwt>0</asrwt>
<pdfrwt beam="1">  1        2 0.20901532E+00 0.13078141E+04</pdfrwt>
<pdfrwt beam="2">  1       -1 0.48420267E-01 0.13078141E+04</pdfrwt>
<totfact> 0.72798820E+01</totfact>
</mgrwt>
</event>
<event>
12    6  0.1530720E-007  0.2622995E+04  0.7818608E-02  0.8360432E-01
         -1   -1    0    0    0  501 -0.00000000000E+00  0.00000000000E+00  0.89085219678E+03  0.89085219678E+03  0.00000000000E+00 0.  1.
          2   -1    0    0  501    0  0.00000000000E+00 -0.00000000000E+00 -0.19307642089E+04  0.19307642089E+04  0.00000000000E+00 0. -1.
         24    2    1    2    0    0  0.89257939423E+03  0.36758137694E+02  0.32915106443E+03  0.95544512619E+03  0.80534652493E+02 0.  0.
        254    2    1    2    0    0 -0.89257939423E+03 -0.36758137694E+02 -0.13690630765E+04  0.18661712795E+04  0.90011799287E+03 0.  0.
         23    2    4    4    0    0 -0.50848766476E+03 -0.33466225470E+03 -0.29219487470E+03  0.68114356300E+03  0.89555450335E+02 0.  0.
         23    2    4    4    0    0 -0.38409172947E+03  0.29790411701E+03 -0.10768682018E+04  0.11850277164E+04  0.91499973224E+02 0.  0.
          2    1    3    3  502    0  0.16305739896E+03  0.24748154312E+02  0.88450460317E+02  0.18714612053E+03  0.00000000000E+00 0. -1.
         -1    1    3    3    0  502  0.72952199527E+03  0.12009983382E+02  0.24070060412E+03  0.76829900566E+03  0.00000000000E+00 0.  1.
         11    1    5    5    0    0 -0.38484104707E+03 -0.25980739537E+03 -0.17932450581E+03  0.49775475144E+03  0.00000000000E+00 0.  1.
        -11    1    5    5    0    0 -0.12364661769E+03 -0.74854859329E+02 -0.11287036890E+03  0.18338881156E+03  0.00000000000E+00 0. -1.
          2    1    6    6  503    0 -0.60857845627E+01  0.31694531766E+02 -0.71654463146E+02  0.78587163114E+02  0.00000000000E+00 0. -1.
         -2    1    6    6    0  503 -0.37800594491E+03  0.26620958524E+03 -0.10052137387E+04  0.11064405533E+04  0.00000000000E+00 0.  1.
<mgrwt>
<rscale>  0 0.26229949E+04</rscale>
<asrwt>0</asrwt>
<pdfrwt beam="1">  1        2 0.29704065E+00 0.26229949E+04</pdfrwt>
<pdfrwt beam="2">  1       -1 0.13705418E+00 0.26229949E+04</pdfrwt>
<totfact> 0.32494912E+00</totfact>
</mgrwt>
</event>
<event>
12    6  0.1530720E-007  0.1158428E+04  0.7818608E-02  0.9150043E-01
          2   -1    0    0  501    0  0.00000000000E+00  0.00000000000E+00  0.42373683633E+03  0.42373683633E+03  0.00000000000E+00 0. -1.
         -1   -1    0    0    0  501 -0.00000000000E+00 -0.00000000000E+00 -0.79173915797E+03  0.79173915797E+03  0.00000000000E+00 0.  1.
         24    2    1    2    0    0 -0.57665250266E+02 -0.21178628547E+03 -0.87544025104E+02  0.25005894059E+03  0.81772890598E+02 0.  0.
        254    2    1    2    0    0  0.57665250266E+02  0.21178628547E+03 -0.28045829653E+03  0.96541705371E+03  0.89732631729E+03 0.  0.
         23    2    4    4    0    0  0.22569289952E+03  0.51145391255E+03 -0.14322847358E+03  0.58436333114E+03  0.91889703356E+02 0.  0.
         23    2    4    4    0    0 -0.16802764925E+03 -0.29966762708E+03 -0.13722982294E+03  0.38105372257E+03  0.91301355686E+02 0.  0.
          4    1    3    3  502    0 -0.32027374347E+02 -0.17943484617E+03 -0.39106942745E+02  0.18641880189E+03  0.00000000000E+00 0. -1.
         -3    1    3    3    0  502 -0.25637875919E+02 -0.32351439301E+02 -0.48437082359E+02  0.63640138701E+02  0.00000000000E+00 0.  1.
         11    1    5    5    0    0  0.90532062760E+02  0.11150028398E+03 -0.49435126393E+02  0.15189535686E+03  0.00000000000E+00 0. -1.
        -11    1    5    5    0    0  0.13516083676E+03  0.39995362857E+03 -0.93793347191E+02  0.43246797428E+03  0.00000000000E+00 0.  1.
          1    1    6    6  503    0 -0.30415823039E+02 -0.12605944206E+03 -0.79559126463E+02  0.15213730584E+03  0.00000000000E+00 0. -1.
         -1    1    6    6    0  503 -0.13761182621E+03 -0.17360818501E+03 -0.57670696480E+02  0.22891641673E+03  0.00000000000E+00 0.  1.
<mgrwt>
<rscale>  0 0.11584283E+04</rscale>
<asrwt>0</asrwt>
<pdfrwt beam="1">  1        2 0.65190283E-01 0.11584283E+04</pdfrwt>
<pdfrwt beam="2">  1       -1 0.12180602E+00 0.11584283E+04</pdfrwt>
<totfact> 0.50343033E+01</totfact>
</mgrwt>
</event>
<event>
12    6  0.1530720E-007  0.1820031E+04  0.7818608E-02  0.8695719E-01
         -1   -1    0    0    0  501 -0.00000000000E+00  0.00000000000E+00  0.35631466003E+03  0.35631466003E+03  0.00000000000E+00 0.  1.
          2   -1    0    0  501    0  0.00000000000E+00 -0.00000000000E+00 -0.23241486212E+04  0.23241486212E+04  0.00000000000E+00 0. -1.
         24    2    1    2    0    0  0.57900658971E+03 -0.35637827925E+03 -0.98534393578E+03  0.11997155193E+04  0.78489149397E+02 0.  0.
        254    2    1    2    0    0 -0.57900658971E+03  0.35637827925E+03 -0.98249002543E+03  0.14807477620E+04  0.87468461498E+03 0.  0.
         23    2    4    4    0    0 -0.44702336317E+03  0.31292876004E+02 -0.26436406724E+02  0.45795449655E+03  0.90632808647E+02 0.  0.
         23    2    4    4    0    0 -0.13198322655E+03  0.32508540325E+03 -0.95605361870E+03  0.10227932654E+04  0.94696623378E+02 0.  0.
          4    1    3    3  502    0  0.35510258524E+03 -0.19464377814E+03 -0.64225703348E+03  0.75926157777E+03  0.00000000000E+00 0. -1.
         -3    1    3    3    0  502  0.22390400448E+03 -0.16173450111E+03 -0.34308690230E+03  0.44045394152E+03  0.00000000000E+00 0.  1.
         11    1    5    5    0    0 -0.37539393570E+03 -0.13154638249E-01 -0.43609548197E+02  0.37791850951E+03  0.00000000000E+00 0. -1.
        -11    1    5    5    0    0 -0.71629427463E+02  0.31306030642E+02  0.17173141473E+02  0.80035987039E+02  0.00000000000E+00 0.  1.
          2    1    6    6  503    0 -0.78859485245E+02  0.10962236466E+03 -0.27260357833E+03  0.30421800106E+03  0.00000000000E+00 0.  1.
         -2    1    6    6    0  503 -0.53123741303E+02  0.21546303858E+03 -0.68345004037E+03  0.71857526437E+03  0.00000000000E+00 0. -1.
<mgrwt>
<rscale>  0 0.18200310E+04</rscale>
<asrwt>0</asrwt>
<pdfrwt beam="1">  1        2 0.35756132E+00 0.18200310E+04</pdfrwt>
<pdfrwt beam="2">  1       -1 0.54817641E-01 0.18200310E+04</pdfrwt>
<totfact> 0.15861251E+01</totfact>
</mgrwt>
</event>
<event>
12    6  0.1530720E-007  0.1345327E+04  0.7818608E-02  0.8994373E-01
          2   -1    0    0  501    0  0.00000000000E+00  0.00000000000E+00  0.79174114517E+03  0.79174114517E+03  0.00000000000E+00 0. -1.
         -1   -1    0    0    0  501 -0.00000000000E+00 -0.00000000000E+00 -0.57149526355E+03  0.57149526355E+03  0.00000000000E+00 0.  1.
         24    2    1    2    0    0  0.35264806015E+03 -0.16871470874E+03  0.16445853720E+03  0.43154475886E+03  0.79743094807E+02 0.  0.
        254    2    1    2    0    0 -0.35264806015E+03  0.16871470874E+03  0.55787344422E+02  0.93169164986E+03  0.84386716689E+03 0.  0.
         23    2    4    4    0    0  0.15876642262E+03  0.61894615302E+00  0.28569740319E+03  0.33825061377E+03  0.87082211050E+02 0.  0.
         23    2    4    4    0    0 -0.51141448277E+03  0.16809576259E+03 -0.22991005877E+03  0.59344103609E+03  0.97532915529E+02 0.  0.
          2    1    3    3  502    0  0.24369152831E+03 -0.15229984239E+03  0.10229572337E+03  0.30503314244E+03  0.00000000000E+00 0. -1.
         -1    1    3    3    0  502  0.10895653183E+03 -0.16414866345E+02  0.62162813828E+02  0.12651161642E+03  0.00000000000E+00 0.  1.
         11    1    5    5    0    0  0.28095451857E+02 -0.22948080042E+02  0.12305899805E+03  0.12829452753E+03  0.00000000000E+00 0. -1.
        -11    1    5    5    0    0  0.13067097076E+03  0.23567026195E+02  0.16263840514E+03  0.20995608624E+03  0.00000000000E+00 0.  1.
          3    1    6    6  503    0 -0.34279005995E+03  0.15994802532E+03 -0.16003906917E+03  0.41073215076E+03  0.00000000000E+00 0. -1.
         -3    1    6    6    0  503 -0.16862442281E+03  0.81477372653E+01 -0.69870989595E+02  0.18270888533E+03  0.00000000000E+00 0.  1.
<mgrwt>
<rscale>  0 0.13453272E+04</rscale>
<asrwt>0</asrwt>
<pdfrwt beam="1">  1        2 0.12180633E+00 0.13453272E+04</pdfrwt>
<pdfrwt beam="2">  1       -1 0.87922348E-01 0.13453272E+04</pdfrwt>
<totfact> 0.49570093E+01</totfact>
</mgrwt>
</event>
<event>
12    6  0.1530720E-007  0.2071462E+04  0.7818608E-02  0.8573920E-01
         -1   -1    0    0    0  501 -0.00000000000E+00  0.00000000000E+00  0.72086960487E+03  0.72086960487E+03  0.00000000000E+00 0.  1.
          2   -1    0    0  501    0  0.00000000000E+00 -0.00000000000E+00 -0.14881181230E+04  0.14881181230E+04  0.00000000000E+00 0. -1.
         24    2    1    2    0    0 -0.67638080993E+02  0.23920195512E+03  0.54326935127E+03  0.60280828131E+03  0.80272975809E+02 0.  0.
        254    2    1    2    0    0  0.67638080993E+02 -0.23920195512E+03 -0.13105178694E+04  0.16061794466E+04  0.89474177460E+03 0.  0.
         23    2    4    4    0    0  0.20793020865E+03 -0.11121422554E+03 -0.13649675775E+04  0.13886707994E+04  0.98318490856E+02 0.  0.
         23    2    4    4    0    0 -0.14029212766E+03 -0.12798772958E+03  0.54449708098E+02  0.21750864723E+03  0.91008246345E+02 0.  0.
          4    1    3    3  502    0 -0.65832842459E+02  0.16265794303E+03  0.29756877146E+03  0.34545440122E+03  0.00000000000E+00 0. -1.
         -3    1    3    3    0  502 -0.18052385343E+01  0.76544012094E+02  0.24570057982E+03  0.25735388009E+03  0.00000000000E+00 0.  1.
         11    1    5    5    0    0  0.12590599666E+02  0.42726414332E+01 -0.16250210837E+02  0.20996381045E+02  0.00000000000E+00 0. -1.
        -11    1    5    5    0    0  0.19533960899E+03 -0.11548686697E+03 -0.13487173667E+04  0.13676744183E+04  0.00000000000E+00 0.  1.
          3    1    6    6  503    0 -0.69031393861E+02 -0.32085299547E+02 -0.17403314273E+02  0.78087611906E+02  0.00000000000E+00 0. -1.
         -3    1    6    6    0  503 -0.71260733798E+02 -0.95902430036E+02  0.71853022371E+02  0.13942103533E+03  0.00000000000E+00 0.  1.
<mgrwt>
<rscale>  0 0.20714624E+04</rscale>
<asrwt>0</asrwt>
<pdfrwt beam="1">  1        2 0.22894125E+00 0.20714624E+04</pdfrwt>
<pdfrwt beam="2">  1       -1 0.11090302E+00 0.20714624E+04</pdfrwt>
<totfact> 0.10155896E+01</totfact>
</mgrwt>
</event>
<event>
12    6  0.1530720E-007  0.1733268E+04  0.7818608E-02  0.8742615E-01
         -1   -1    0    0    0  501 -0.00000000000E+00  0.00000000000E+00  0.25045024352E+03  0.25045024352E+03  0.00000000000E+00 0.  1.
          2   -1    0    0  501    0  0.00000000000E+00 -0.00000000000E+00 -0.29988156033E+04  0.29988156033E+04  0.00000000000E+00 0. -1.
         24    2    1    2    0    0 -0.52777363666E+03  0.21737437016E+03 -0.54405567044E+03  0.79267527480E+03  0.80875771339E+02 0.  0.
        254    2    1    2    0    0  0.52777363666E+03 -0.21737437016E+03 -0.22043096893E+04  0.24565905720E+04  0.92198666130E+03 0.  0.
         23    2    4    4    0    0  0.48413158169E+02 -0.10404606686E+03 -0.18183602677E+04  0.18242338435E+04  0.90695284557E+02 0.  0.
         23    2    4    4    0    0  0.47936047849E+03 -0.11332830331E+03 -0.38594942161E+03  0.63235672850E+03  0.91040119579E+02 0.  0.
          2    1    3    3  502    0 -0.96793262700E+01  0.14343492984E+02 -0.51886003429E+01  0.18065069099E+02  0.00000000000E+00 0. -1.
         -1    1    3    3    0  502 -0.51809431039E+03  0.20303087718E+03 -0.53886707010E+03  0.77461020570E+03  0.00000000000E+00 0.  1.
         11    1    5    5    0    0  0.39449444770E+01 -0.89136833123E+02 -0.14735022628E+04  0.14762011571E+04  0.00000000000E+00 0. -1.
        -11    1    5    5    0    0  0.44468213692E+02 -0.14909233733E+02 -0.34485800492E+03  0.34803268645E+03  0.00000000000E+00 0.  1.
          3    1    6    6  503    0  0.42578756333E+03 -0.10376028376E+03 -0.37512316163E+03  0.57686968369E+03  0.00000000000E+00 0. -1.
         -3    1    6    6    0  503  0.53572915156E+02 -0.95680195447E+01 -0.10826259982E+02  0.55487044808E+02  0.00000000000E+00 0.  1.
<mgrwt>
<rscale>  0 0.17332675E+04</rscale>
<asrwt>0</asrwt>
<pdfrwt beam="1">  1        2 0.46135626E+00 0.17332675E+04</pdfrwt>
<pdfrwt beam="2">  1       -1 0.38530806E-01 0.17332675E+04</pdfrwt>
<totfact> 0.12347149E+01</totfact>
</mgrwt>
</event>
<event>
12    6  0.1530720E-007  0.3817600E+04  0.7818608E-02  0.8042389E-01
          2   -1    0    0  501    0  0.00000000000E+00  0.00000000000E+00  0.20159159770E+04  0.20159159770E+04  0.00000000000E+00 0. -1.
         -1   -1    0    0    0  501 -0.00000000000E+00 -0.00000000000E+00 -0.18073751878E+04  0.18073751878E+04  0.00000000000E+00 0.  1.
         24    2    1    2    0    0 -0.67101429958E+03 -0.47513828721E+02  0.17717672852E+04  0.18970658995E+04  0.84746444650E+02 0.  0.
        254    2    1    2    0    0  0.67101429958E+03  0.47513828721E+02 -0.15632264960E+04  0.19262252654E+04  0.90230202321E+03 0.  0.
         23    2    4    4    0    0  0.29272601076E+03  0.38223736191E+03 -0.12035077015E+04  0.12994125842E+04  0.90820473485E+02 0.  0.
         23    2    4    4    0    0  0.37828828882E+03 -0.33472353319E+03 -0.35971879452E+03  0.62681268113E+03  0.91403790829E+02 0.  0.
          4    1    3    3  502    0 -0.41519414303E+03 -0.29288352920E+02  0.12082051092E+04  0.12778902809E+04  0.00000000000E+00 0. -1.
         -3    1    3    3    0  502 -0.25582015655E+03 -0.18225475801E+02  0.56356217599E+03  0.61917561860E+03  0.00000000000E+00 0.  1.
         11    1    5    5    0    0  0.23901357308E+03  0.31322513353E+03 -0.87781055187E+03  0.96217921271E+03  0.00000000000E+00 0.  1.
        -11    1    5    5    0    0  0.53712437687E+02  0.69012228375E+02 -0.32569714959E+03  0.33723337154E+03  0.00000000000E+00 0. -1.
          1    1    6    6  503    0  0.27307817160E+03 -0.21108154754E+03 -0.19919204788E+03  0.39850292277E+03  0.00000000000E+00 0. -1.
         -1    1    6    6    0  503  0.10521011722E+03 -0.12364198564E+03 -0.16052674664E+03  0.22830975837E+03  0.00000000000E+00 0.  1.
<mgrwt>
<rscale>  0 0.38175995E+04</rscale>
<asrwt>0</asrwt>
<pdfrwt beam="1">  1        2 0.31014092E+00 0.38175995E+04</pdfrwt>
<pdfrwt beam="2">  1       -1 0.27805772E+00 0.38175995E+04</pdfrwt>
<totfact> 0.27316682E-01</totfact>
</mgrwt>
</event>
<event>
12    6  0.1530720E-007  0.1310820E+04  0.7818608E-02  0.9021029E-01
         -1   -1    0    0    0  501 -0.00000000000E+00  0.00000000000E+00  0.84120409113E+03  0.84120409113E+03  0.00000000000E+00 0.  1.
          2   -1    0    0  501    0  0.00000000000E+00 -0.00000000000E+00 -0.51065158316E+03  0.51065158316E+03  0.00000000000E+00 0. -1.
         24    2    1    2    0    0  0.61023457140E+02 -0.17364295968E+03  0.38693102417E+03  0.43546359652E+03  0.77699335011E+02 0.  0.
        254    2    1    2    0    0 -0.61023457140E+02  0.17364295968E+03 -0.56378516205E+02  0.91639207777E+03  0.89594651813E+03 0.  0.
         23    2    4    4    0    0  0.35611960217E+03  0.25245430023E+03  0.96145321406E+02  0.45634817531E+03  0.91953192048E+02 0.  0.
         23    2    4    4    0    0 -0.41714305931E+03 -0.78811340548E+02 -0.15252383761E+03  0.46004390247E+03  0.90317837835E+02 0.  0.
          2    1    3    3  502    0  0.15673270133E+02 -0.44624065534E+00  0.67337625926E+02  0.69139036678E+02  0.00000000000E+00 0. -1.
         -1    1    3    3    0  502  0.45350187007E+02 -0.17319671902E+03  0.31959339824E+03  0.36632455984E+03  0.00000000000E+00 0.  1.
         11    1    5    5    0    0  0.10972016632E+03  0.12790484327E+03  0.18385667815E+02  0.16951754071E+03  0.00000000000E+00 0. -1.
        -11    1    5    5    0    0  0.24639943585E+03  0.12454945696E+03  0.77759653592E+02  0.28683063459E+03  0.00000000000E+00 0.  1.
          1    1    6    6  503    0 -0.11290776756E+03 -0.25514444212E+02 -0.42238595133E+00  0.11575547179E+03  0.00000000000E+00 0. -1.
         -1    1    6    6    0  503 -0.30423529175E+03 -0.53296896336E+02 -0.15210145166E+03  0.34428843068E+03  0.00000000000E+00 0.  1.
<mgrwt>
<rscale>  0 0.13108199E+04</rscale>
<asrwt>0</asrwt>
<pdfrwt beam="1">  1        2 0.78561782E-01 0.13108199E+04</pdfrwt>
<pdfrwt beam="2">  1       -1 0.12941601E+00 0.13108199E+04</pdfrwt>
<totfact> 0.34526089E+01</totfact>
</mgrwt>
</event>
<event>
12    6  0.1530720E-007  0.2067699E+04  0.7818608E-02  0.8575607E-01
         -1   -1    0    0    0  501 -0.00000000000E+00  0.00000000000E+00  0.10314934060E+04  0.10314934060E+04  0.00000000000E+00 0.  1.
          2   -1    0    0  501    0  0.00000000000E+00 -0.00000000000E+00 -0.10362106706E+04  0.10362106706E+04  0.00000000000E+00 0. -1.
         24    2    1    2    0    0 -0.49487516157E+03  0.66428287655E+03  0.12300833489E+03  0.84130898564E+03  0.80601446962E+02 0.  0.
        254    2    1    2    0    0  0.49487516157E+03 -0.66428287655E+03 -0.12772559954E+03  0.12263950909E+04  0.89529767376E+03 0.  0.
         23    2    4    4    0    0  0.51884632145E+03 -0.47061530838E+03 -0.45016863454E+03  0.83820216193E+03  0.96181032316E+02 0.  0.
         23    2    4    4    0    0 -0.23971159880E+02 -0.19366756817E+03  0.32244303500E+03  0.38819292899E+03  0.92965024775E+02 0.  0.
          2    1    3    3  502    0 -0.58110557166E+02  0.52566582273E+02  0.30139570810E+02  0.83955203261E+02  0.00000000000E+00 0. -1.
         -1    1    3    3    0  502 -0.43676460441E+03  0.61171629428E+03  0.92868764078E+02  0.75735378238E+03  0.00000000000E+00 0.  1.
         11    1    5    5    0    0  0.40389472745E+03 -0.30851953427E+03 -0.31750739546E+03  0.59927139099E+03  0.00000000000E+00 0.  1.
        -11    1    5    5    0    0  0.11495159400E+03 -0.16209577412E+03 -0.13266123908E+03  0.23893077094E+03  0.00000000000E+00 0. -1.
          2    1    6    6  503    0 -0.10178238469E+02 -0.64108735631E+01 -0.30644417166E+01  0.12413164029E+02  0.00000000000E+00 0. -1.
         -2    1    6    6    0  503 -0.13792921411E+02 -0.18725669460E+03  0.32550747671E+03  0.37577976496E+03  0.00000000000E+00 0.  1.
<mgrwt>
<rscale>  0 0.20676987E+04</rscale>
<asrwt>0</asrwt>
<pdfrwt beam="1">  1        2 0.15941703E+00 0.20676987E+04</pdfrwt>
<pdfrwt beam="2">  1       -1 0.15869129E+00 0.20676987E+04</pdfrwt>
<totfact> 0.75258372E+00</totfact>
</mgrwt>
</event>
<event>
12    6  0.1530720E-007  0.1623454E+04  0.7818608E-02  0.8806268E-01
          2   -1    0    0  501    0  0.00000000000E+00  0.00000000000E+00  0.22443651091E+04  0.22443651091E+04  0.00000000000E+00 0. -1.
         -1   -1    0    0    0  501 -0.00000000000E+00 -0.00000000000E+00 -0.29357994967E+03  0.29357994967E+03  0.00000000000E+00 0.  1.
         24    2    1    2    0    0  0.39940276241E+03 -0.12875131014E+03  0.10902292857E+03  0.44063013094E+03  0.78545826435E+02 0.  0.
        254    2    1    2    0    0 -0.39940276241E+03  0.12875131014E+03  0.18417622309E+04  0.20973149278E+04  0.91134094882E+03 0.  0.
         23    2    4    4    0    0  0.26949230031E+03  0.12017580465E+03  0.78259805083E+03  0.84124459432E+03  0.90357259597E+02 0.  0.
         23    2    4    4    0    0 -0.66889506272E+03  0.85755054916E+01  0.10591641800E+04  0.12560703335E+04  0.91595732684E+02 0.  0.
          4    1    3    3  502    0  0.60631378399E+02  0.70483661983E+01  0.56696604691E+01  0.61302435208E+02  0.00000000000E+00 0. -1.
         -3    1    3    3    0  502  0.33877138401E+03 -0.13579967634E+03  0.10335326810E+03  0.37932769573E+03  0.00000000000E+00 0.  1.
         11    1    5    5    0    0  0.24733511073E+03  0.94492095638E+02  0.60445592139E+03  0.65990179121E+03  0.00000000000E+00 0.  1.
        -11    1    5    5    0    0  0.22157189575E+02  0.25683709010E+02  0.17814212944E+03  0.18134280311E+03  0.00000000000E+00 0. -1.
          1    1    6    6  503    0 -0.27786653954E+03 -0.41003313028E+02  0.45410632443E+03  0.53395097093E+03  0.00000000000E+00 0. -1.
         -1    1    6    6    0  503 -0.39102852318E+03  0.49578818520E+02  0.60505785562E+03  0.72211936259E+03  0.00000000000E+00 0.  1.
<mgrwt>
<rscale>  0 0.16234538E+04</rscale>
<asrwt>0</asrwt>
<pdfrwt beam="1">  1        2 0.34528693E+00 0.16234538E+04</pdfrwt>
<pdfrwt beam="2">  1       -1 0.45166148E-01 0.16234538E+04</pdfrwt>
<totfact> 0.25869233E+01</totfact>
</mgrwt>
</event>
<event>
12    6  0.1530720E-007  0.1368844E+04  0.7818608E-02  0.8976685E-01
          2   -1    0    0  501    0  0.00000000000E+00  0.00000000000E+00  0.31273011595E+04  0.31273011595E+04  0.00000000000E+00 0. -1.
         -1   -1    0    0    0  501 -0.00000000000E+00 -0.00000000000E+00 -0.14978832972E+03  0.14978832972E+03  0.00000000000E+00 0.  1.
         24    2    1    2    0    0 -0.26359461828E+02  0.54773474446E+02 -0.54351530362E+02  0.11403263383E+03  0.79714477953E+02 0.  0.
        254    2    1    2    0    0  0.26359461828E+02 -0.54773474446E+02  0.30318643601E+04  0.31630568554E+04  0.89946218228E+03 0.  0.
         23    2    4    4    0    0 -0.26331300400E+03  0.93318070898E+02  0.25906361889E+04  0.26072063855E+04  0.89929267108E+02 0.  0.
         23    2    4    4    0    0  0.28967246583E+03 -0.14809154534E+03  0.44122817128E+03  0.55585046989E+03  0.91903223472E+02 0.  0.
          2    1    3    3  502    0 -0.47931858858E+02  0.37277646254E+02 -0.97638513671E+01  0.61501372321E+02  0.00000000000E+00 0. -1.
         -1    1    3    3    0  502  0.21572397031E+02  0.17495828191E+02 -0.44587678994E+02  0.52531261510E+02  0.00000000000E+00 0.  1.
         11    1    5    5    0    0 -0.24742390655E+03  0.10699229456E+03  0.24795093164E+04  0.24941195622E+04  0.00000000000E+00 0.  1.
        -11    1    5    5    0    0 -0.15889097447E+02 -0.13674223665E+02  0.11112687249E+03  0.11308682328E+03  0.00000000000E+00 0. -1.
          1    1    6    6  503    0  0.16404911121E+03 -0.37508018047E+02  0.25440654146E+03  0.30502729492E+03  0.00000000000E+00 0. -1.
         -1    1    6    6    0  503  0.12562335462E+03 -0.11058352730E+03  0.18682162982E+03  0.25082317497E+03  0.00000000000E+00 0.  1.
<mgrwt>
<rscale>  0 0.13688436E+04</rscale>
<asrwt>0</asrwt>
<pdfrwt beam="1">  1        2 0.48112321E+00 0.13688436E+04</pdfrwt>
<pdfrwt beam="2">  1       -1 0.23044361E-01 0.13688436E+04</pdfrwt>
<totfact> 0.26157247E+01</totfact>
</mgrwt>
</event>
<event>
12    6  0.1530720E-007  0.2018039E+04  0.7818608E-02  0.8598233E-01
         -1   -1    0    0    0  501 -0.00000000000E+00  0.00000000000E+00  0.52723711042E+03  0.52723711042E+03  0.00000000000E+00 0.  1.
          2   -1    0    0  501    0  0.00000000000E+00 -0.00000000000E+00 -0.19310475555E+04  0.19310475555E+04  0.00000000000E+00 0. -1.
         24    2    1    2    0    0 -0.75381287589E+03 -0.25484670078E+03 -0.39503635715E+03  0.89219244343E+03  0.82297872908E+02 0.  0.
        254    2    1    2    0    0  0.75381287589E+03  0.25484670078E+03 -0.10087740879E+04  0.15660922225E+04  0.89545463096E+03 0.  0.
         23    2    4    4    0    0  0.84495267704E+03 -0.57890907791E+02 -0.80020278888E+03  0.11686482536E+04  0.90099132008E+02 0.  0.
         23    2    4    4    0    0 -0.91139801150E+02  0.31273760857E+03 -0.20857129905E+03  0.39744396893E+03  0.91369833538E+02 0.  0.
          2    1    3    3  502    0 -0.65062588560E+03 -0.22292723389E+03 -0.37137457295E+03  0.78161989998E+03  0.00000000000E+00 0. -1.
         -1    1    3    3    0  502 -0.10318699029E+03 -0.31919466892E+02 -0.23661784203E+02  0.11057254345E+03  0.00000000000E+00 0.  1.
         11    1    5    5    0    0  0.55167964877E+03  0.41004460306E+01 -0.50450950030E+03  0.74759419769E+03  0.00000000000E+00 0. -1.
        -11    1    5    5    0    0  0.29327302827E+03 -0.61991353822E+02 -0.29569328858E+03  0.42105405588E+03  0.00000000000E+00 0.  1.
          1    1    6    6  503    0 -0.53876285553E+02  0.57505666265E+02 -0.33049750084E+02  0.85450814965E+02  0.00000000000E+00 0. -1.
         -1    1    6    6    0  503 -0.37263515597E+02  0.25523194230E+03 -0.17552154897E+03  0.31199315396E+03  0.00000000000E+00 0.  1.
<mgrwt>
<rscale>  0 0.20180386E+04</rscale>
<asrwt>0</asrwt>
<pdfrwt beam="1">  1        2 0.29708423E+00 0.20180386E+04</pdfrwt>
<pdfrwt beam="2">  1       -1 0.81113403E-01 0.20180386E+04</pdfrwt>
<totfact> 0.11673979E+01</totfact>
</mgrwt>
</event>
<event>
12    6  0.1530720E-007  0.1586583E+04  0.7818608E-02  0.8828833E-01
          2   -1    0    0  501    0  0.00000000000E+00  0.00000000000E+00  0.14083589658E+04  0.14083589658E+04  0.00000000000E+00 0. -1.
         -1   -1    0    0    0  501 -0.00000000000E+00 -0.00000000000E+00 -0.44684014219E+03  0.44684014219E+03  0.00000000000E+00 0.  1.
         24    2    1    2    0    0 -0.34631035017E+03  0.24031327949E+03 -0.56532875759E+02  0.43340126028E+03  0.83422751316E+02 0.  0.
        254    2    1    2    0    0  0.34631035017E+03 -0.24031327949E+03  0.10180516994E+04  0.14217978477E+04  0.89855357451E+03 0.  0.
         23    2    4    4    0    0  0.60283991837E+03 -0.94881246837E+02  0.41415923775E+03  0.74345957495E+03  0.93732850127E+02 0.  0.
         23    2    4    4    0    0 -0.25652956821E+03 -0.14543203265E+03  0.60389246165E+03  0.67833827279E+03  0.92188999387E+02 0.  0.
          4    1    3    3  502    0 -0.15449350919E+03  0.13429573160E+03 -0.62881511048E+02  0.21414404577E+03  0.00000000000E+00 0. -1.
         -3    1    3    3    0  502 -0.19181684098E+03  0.10601754789E+03  0.63486352891E+01  0.21925721451E+03  0.00000000000E+00 0.  1.
         11    1    5    5    0    0  0.28742233430E+03 -0.38080589048E+02  0.14122881273E+03  0.32250163885E+03  0.00000000000E+00 0. -1.
        -11    1    5    5    0    0  0.31541758407E+03 -0.56800657788E+02  0.27293042502E+03  0.42095793610E+03  0.00000000000E+00 0.  1.
          3    1    6    6  503    0 -0.11169794059E+03 -0.35686929430E+02  0.32464209515E+03  0.34517021425E+03  0.00000000000E+00 0. -1.
         -3    1    6    6    0  503 -0.14483162761E+03 -0.10974510322E+03  0.27925036651E+03  0.33316805854E+03  0.00000000000E+00 0.  1.
<mgrwt>
<rscale>  0 0.15865829E+04</rscale>
<asrwt>0</asrwt>
<pdfrwt beam="1">  1        2 0.21667061E+00 0.15865829E+04</pdfrwt>
<pdfrwt beam="2">  1       -1 0.68744638E-01 0.15865829E+04</pdfrwt>
<totfact> 0.33527899E+01</totfact>
</mgrwt>
</event>
<event>
12    6  0.1530720E-007  0.2033340E+04  0.7818608E-02  0.8591190E-01
          2   -1    0    0  501    0  0.00000000000E+00  0.00000000000E+00  0.18685786357E+04  0.18685786357E+04  0.00000000000E+00 0. -1.
         -1   -1    0    0    0  501 -0.00000000000E+00 -0.00000000000E+00 -0.55315725351E+03  0.55315725351E+03  0.00000000000E+00 0.  1.
         24    2    1    2    0    0 -0.55266848744E+03 -0.48013299999E+03  0.93832735300E+03  0.11952114028E+04  0.11000873305E+03 0.  0.
        254    2    1    2    0    0  0.55266848744E+03  0.48013299999E+03  0.37709402923E+03  0.12265244864E+04  0.90895118365E+03 0.  0.
         23    2    4    4    0    0  0.59198660058E+03  0.46562278111E+03 -0.76093612058E+02  0.76234963262E+03  0.90188774239E+02 0.  0.
         23    2    4    4    0    0 -0.39318113142E+02  0.14510218874E+02  0.45318764129E+03  0.46417485382E+03  0.91229360523E+02 0.  0.
          2    1    3    3  502    0 -0.25156428156E+03 -0.25433796309E+03  0.53477568166E+03  0.64339522607E+03  0.00000000000E+00 0. -1.
         -1    1    3    3    0  502 -0.30110420587E+03 -0.22579503690E+03  0.40355167134E+03  0.55181617675E+03  0.00000000000E+00 0.  1.
         11    1    5    5    0    0  0.46827992979E+03  0.37731242437E+03 -0.24624315371E+02  0.60187799024E+03  0.00000000000E+00 0. -1.
        -11    1    5    5    0    0  0.12370667079E+03  0.88310356748E+02 -0.51469296687E+02  0.16047164238E+03  0.00000000000E+00 0.  1.
          2    1    6    6  503    0 -0.51681622295E+02  0.70368164826E+00  0.12236214373E+03  0.13283064206E+03  0.00000000000E+00 0. -1.
         -2    1    6    6    0  503  0.12363509153E+02  0.13806537226E+02  0.33082549756E+03  0.33134421176E+03  0.00000000000E+00 0.  1.
<mgrwt>
<rscale>  0 0.20333399E+04</rscale>
<asrwt>0</asrwt>
<pdfrwt beam="1">  1        2 0.28747363E+00 0.20333399E+04</pdfrwt>
<pdfrwt beam="2">  1       -1 0.85101117E-01 0.20333399E+04</pdfrwt>
<totfact> 0.11387604E+01</totfact>
</mgrwt>
</event>
<event>
12    6  0.1530720E-007  0.1096759E+04  0.7818608E-02  0.9208356E-01
          2   -1    0    0  501    0  0.00000000000E+00  0.00000000000E+00  0.98678451755E+03  0.98678451755E+03  0.00000000000E+00 0. -1.
         -1   -1    0    0    0  501 -0.00000000000E+00 -0.00000000000E+00 -0.30474762332E+03  0.30474762332E+03  0.00000000000E+00 0.  1.
         24    2    1    2    0    0 -0.63456795377E+02  0.70031619110E+02 -0.40400229933E+02  0.12996998792E+03  0.79553922763E+02 0.  0.
        254    2    1    2    0    0  0.63456795377E+02 -0.70031619110E+02  0.72243712416E+03  0.11615621529E+04  0.90464360067E+03 0.  0.
         23    2    4    4    0    0 -0.31086485822E+03  0.24733597608E+03  0.28405351475E+03  0.49662299536E+03  0.90199529604E+02 0.  0.
         23    2    4    4    0    0  0.37432165360E+03 -0.31736759519E+03  0.43838360941E+03  0.66493915758E+03  0.95524883977E+02 0.  0.
          2    1    3    3  502    0 -0.40432352534E+02  0.23159849528E+02  0.19491930712E+02  0.50508307479E+02  0.00000000000E+00 0. -1.
         -1    1    3    3    0  502 -0.23024442843E+02  0.46871769582E+02 -0.59892160645E+02  0.79461680442E+02  0.00000000000E+00 0.  1.
         11    1    5    5    0    0 -0.25205103021E+03  0.23871940170E+03  0.25295293084E+03  0.42953679679E+03  0.00000000000E+00 0.  1.
        -11    1    5    5    0    0 -0.58813828006E+02  0.86165743812E+01  0.31100583911E+02  0.67086198568E+02  0.00000000000E+00 0. -1.
          3    1    6    6  503    0  0.66085821672E+02 -0.26958207027E+02  0.10000780838E+03  0.12286432554E+03  0.00000000000E+00 0. -1.
         -3    1    6    6    0  503  0.30823583192E+03 -0.29040938817E+03  0.33837580103E+03  0.54207483205E+03  0.00000000000E+00 0.  1.
<mgrwt>
<rscale>  0 0.10967593E+04</rscale>
<asrwt>0</asrwt>
<pdfrwt beam="1">  1        2 0.15181300E+00 0.10967593E+04</pdfrwt>
<pdfrwt beam="2">  1       -1 0.46884250E-01 0.10967593E+04</pdfrwt>
<totfact> 0.13186608E+02</totfact>
</mgrwt>
</event>
<event>
12    6  0.1530720E-007  0.1894276E+04  0.7818608E-02  0.8657711E-01
          2   -1    0    0  501    0  0.00000000000E+00  0.00000000000E+00  0.11933205914E+04  0.11933205914E+04  0.00000000000E+00 0. -1.
         -1   -1    0    0    0  501 -0.00000000000E+00 -0.00000000000E+00 -0.75174334569E+03  0.75174334569E+03  0.00000000000E+00 0.  1.
         24    2    1    2    0    0 -0.57370582969E+03 -0.34116870502E+03 -0.12642983064E+03  0.68475854333E+03  0.85879545191E+02 0.  0.
        254    2    1    2    0    0  0.57370582969E+03  0.34116870502E+03  0.56800707633E+03  0.12603053937E+04  0.90565069560E+03 0.  0.
         23    2    4    4    0    0 -0.11424574726E+03  0.24743858700E+03  0.47320637621E+03  0.55376724168E+03  0.91956176321E+02 0.  0.
         23    2    4    4    0    0  0.68795157695E+03  0.93730118013E+02  0.94800700124E+02  0.70653815207E+03  0.90256746775E+02 0.  0.
          2    1    3    3  502    0 -0.49916434071E+02 -0.40831450232E+02  0.11277199512E+02  0.65467800843E+02  0.00000000000E+00 0. -1.
         -1    1    3    3    0  502 -0.52378939562E+03 -0.30033725478E+03 -0.13770703015E+03  0.61929074249E+03  0.00000000000E+00 0.  1.
         11    1    5    5    0    0 -0.26604505506E+02  0.14036578030E+03  0.18213202357E+03  0.23147878090E+03  0.00000000000E+00 0. -1.
        -11    1    5    5    0    0 -0.87641241750E+02  0.10707280670E+03  0.29107435264E+03  0.32228846078E+03  0.00000000000E+00 0.  1.
          3    1    6    6  503    0  0.60668402277E+03  0.67436589358E+02  0.56820058702E+02  0.61305930883E+03  0.00000000000E+00 0. -1.
         -3    1    6    6    0  503  0.81267554177E+02  0.26293528655E+02  0.37980641421E+02  0.93478843241E+02  0.00000000000E+00 0.  1.
<mgrwt>
<rscale>  0 0.18942764E+04</rscale>
<asrwt>0</asrwt>
<pdfrwt beam="1">  1        2 0.18358778E+00 0.18942764E+04</pdfrwt>
<pdfrwt beam="2">  1       -1 0.11565282E+00 0.18942764E+04</pdfrwt>
<totfact> 0.13830642E+01</totfact>
</mgrwt>
</event>
<event>
12    6  0.1530720E-007  0.1465631E+04  0.7818608E-02  0.8907635E-01
          2   -1    0    0  501    0  0.00000000000E+00  0.00000000000E+00  0.98865546169E+03  0.98865546169E+03  0.00000000000E+00 0. -1.
         -3   -1    0    0    0  501 -0.00000000000E+00 -0.00000000000E+00 -0.54318098208E+03  0.54318098208E+03  0.00000000000E+00 0.  1.
         24    2    1    2    0    0  0.16254284009E+03  0.30332545563E+03  0.33608275658E+03  0.48749955406E+03  0.79231868848E+02 0.  0.
        254    2    1    2    0    0 -0.16254284009E+03 -0.30332545563E+03  0.10939172303E+03  0.10443368897E+04  0.97992167200E+03 0.  0.
         23    2    4    4    0    0  0.27373993624E+03  0.16543464229E+03  0.20407508313E+03  0.39066038825E+03  0.93095251366E+02 0.  0.
         23    2    4    4    0    0 -0.43628277633E+03 -0.46876009793E+03 -0.94683360109E+02  0.65367650146E+03  0.90825874888E+02 0.  0.
          2    1    3    3  502    0  0.11520639377E+03  0.14216075496E+03  0.20216220926E+03  0.27267517721E+03  0.00000000000E+00 0. -1.
         -1    1    3    3    0  502  0.47336446319E+02  0.16116470068E+03  0.13392054732E+03  0.21482437685E+03  0.00000000000E+00 0.  1.
         11    1    5    5    0    0 -0.20089797909E+01 -0.20005036662E+01  0.18039844526E+02  0.18261270636E+02  0.00000000000E+00 0. -1.
        -11    1    5    5    0    0  0.27574891603E+03  0.16743514596E+03  0.18603523861E+03  0.37239911762E+03  0.00000000000E+00 0.  1.
          2    1    6    6  503    0 -0.16736449164E+03 -0.21671545753E+03 -0.78080019983E+02  0.28473312437E+03  0.00000000000E+00 0. -1.
         -2    1    6    6    0  503 -0.26891828469E+03 -0.25204464039E+03 -0.16603340126E+02  0.36894337709E+03  0.00000000000E+00 0.  1.
<mgrwt>
<rscale>  0 0.14656314E+04</rscale>
<asrwt>0</asrwt>
<pdfrwt beam="1">  1        2 0.15210084E+00 0.14656314E+04</pdfrwt>
<pdfrwt beam="2">  1       -3 0.83566305E-01 0.14656314E+04</pdfrwt>
<totfact> 0.20774540E+01</totfact>
</mgrwt>
</event>
<event>
12    6  0.1530720E-007  0.2004291E+04  0.7818608E-02  0.8604617E-01
          2   -1    0    0  501    0  0.00000000000E+00  0.00000000000E+00  0.18469467900E+04  0.18469467900E+04  0.00000000000E+00 0. -1.
         -1   -1    0    0    0  501 -0.00000000000E+00 -0.00000000000E+00 -0.54375987453E+03  0.54375987453E+03  0.00000000000E+00 0.  1.
         24    2    1    2    0    0 -0.62381455120E+03 -0.31973296143E+03  0.98271854396E+03  0.12098580495E+04  0.81529151125E+02 0.  0.
        254    2    1    2    0    0  0.62381455120E+03  0.31973296143E+03  0.32046837147E+03  0.11808486149E+04  0.89461148739E+03 0.  0.
         23    2    4    4    0    0  0.50742746802E+03  0.60320729761E+03  0.11303207879E+03  0.80184282212E+03  0.93989261945E+02 0.  0.
         23    2    4    4    0    0  0.11638708318E+03 -0.28347433618E+03  0.20743629268E+03  0.37900579282E+03  0.81926327058E+02 0.  0.
          4    1    3    3  502    0 -0.58706081436E+03 -0.27714172596E+03  0.91292798019E+03  0.11202166902E+04  0.00000000000E+00 0. -1.
         -3    1    3    3    0  502 -0.36753736847E+02 -0.42591235468E+02  0.69790563777E+02  0.89641359334E+02  0.00000000000E+00 0.  1.
         11    1    5    5    0    0  0.13465273409E+03  0.12731367133E+03 -0.73651143154E+01  0.18545720427E+03  0.00000000000E+00 0. -1.
        -11    1    5    5    0    0  0.37277473393E+03  0.47589362628E+03  0.12039719310E+03  0.61638561785E+03  0.00000000000E+00 0.  1.
          4    1    6    6  503    0  0.52744516381E+02 -0.11491819364E+03  0.38893391645E+02  0.13229085815E+03  0.00000000000E+00 0.  1.
         -4    1    6    6    0  503  0.63642566802E+02 -0.16855614254E+03  0.16854290104E+03  0.24671493467E+03  0.00000000000E+00 0. -1.
<mgrwt>
<rscale>  0 0.20042910E+04</rscale>
<asrwt>0</asrwt>
<pdfrwt beam="1">  1        2 0.28414566E+00 0.20042910E+04</pdfrwt>
<pdfrwt beam="2">  1       -1 0.83655366E-01 0.20042910E+04</pdfrwt>
<totfact> 0.12178980E+01</totfact>
</mgrwt>
</event>
<event>
12    6  0.1530720E-007  0.1713710E+04  0.7818608E-02  0.8753584E-01
          2   -1    0    0  501    0  0.00000000000E+00  0.00000000000E+00  0.95483723682E+03  0.95483723682E+03  0.00000000000E+00 0. -1.
         -1   -1    0    0    0  501 -0.00000000000E+00 -0.00000000000E+00 -0.76892698635E+03  0.76892698635E+03  0.00000000000E+00 0.  1.
         24    2    1    2    0    0  0.98999118388E+02 -0.36673280172E+03 -0.42397598229E+03  0.57499302825E+03  0.81040580466E+02 0.  0.
        254    2    1    2    0    0 -0.98999118388E+02  0.36673280172E+03  0.60988623275E+03  0.11487711949E+04  0.89633713974E+03 0.  0.
         23    2    4    4    0    0  0.12623081847E+03  0.48694490330E+03  0.34940849490E+02  0.51250212414E+03  0.91586057333E+02 0.  0.
         23    2    4    4    0    0 -0.22522993686E+03 -0.12021210158E+03  0.57494538326E+03  0.63626907078E+03  0.95376427227E+02 0.  0.
          2    1    3    3  502    0  0.31459299938E+02 -0.52428101193E+02 -0.35324358211E+02  0.70613055665E+02  0.00000000000E+00 0. -1.
         -1    1    3    3    0  502  0.67539818450E+02 -0.31430470053E+03 -0.38865162407E+03  0.50437997259E+03  0.00000000000E+00 0.  1.
         11    1    5    5    0    0  0.12969694164E+02  0.84900279937E+01  0.13173009450E+02  0.20342608486E+02  0.00000000000E+00 0. -1.
        -11    1    5    5    0    0  0.11326112431E+03  0.47845487531E+03  0.21767840040E+02  0.49215951565E+03  0.00000000000E+00 0.  1.
          1    1    6    6  503    0 -0.16588121016E+03 -0.98902838531E+02  0.32106425722E+03  0.37467399779E+03  0.00000000000E+00 0. -1.
         -1    1    6    6    0  503 -0.59348726697E+02 -0.21309263052E+02  0.25388112605E+03  0.26159507299E+03  0.00000000000E+00 0.  1.
<mgrwt>
<rscale>  0 0.17137096E+04</rscale>
<asrwt>0</asrwt>
<pdfrwt beam="1">  1        2 0.14689804E+00 0.17137096E+04</pdfrwt>
<pdfrwt beam="2">  1       -1 0.11829646E+00 0.17137096E+04</pdfrwt>
<totfact> 0.18744431E+01</totfact>
</mgrwt>
</event>
<event>
12    6  0.1530720E-007  0.1711561E+04  0.7818608E-02  0.8754798E-01
          2   -1    0    0  501    0  0.00000000000E+00  0.00000000000E+00  0.23671168375E+04  0.23671168375E+04  0.00000000000E+00 0. -1.
         -1   -1    0    0    0  501 -0.00000000000E+00 -0.00000000000E+00 -0.30938916683E+03  0.30938916683E+03  0.00000000000E+00 0.  1.
         24    2    1    2    0    0  0.23768598424E+03 -0.20894316161E+03  0.15667804217E+04  0.16004079448E+04  0.79704629116E+02 0.  0.
        254    2    1    2    0    0 -0.23768598424E+03  0.20894316161E+03  0.49094724897E+03  0.10760980596E+04  0.90377317987E+03 0.  0.
         23    2    4    4    0    0 -0.56366427154E+03  0.16390126587E+03  0.41999236406E+03  0.72746242967E+03  0.90702617085E+02 0.  0.
         23    2    4    4    0    0  0.32597828730E+03  0.45041895735E+02  0.70954884910E+02  0.34863562991E+03  0.90672987069E+02 0.  0.
          2    1    3    3  502    0  0.21948655491E+03 -0.15409579736E+03  0.12581718456E+04  0.12864354844E+04  0.00000000000E+00 0. -1.
         -1    1    3    3    0  502  0.18199429331E+02 -0.54847364251E+02  0.30860857616E+03  0.31397246037E+03  0.00000000000E+00 0.  1.
         11    1    5    5    0    0 -0.11408793119E+03  0.25113054334E+02  0.12993985339E+03  0.17473147123E+03  0.00000000000E+00 0. -1.
        -11    1    5    5    0    0 -0.44957634035E+03  0.13878821154E+03  0.29005251067E+03  0.55273095843E+03  0.00000000000E+00 0.  1.
          3    1    6    6  503    0  0.53749757994E+02  0.35392909566E+02 -0.84265428290E+01  0.64905324559E+02  0.00000000000E+00 0. -1.
         -3    1    6    6    0  503  0.27222852931E+03  0.96489861692E+01  0.79381427739E+02  0.28373030535E+03  0.00000000000E+00 0.  1.
<mgrwt>
<rscale>  0 0.17115610E+04</rscale>
<asrwt>0</asrwt>
<pdfrwt beam="1">  1        2 0.36417181E+00 0.17115610E+04</pdfrwt>
<pdfrwt beam="2">  1       -1 0.47598335E-01 0.17115610E+04</pdfrwt>
<totfact> 0.19827451E+01</totfact>
</mgrwt>
</event>
<event>
12    6  0.1530720E-007  0.4228404E+04  0.7818608E-02  0.7959991E-01
          2   -1    0    0  501    0  0.00000000000E+00  0.00000000000E+00  0.28160822908E+04  0.28160822908E+04  0.00000000000E+00 0. -1.
         -1   -1    0    0    0  501 -0.00000000000E+00 -0.00000000000E+00 -0.15872584531E+04  0.15872584531E+04  0.00000000000E+00 0.  1.
         24    2    1    2    0    0  0.19776192187E+04 -0.78748663354E+02  0.10056824442E+04  0.22215063601E+04  0.80710616355E+02 0.  0.
        254    2    1    2    0    0 -0.19776192187E+04  0.78748663354E+02  0.22314139350E+03  0.21818343837E+04  0.89074691711E+03 0.  0.
         23    2    4    4    0    0 -0.10193153359E+04  0.27634426892E+03 -0.25284971597E+03  0.10897592591E+04  0.90952487425E+02 0.  0.
         23    2    4    4    0    0 -0.95830388272E+03 -0.19759560556E+03  0.47599110947E+03  0.10920751245E+04  0.93113835583E+02 0.  0.
          2    1    3    3  502    0  0.18939070139E+03  0.15713479926E+02  0.91083472242E+02  0.21074142958E+03  0.00000000000E+00 0. -1.
         -1    1    3    3    0  502  0.17882285173E+04 -0.94462143280E+02  0.91459897196E+03  0.20107649306E+04  0.00000000000E+00 0.  1.
         11    1    5    5    0    0 -0.22576296663E+03  0.89424950924E+02 -0.85878789773E+02  0.25756728340E+03  0.00000000000E+00 0.  1.
        -11    1    5    5    0    0 -0.79355236931E+03  0.18691931799E+03 -0.16697092620E+03  0.83219197574E+03  0.00000000000E+00 0. -1.
          1    1    6    6  503    0 -0.73036220630E+02 -0.10609461472E+02  0.64841202823E+02  0.98240682918E+02  0.00000000000E+00 0. -1.
         -1    1    6    6    0  503 -0.88526766209E+03 -0.18698614409E+03  0.41114990665E+03  0.99383444163E+03  0.00000000000E+00 0.  1.
<mgrwt>
<rscale>  0 0.42284042E+04</rscale>
<asrwt>0</asrwt>
<pdfrwt beam="1">  1        2 0.43324343E+00 0.42284042E+04</pdfrwt>
<pdfrwt beam="2">  1       -1 0.24419361E+00 0.42284042E+04</pdfrwt>
<totfact> 0.15135817E-01</totfact>
</mgrwt>
</event>
<event>
12    6  0.1530720E-007  0.2198099E+04  0.7818608E-02  0.8519220E-01
          2   -1    0    0  501    0  0.00000000000E+00  0.00000000000E+00  0.29007352427E+04  0.29007352427E+04  0.00000000000E+00 0. -1.
         -1   -1    0    0    0  501 -0.00000000000E+00 -0.00000000000E+00 -0.41641489530E+03  0.41641489530E+03  0.00000000000E+00 0.  1.
         24    2    1    2    0    0 -0.25492921131E+03 -0.23211708576E+03  0.23213294932E+04  0.23481599878E+04  0.80109100639E+02 0.  0.
        254    2    1    2    0    0  0.25492921131E+03  0.23211708576E+03  0.16299085419E+03  0.96899015019E+03  0.89079102394E+03 0.  0.
         23    2    4    4    0    0 -0.20378344529E+03  0.18386938477E+03 -0.21922894691E+03  0.36297829684E+03  0.91412633599E+02 0.  0.
         23    2    4    4    0    0  0.45871265660E+03  0.48247700989E+02  0.38221980111E+03  0.60601185335E+03  0.91723759525E+02 0.  0.
          2    1    3    3  502    0 -0.18742476096E+03 -0.13966021049E+03  0.13470976258E+04  0.13672253029E+04  0.00000000000E+00 0. -1.
         -1    1    3    3    0  502 -0.67504450343E+02 -0.92456875274E+02  0.97423186741E+03  0.98093468492E+03  0.00000000000E+00 0.  1.
         11    1    5    5    0    0 -0.20184242311E+03  0.19315259923E+03 -0.21532402305E+03  0.35272188089E+03  0.00000000000E+00 0. -1.
        -11    1    5    5    0    0 -0.19410221778E+01 -0.92832144571E+01 -0.39049238653E+01  0.10256415950E+02  0.00000000000E+00 0.  1.
          2    1    6    6  503    0  0.41823108117E+03  0.69454638627E+02  0.33541440457E+03  0.54059597379E+03  0.00000000000E+00 0. -1.
         -2    1    6    6    0  503  0.40481575429E+02 -0.21206937638E+02  0.46805396533E+02  0.65415879554E+02  0.00000000000E+00 0.  1.
<mgrwt>
<rscale>  0 0.21980986E+04</rscale>
<asrwt>0</asrwt>
<pdfrwt beam="1">  1        2 0.44626695E+00 0.21980986E+04</pdfrwt>
<pdfrwt beam="2">  1       -1 0.64063832E-01 0.21980986E+04</pdfrwt>
<totfact> 0.51633991E+00</totfact>
</mgrwt>
</event>
<event>
12    6  0.1530720E-007  0.1535668E+04  0.7818608E-02  0.8861075E-01
          2   -1    0    0  501    0  0.00000000000E+00  0.00000000000E+00  0.38434255073E+03  0.38434255073E+03  0.00000000000E+00 0. -1.
         -1   -1    0    0    0  501 -0.00000000000E+00 -0.00000000000E+00 -0.15339670971E+04  0.15339670971E+04  0.00000000000E+00 0.  1.
         24    2    1    2    0    0  0.38942615270E+03  0.24338850060E+03 -0.62541942642E+03  0.78008154325E+03  0.80542315247E+02 0.  0.
        254    2    1    2    0    0 -0.38942615270E+03 -0.24338850060E+03 -0.52420511997E+03  0.11382281046E+04  0.89993417519E+03 0.  0.
         23    2    4    4    0    0 -0.15544528377E+03  0.26186682213E+03 -0.47470123906E+03  0.57136279870E+03  0.91524382525E+02 0.  0.
         23    2    4    4    0    0 -0.23398086893E+03 -0.50525532273E+03 -0.49503880909E+02  0.56686530590E+03  0.94104477258E+02 0.  0.
          2    1    3    3  502    0  0.17965038789E+03  0.84902727984E+02 -0.32432945480E+03  0.38035816060E+03  0.00000000000E+00 0. -1.
         -1    1    3    3    0  502  0.20977576481E+03  0.15848577262E+03 -0.30108997163E+03  0.39972338265E+03  0.00000000000E+00 0.  1.
         11    1    5    5    0    0 -0.15531274256E+03  0.18903543561E+03 -0.37884190620E+03  0.45097409439E+03  0.00000000000E+00 0. -1.
        -11    1    5    5    0    0 -0.13254120681E+00  0.72831386514E+02 -0.95859332867E+02  0.12038870431E+03  0.00000000000E+00 0.  1.
          1    1    6    6  503    0 -0.22672178916E+03 -0.49774522513E+03 -0.62144176513E+02  0.55046796228E+03  0.00000000000E+00 0. -1.
         -1    1    6    6    0  503 -0.72590797678E+01 -0.75100976027E+01  0.12640295604E+02  0.16397343628E+02  0.00000000000E+00 0.  1.
<mgrwt>
<rscale>  0 0.15356677E+04</rscale>
<asrwt>0</asrwt>
<pdfrwt beam="1">  1        2 0.59129623E-01 0.15356677E+04</pdfrwt>
<pdfrwt beam="2">  1       -1 0.23599494E+00 0.15356677E+04</pdfrwt>
<totfact> 0.79024769E+00</totfact>
</mgrwt>
</event>
<event>
12    6  0.1530720E-007  0.2113078E+04  0.7818608E-02  0.8555504E-01
          2   -1    0    0  501    0  0.00000000000E+00  0.00000000000E+00  0.81997603217E+03  0.81997603217E+03  0.00000000000E+00 0. -1.
         -1   -1    0    0    0  501 -0.00000000000E+00 -0.00000000000E+00 -0.13613498296E+04  0.13613498296E+04  0.00000000000E+00 0.  1.
         24    2    1    2    0    0  0.63177525446E+03  0.59653094683E+03 -0.20423964775E+03  0.89639739044E+03  0.82615405402E+02 0.  0.
        254    2    1    2    0    0 -0.63177525446E+03 -0.59653094683E+03 -0.33713414969E+03  0.12849284713E+04  0.88452959186E+03 0.  0.
         23    2    4    4    0    0 -0.47268536816E+03 -0.30032069403E+03  0.23568667944E+03  0.61412418559E+03  0.89310290174E+02 0.  0.
         23    2    4    4    0    0 -0.15908988630E+03 -0.29621025280E+03 -0.57282082912E+03  0.67080428574E+03  0.93832732580E+02 0.  0.
          4    1    3    3  502    0  0.60758914268E+02  0.93207940258E+02 -0.17308024052E+02  0.11260077037E+03  0.00000000000E+00 0. -1.
         -3    1    3    3    0  502  0.57101634019E+03  0.50332300657E+03 -0.18693162370E+03  0.78379662008E+03  0.00000000000E+00 0.  1.
         11    1    5    5    0    0 -0.42625274822E+03 -0.27145324781E+03  0.23967299798E+03  0.55930440466E+03  0.00000000000E+00 0. -1.
        -11    1    5    5    0    0 -0.46432619935E+02 -0.28867446220E+02 -0.39863185478E+01  0.54819780927E+02  0.00000000000E+00 0.  1.
          1    1    6    6  503    0 -0.12168252704E+03 -0.21729618530E+03 -0.33482404776E+03  0.41729056122E+03  0.00000000000E+00 0. -1.
         -1    1    6    6    0  503 -0.37407359262E+02 -0.78914067501E+02 -0.23799678137E+03  0.25351372451E+03  0.00000000000E+00 0.  1.
<mgrwt>
<rscale>  0 0.21130776E+04</rscale>
<asrwt>0</asrwt>
<pdfrwt beam="1">  1        2 0.12615016E+00 0.21130776E+04</pdfrwt>
<pdfrwt beam="2">  1       -1 0.20943843E+00 0.21130776E+04</pdfrwt>
<totfact> 0.45396431E+00</totfact>
</mgrwt>
</event>
<event>
12    6  0.1530720E-007  0.1873474E+04  0.7818608E-02  0.8668174E-01
          4   -1    0    0  501    0  0.00000000000E+00  0.00000000000E+00  0.65715093946E+03  0.65715093946E+03  0.00000000000E+00 0. -1.
         -1   -1    0    0    0  501 -0.00000000000E+00 -0.00000000000E+00 -0.13352735896E+04  0.13352735896E+04  0.00000000000E+00 0.  1.
         24    2    1    2    0    0  0.52924398691E+03 -0.47449027990E+03 -0.31699042651E+03  0.78239241345E+03  0.80092039033E+02 0.  0.
        254    2    1    2    0    0 -0.52924398691E+03  0.47449027990E+03 -0.36113222365E+03  0.12100321156E+04  0.91023129726E+03 0.  0.
         23    2    4    4    0    0 -0.32249401265E+03 -0.20479179947E+03  0.28975951596E+02  0.39393926554E+03  0.91686802966E+02 0.  0.
         23    2    4    4    0    0 -0.20674997426E+03  0.67928207938E+03 -0.39010817525E+03  0.81609285010E+03  0.98252004375E+02 0.  0.
          2    1    3    3  502    0  0.38824395026E+03 -0.31351844561E+03 -0.19281690017E+03  0.53498181057E+03  0.00000000000E+00 0. -1.
         -1    1    3    3    0  502  0.14100003665E+03 -0.16097183429E+03 -0.12417352634E+03  0.24741060288E+03  0.00000000000E+00 0.  1.
         11    1    5    5    0    0 -0.58111273600E+02 -0.58511180676E+02  0.39854673660E+02  0.91590793184E+02  0.00000000000E+00 0. -1.
        -11    1    5    5    0    0 -0.26438273905E+03 -0.14628061880E+03 -0.10878722065E+02  0.30234847236E+03  0.00000000000E+00 0.  1.
          4    1    6    6  503    0 -0.18294002042E+03  0.44286998755E+03 -0.25673993686E+03  0.54361408381E+03  0.00000000000E+00 0. -1.
         -4    1    6    6    0  503 -0.23809953846E+02  0.23641209183E+03 -0.13336823839E+03  0.27247876628E+03  0.00000000000E+00 0.  1.
<mgrwt>
<rscale>  0 0.18734741E+04</rscale>
<asrwt>0</asrwt>
<pdfrwt beam="1">  1        4 0.10110015E+00 0.18734741E+04</pdfrwt>
<pdfrwt beam="2">  1       -1 0.20542670E+00 0.18734741E+04</pdfrwt>
<totfact> 0.43455312E-01</totfact>
</mgrwt>
</event>
<event>
12    6  0.1530720E-007  0.3159858E+04  0.7818608E-02  0.8199500E-01
          2   -1    0    0  501    0  0.00000000000E+00  0.00000000000E+00  0.38183086867E+04  0.38183086867E+04  0.00000000000E+00 0. -1.
         -1   -1    0    0    0  501 -0.00000000000E+00 -0.00000000000E+00 -0.65373869165E+03  0.65373869165E+03  0.00000000000E+00 0.  1.
         24    2    1    2    0    0  0.51976474700E+03 -0.96723447659E+03  0.11376652156E+03  0.11065231074E+04  0.75846166109E+02 0.  0.
        254    2    1    2    0    0 -0.51976474700E+03  0.96723447659E+03  0.30508034735E+04  0.33655242709E+04  0.90202763786E+03 0.  0.
         23    2    4    4    0    0  0.14030216717E+03  0.24473330535E+03  0.22058969046E+03  0.36948514494E+03  0.90996549032E+02 0.  0.
         23    2    4    4    0    0 -0.66006691417E+03  0.72250117123E+03  0.28302137830E+04  0.29960391260E+04  0.91891855974E+02 0.  0.
          2    1    3    3  502    0  0.22310322811E+03 -0.42198450367E+03  0.87150791201E+02  0.48522286852E+03  0.00000000000E+00 0. -1.
         -1    1    3    3    0  502  0.29666151890E+03 -0.54524997292E+03  0.26615730361E+02  0.62130023891E+03  0.00000000000E+00 0.  1.
         11    1    5    5    0    0  0.21318078318E+02  0.12786009085E+03  0.95657607426E+02  0.16109947596E+03  0.00000000000E+00 0. -1.
        -11    1    5    5    0    0  0.11898408885E+03  0.11687321450E+03  0.12493208303E+03  0.20838566899E+03  0.00000000000E+00 0.  1.
          2    1    6    6  503    0 -0.88811294173E+01  0.88663975452E+01  0.14368613786E+02  0.19077330193E+02  0.00000000000E+00 0. -1.
         -2    1    6    6    0  503 -0.65118578475E+03  0.71363477369E+03  0.28158451692E+04  0.29769617958E+04  0.00000000000E+00 0.  1.
<mgrwt>
<rscale>  0 0.31598583E+04</rscale>
<asrwt>0</asrwt>
<pdfrwt beam="1">  1        2 0.58743209E+00 0.31598583E+04</pdfrwt>
<pdfrwt beam="2">  1       -1 0.10057519E+00 0.31598583E+04</pdfrwt>
<totfact> 0.42861428E-01</totfact>
</mgrwt>
</event>
<event>
12    6  0.1530720E-007  0.1755946E+04  0.7818608E-02  0.8730084E-01
          2   -1    0    0  501    0  0.00000000000E+00  0.00000000000E+00  0.31869668502E+04  0.31869668502E+04  0.00000000000E+00 0. -1.
         -1   -1    0    0    0  501 -0.00000000000E+00 -0.00000000000E+00 -0.24187163694E+03  0.24187163694E+03  0.00000000000E+00 0.  1.
         24    2    1    2    0    0  0.59224402665E+03  0.13712060183E+03  0.65977881159E+03  0.90046303817E+03  0.77269375228E+02 0.  0.
        254    2    1    2    0    0 -0.59224402665E+03 -0.13712060183E+03  0.22853164017E+04  0.25283754490E+04  0.89468223894E+03 0.  0.
         23    2    4    4    0    0 -0.71191049391E+03  0.93384042799E+02  0.20224899622E+04  0.21481587670E+04  0.92646154909E+02 0.  0.
         23    2    4    4    0    0  0.11966646726E+03 -0.23050464463E+03  0.26282643948E+03  0.38021668203E+03  0.89635558930E+02 0.  0.
          4    1    3    3  502    0  0.30977583115E+02 -0.12992914480E+01  0.59463633215E+02  0.67061333785E+02  0.00000000000E+00 0. -1.
         -3    1    3    3    0  502  0.56126644353E+03  0.13841989328E+03  0.60031517838E+03  0.83340170439E+03  0.00000000000E+00 0.  1.
         11    1    5    5    0    0 -0.64116672494E+03  0.80088580405E+02  0.18896549323E+04  0.19970740379E+04  0.00000000000E+00 0. -1.
        -11    1    5    5    0    0 -0.70743768971E+02  0.13295462394E+02  0.13283502993E+03  0.15108472903E+03  0.00000000000E+00 0.  1.
          1    1    6    6  503    0  0.11120872822E+03 -0.20917973621E+03  0.18945560270E+03  0.30334298849E+03  0.00000000000E+00 0. -1.
         -1    1    6    6    0  503  0.84577390422E+01 -0.21324908419E+02  0.73370836781E+02  0.76873693542E+02  0.00000000000E+00 0.  1.
<mgrwt>
<rscale>  0 0.17559463E+04</rscale>
<asrwt>0</asrwt>
<pdfrwt beam="1">  1        2 0.49030256E+00 0.17559463E+04</pdfrwt>
<pdfrwt beam="2">  1       -1 0.37211024E-01 0.17559463E+04</pdfrwt>
<totfact> 0.99682751E+00</totfact>
</mgrwt>
</event>
<event>
12    6  0.1530720E-007  0.3986681E+04  0.7818608E-02  0.8007239E-01
         -1   -1    0    0    0  501 -0.00000000000E+00  0.00000000000E+00  0.21176963141E+04  0.21176963141E+04  0.00000000000E+00 0.  1.
          2   -1    0    0  501    0  0.00000000000E+00 -0.00000000000E+00 -0.18762875506E+04  0.18762875506E+04  0.00000000000E+00 0. -1.
         24    2    1    2    0    0  0.14008701529E+04 -0.12309530405E+04  0.28770951511E+03  0.18883880142E+04  0.74498013329E+02 0.  0.
        254    2    1    2    0    0 -0.14008701529E+04  0.12309530405E+04 -0.46300751636E+02  0.21055958505E+04  0.97657951683E+03 0.  0.
         23    2    4    4    0    0 -0.41106823117E+02 -0.40284639096E+02  0.19896174641E+03  0.22585076102E+03  0.90056463775E+02 0.  0.
         23    2    4    4    0    0 -0.13597633298E+04  0.12712376796E+04 -0.24526249804E+03  0.18797450895E+04  0.91029430873E+02 0.  0.
          2    1    3    3  502    0  0.47157880654E+03 -0.44878515714E+03  0.12506131844E+03  0.66289895265E+03  0.00000000000E+00 0. -1.
         -1    1    3    3    0  502  0.92929134637E+03 -0.78216788336E+03  0.16264819667E+03  0.12254890616E+04  0.00000000000E+00 0.  1.
         11    1    5    5    0    0  0.22841790719E+02 -0.57291826879E+01  0.14676431805E+02  0.27748307841E+02  0.00000000000E+00 0.  1.
        -11    1    5    5    0    0 -0.63948613835E+02 -0.34555456408E+02  0.18428531460E+03  0.19810245318E+03  0.00000000000E+00 0. -1.
          1    1    6    6  503    0 -0.35486713453E+03  0.37493911142E+03 -0.94035931325E+02  0.52474067578E+03  0.00000000000E+00 0. -1.
         -1    1    6    6    0  503 -0.10048961953E+04  0.89629856818E+03 -0.15122656672E+03  0.13550044137E+04  0.00000000000E+00 0.  1.
<mgrwt>
<rscale>  0 0.39866814E+04</rscale>
<asrwt>0</asrwt>
<pdfrwt beam="1">  1        2 0.28865962E+00 0.39866814E+04</pdfrwt>
<pdfrwt beam="2">  1       -1 0.32579943E+00 0.39866814E+04</pdfrwt>
<totfact> 0.15774992E-01</totfact>
</mgrwt>
</event>
<event>
12    6  0.1530720E-007  0.1414691E+04  0.7818608E-02  0.8943253E-01
          2   -1    0    0  501    0  0.00000000000E+00  0.00000000000E+00  0.32921105648E+03  0.32921105648E+03  0.00000000000E+00 0. -1.
         -1   -1    0    0    0  501 -0.00000000000E+00 -0.00000000000E+00 -0.15198072039E+04  0.15198072039E+04  0.00000000000E+00 0.  1.
         24    2    1    2    0    0 -0.26878229044E+03  0.20770178473E+02 -0.79107139586E+03  0.83944986828E+03  0.78783297975E+02 0.  0.
        254    2    1    2    0    0  0.26878229044E+03 -0.20770178473E+02 -0.39952475160E+03  0.10095683921E+04  0.88709243672E+03 0.  0.
         23    2    4    4    0    0 -0.19663688219E+03 -0.20056129135E+03 -0.40595405159E+03  0.50188433245E+03  0.90544442866E+02 0.  0.
         23    2    4    4    0    0  0.46541917263E+03  0.17979111288E+03  0.64292999913E+01  0.50768405968E+03  0.93605117576E+02 0.  0.
          2    1    3    3  502    0 -0.53886451132E+02 -0.22864002418E+02 -0.12108914888E+03  0.13449570327E+03  0.00000000000E+00 0. -1.
         -1    1    3    3    0  502 -0.21489583931E+03  0.43634180892E+02 -0.66998224698E+03  0.70495416501E+03  0.00000000000E+00 0.  1.
         11    1    5    5    0    0 -0.89372329754E+02 -0.31459619415E+02 -0.13679499728E+03  0.16640310171E+03  0.00000000000E+00 0. -1.
        -11    1    5    5    0    0 -0.10726455244E+03 -0.16910167194E+03 -0.26915905431E+03  0.33548123074E+03  0.00000000000E+00 0.  1.
          3    1    6    6  503    0  0.21523726450E+03  0.34156758017E+02  0.10322577015E+02  0.21817497507E+03  0.00000000000E+00 0. -1.
         -3    1    6    6    0  503  0.25018190813E+03  0.14563435486E+03 -0.38932770241E+01  0.28950908462E+03  0.00000000000E+00 0.  1.
<mgrwt>
<rscale>  0 0.14146905E+04</rscale>
<asrwt>0</asrwt>
<pdfrwt beam="1">  1        2 0.50647855E-01 0.14146905E+04</pdfrwt>
<pdfrwt beam="2">  1       -1 0.23381649E+00 0.14146905E+04</pdfrwt>
<totfact> 0.98156748E+00</totfact>
</mgrwt>
</event>
<event>
12    6  0.1530720E-007  0.1239379E+04  0.7818608E-02  0.9079069E-01
         -1   -1    0    0    0  501 -0.00000000000E+00  0.00000000000E+00  0.54193060941E+03  0.54193060941E+03  0.00000000000E+00 0.  1.
          2   -1    0    0  501    0  0.00000000000E+00 -0.00000000000E+00 -0.70860600245E+03  0.70860600245E+03  0.00000000000E+00 0. -1.
         24    2    1    2    0    0  0.26791776039E+03  0.53134254124E+02 -0.12820108176E+03  0.31221700750E+03  0.80254389996E+02 0.  0.
        254    2    1    2    0    0 -0.26791776039E+03 -0.53134254124E+02 -0.38474311278E+02  0.93831960436E+03  0.89686132262E+03 0.  0.
         23    2    4    4    0    0  0.12011893042E+03  0.73832642333E+02 -0.36861234403E+03  0.40539771111E+03  0.92695347658E+02 0.  0.
         23    2    4    4    0    0 -0.38803669081E+03 -0.12696689646E+03  0.33013803276E+03  0.53292189325E+03  0.91222570819E+02 0.  0.
          2    1    3    3  502    0  0.15311586913E+03  0.63564018962E+02 -0.99757774522E+02  0.19348505747E+03  0.00000000000E+00 0. -1.
         -1    1    3    3    0  502  0.11480189126E+03 -0.10429764838E+02 -0.28443307240E+02  0.11873195003E+03  0.00000000000E+00 0.  1.
         11    1    5    5    0    0  0.86064258054E+02  0.13178842630E+02 -0.12705985891E+03  0.15402904321E+03  0.00000000000E+00 0. -1.
        -11    1    5    5    0    0  0.34054672367E+02  0.60653799703E+02 -0.24155248512E+03  0.25136866789E+03  0.00000000000E+00 0.  1.
          2    1    6    6  503    0 -0.54748556200E+01 -0.20442892286E+02  0.14638372954E+02  0.25732622327E+02  0.00000000000E+00 0.  1.
         -2    1    6    6    0  503 -0.38256183519E+03 -0.10652400417E+03  0.31549965980E+03  0.50718927093E+03  0.00000000000E+00 0. -1.
<mgrwt>
<rscale>  0 0.12393793E+04</rscale>
<asrwt>0</asrwt>
<pdfrwt beam="1">  1        2 0.10901631E+00 0.12393793E+04</pdfrwt>
<pdfrwt beam="2">  1       -1 0.83373941E-01 0.12393793E+04</pdfrwt>
<totfact> 0.64769892E+01</totfact>
</mgrwt>
</event>
<event>
12    6  0.1530720E-007  0.1618778E+04  0.7818608E-02  0.8809094E-01
         -1   -1    0    0    0  501 -0.00000000000E+00  0.00000000000E+00  0.28889937664E+03  0.28889937664E+03  0.00000000000E+00 0.  1.
          2   -1    0    0  501    0  0.00000000000E+00 -0.00000000000E+00 -0.22676086046E+04  0.22676086046E+04  0.00000000000E+00 0. -1.
         24    2    1    2    0    0  0.57222132562E+03 -0.48634751385E+02 -0.96379817288E+03  0.11247510703E+04  0.79721187068E+02 0.  0.
        254    2    1    2    0    0 -0.57222132562E+03  0.48634751385E+02 -0.10149110551E+04  0.14317569109E+04  0.83071103137E+03 0.  0.
         23    2    4    4    0    0 -0.24147947404E+03 -0.36922585476E+03 -0.60052501849E+03  0.75060848373E+03  0.90237075506E+02 0.  0.
         23    2    4    4    0    0 -0.33074185158E+03  0.41786060615E+03 -0.41438603658E+03  0.68114842716E+03  0.90828046123E+02 0.  0.
          2    1    3    3  502    0  0.55210015494E+03 -0.56176499596E+02 -0.89907354220E+03  0.10565527031E+04  0.00000000000E+00 0. -1.
         -1    1    3    3    0  502  0.20121170678E+02  0.75417482106E+01 -0.64724630680E+02  0.68198367225E+02  0.00000000000E+00 0.  1.
         11    1    5    5    0    0 -0.11652459966E+03 -0.14294351754E+03 -0.18483536086E+03  0.26110331702E+03  0.00000000000E+00 0.  1.
        -11    1    5    5    0    0 -0.12495487438E+03 -0.22628233722E+03 -0.41568965763E+03  0.48950516671E+03  0.00000000000E+00 0. -1.
          1    1    6    6  503    0 -0.15623242788E+03  0.20278577601E+03 -0.14224492002E+03  0.29285535636E+03  0.00000000000E+00 0. -1.
         -1    1    6    6    0  503 -0.17450942370E+03  0.21507483013E+03 -0.27214111655E+03  0.38829307080E+03  0.00000000000E+00 0.  1.
<mgrwt>
<rscale>  0 0.16187782E+04</rscale>
<asrwt>0</asrwt>
<pdfrwt beam="1">  1        2 0.34886288E+00 0.16187782E+04</pdfrwt>
<pdfrwt beam="2">  1       -1 0.44446056E-01 0.16187782E+04</pdfrwt>
<totfact> 0.25874995E+01</totfact>
</mgrwt>
</event>
<event>
12    6  0.1530720E-007  0.3514467E+04  0.7818608E-02  0.8110370E-01
          2   -1    0    0  501    0  0.00000000000E+00  0.00000000000E+00  0.17607268398E+04  0.17607268398E+04  0.00000000000E+00 0. -1.
         -1   -1    0    0    0  501 -0.00000000000E+00 -0.00000000000E+00 -0.17537467535E+04  0.17537467535E+04  0.00000000000E+00 0.  1.
         24    2    1    2    0    0 -0.40560151179E+03  0.67826662751E+03  0.14422751879E+04  0.16465012709E+04  0.79060185897E+02 0.  0.
        254    2    1    2    0    0  0.40560151179E+03 -0.67826662751E+03 -0.14352951017E+04  0.18679723224E+04  0.89704535228E+03 0.  0.
         23    2    4    4    0    0  0.62094120655E+03 -0.51422549951E+03 -0.13412051883E+04  0.15673983839E+04  0.88940937737E+02 0.  0.
         23    2    4    4    0    0 -0.21533969476E+03 -0.16404112800E+03 -0.94089913370E+02  0.30057393850E+03  0.90615147135E+02 0.  0.
          2    1    3    3  502    0 -0.35038157532E+03  0.54031886579E+03  0.11283609678E+04  0.12991959816E+04  0.00000000000E+00 0. -1.
         -1    1    3    3    0  502 -0.55219936470E+02  0.13794776172E+03  0.31391422017E+03  0.34730528930E+03  0.00000000000E+00 0.  1.
         11    1    5    5    0    0  0.50325556120E+03 -0.45000784711E+03 -0.11571883726E+04  0.13397231625E+04  0.00000000000E+00 0.  1.
        -11    1    5    5    0    0  0.11768564535E+03 -0.64217652397E+02 -0.18401681569E+03  0.22767522144E+03  0.00000000000E+00 0. -1.
          1    1    6    6  503    0 -0.47169856704E+01 -0.42221232961E+01 -0.27094434461E+02  0.27824173981E+02  0.00000000000E+00 0. -1.
         -1    1    6    6    0  503 -0.21062270909E+03 -0.15981900471E+03 -0.66995478909E+02  0.27274976452E+03  0.00000000000E+00 0.  1.
<mgrwt>
<rscale>  0 0.35144667E+04</rscale>
<asrwt>0</asrwt>
<pdfrwt beam="1">  1        2 0.27088105E+00 0.35144667E+04</pdfrwt>
<pdfrwt beam="2">  1       -1 0.26980719E+00 0.35144667E+04</pdfrwt>
<totfact> 0.43911811E-01</totfact>
</mgrwt>
</event>
<event>
12    6  0.1530720E-007  0.3429459E+04  0.7818608E-02  0.8130714E-01
         -1   -1    0    0    0  501 -0.00000000000E+00  0.00000000000E+00  0.10060836482E+04  0.10060836482E+04  0.00000000000E+00 0.  1.
          2   -1    0    0  501    0  0.00000000000E+00 -0.00000000000E+00 -0.29225184224E+04  0.29225184224E+04  0.00000000000E+00 0. -1.
         24    2    1    2    0    0 -0.21236646085E+03 -0.64534594619E+03  0.76324679654E+03  0.10248449925E+04  0.78680888926E+02 0.  0.
        254    2    1    2    0    0  0.21236646085E+03  0.64534594619E+03 -0.26796815708E+04  0.29037570781E+04  0.88856116508E+03 0.  0.
         23    2    4    4    0    0  0.36220908179E+03 -0.69809097804E+02 -0.96975669601E+03  0.10420935190E+04  0.97273449023E+02 0.  0.
         23    2    4    4    0    0 -0.14984262094E+03  0.71515504399E+03 -0.17099248748E+04  0.18616635591E+04  0.89713889364E+02 0.  0.
          2    1    3    3  502    0 -0.99713217879E+02 -0.33295181646E+03  0.33296290091E+03  0.48131479437E+03  0.00000000000E+00 0. -1.
         -1    1    3    3    0  502 -0.11265324297E+03 -0.31239412973E+03  0.43028389563E+03  0.54353019813E+03  0.00000000000E+00 0.  1.
         11    1    5    5    0    0  0.51115930011E+01 -0.28494196234E+01  0.66392137173E+00  0.58896830803E+01  0.00000000000E+00 0. -1.
        -11    1    5    5    0    0  0.35709748879E+03 -0.66959678180E+02 -0.97042061738E+03  0.10362038359E+04  0.00000000000E+00 0.  1.
          1    1    6    6  503    0 -0.67424770927E+02  0.27120398200E+03 -0.54939880716E+03  0.61639009474E+03  0.00000000000E+00 0. -1.
         -1    1    6    6    0  503 -0.82417850012E+02  0.44395106199E+03 -0.11605260676E+04  0.12452734644E+04  0.00000000000E+00 0.  1.
<mgrwt>
<rscale>  0 0.34294594E+04</rscale>
<asrwt>0</asrwt>
<pdfrwt beam="1">  1        2 0.44961822E+00 0.34294594E+04</pdfrwt>
<pdfrwt beam="2">  1       -1 0.15478210E+00 0.34294594E+04</pdfrwt>
<totfact> 0.58475319E-01</totfact>
</mgrwt>
</event>
<event>
12    6  0.1530720E-007  0.1709825E+04  0.7818608E-02  0.8755781E-01
          2   -1    0    0  501    0  0.00000000000E+00  0.00000000000E+00  0.12255754966E+04  0.12255754966E+04  0.00000000000E+00 0. -1.
         -1   -1    0    0    0  501 -0.00000000000E+00 -0.00000000000E+00 -0.59635280111E+03  0.59635280111E+03  0.00000000000E+00 0.  1.
         24    2    1    2    0    0 -0.52309063861E+03 -0.27215135577E+03  0.46109160517E+02  0.59732366579E+03  0.83542386737E+02 0.  0.
        254    2    1    2    0    0  0.52309063861E+03  0.27215135577E+03  0.58311353497E+03  0.12246046319E+04  0.90107987060E+03 0.  0.
         23    2    4    4    0    0  0.28302339142E+03  0.32199125715E+03  0.78166073057E+03  0.89614082717E+03  0.91072908418E+02 0.  0.
         23    2    4    4    0    0  0.24006724719E+03 -0.49839901380E+02 -0.19854719560E+03  0.32846380475E+03  0.91384808398E+02 0.  0.
          2    1    3    3  502    0 -0.16276924319E+03 -0.10578541534E+03  0.49883961459E+02  0.20043151010E+03  0.00000000000E+00 0. -1.
         -1    1    3    3    0  502 -0.36032139541E+03 -0.16636594042E+03 -0.37748009420E+01  0.39689215569E+03  0.00000000000E+00 0.  1.
         11    1    5    5    0    0  0.53771280070E+01  0.22282025807E+02  0.89604664810E+02  0.92489989379E+02  0.00000000000E+00 0. -1.
        -11    1    5    5    0    0  0.27764626341E+03  0.29970923134E+03  0.69205606576E+03  0.80365083780E+03  0.00000000000E+00 0.  1.
          4    1    6    6  503    0  0.17978732530E+03 -0.14444176593E+02 -0.18281022803E+03  0.25681062293E+03  0.00000000000E+00 0.  1.
         -4    1    6    6    0  503  0.60279921888E+02 -0.35395724787E+02 -0.15736967562E+02  0.71653181814E+02  0.00000000000E+00 0. -1.
<mgrwt>
<rscale>  0 0.17098250E+04</rscale>
<asrwt>0</asrwt>
<pdfrwt beam="1">  1        2 0.18855008E+00 0.17098250E+04</pdfrwt>
<pdfrwt beam="2">  1       -1 0.91746585E-01 0.17098250E+04</pdfrwt>
<totfact> 0.22951367E+01</totfact>
</mgrwt>
</event>
<event>
12    6  0.1530720E-007  0.2320957E+04  0.7818608E-02  0.8469703E-01
          4   -1    0    0  501    0  0.00000000000E+00  0.00000000000E+00  0.95964939113E+03  0.95964939113E+03  0.00000000000E+00 0. -1.
         -3   -1    0    0    0  501 -0.00000000000E+00 -0.00000000000E+00 -0.14033363055E+04  0.14033363055E+04  0.00000000000E+00 0.  1.
         24    2    1    2    0    0  0.29144593972E+03  0.86622010661E+03  0.19453396709E+03  0.93774704977E+03  0.79044646410E+02 0.  0.
        254    2    1    2    0    0 -0.29144593972E+03 -0.86622010661E+03 -0.63822088142E+03  0.14252386468E+04  0.88808856429E+03 0.  0.
         23    2    4    4    0    0 -0.37557394852E+03 -0.37489074611E+03  0.82014723575E+02  0.54462945291E+03  0.91082181397E+02 0.  0.
         23    2    4    4    0    0  0.84128008798E+02 -0.49132936050E+03 -0.72023560499E+03  0.88060919390E+03  0.90835914365E+02 0.  0.
          2    1    3    3  502    0  0.26840629308E+03  0.76906139474E+03  0.19632143092E+03  0.83787795727E+03  0.00000000000E+00 0. -1.
         -1    1    3    3    0  502  0.23039646636E+02  0.97158711870E+02 -0.17874638257E+01  0.99869092498E+02  0.00000000000E+00 0.  1.
         11    1    5    5    0    0 -0.17973211671E+03 -0.24270243379E+03  0.52019414420E+02  0.30645411503E+03  0.00000000000E+00 0. -1.
        -11    1    5    5    0    0 -0.19584183181E+03 -0.13218831232E+03  0.29995309155E+02  0.23817533787E+03  0.00000000000E+00 0.  1.
          2    1    6    6  503    0  0.54388651186E+02 -0.11799033196E+03 -0.22329803544E+03  0.25834445310E+03  0.00000000000E+00 0. -1.
         -2    1    6    6    0  503  0.29739357612E+02 -0.37333902854E+03 -0.49693756955E+03  0.62226474081E+03  0.00000000000E+00 0.  1.
<mgrwt>
<rscale>  0 0.23209574E+04</rscale>
<asrwt>0</asrwt>
<pdfrwt beam="1">  1        4 0.14763837E+00 0.23209574E+04</pdfrwt>
<pdfrwt beam="2">  1       -3 0.21589789E+00 0.23209574E+04</pdfrwt>
<totfact> 0.74864526E-02</totfact>
</mgrwt>
</event>
<event>
12    6  0.1530720E-007  0.1227587E+04  0.7818608E-02  0.9089046E-01
          2   -1    0    0  501    0  0.00000000000E+00  0.00000000000E+00  0.11518019203E+04  0.11518019203E+04  0.00000000000E+00 0. -1.
         -1   -1    0    0    0  501 -0.00000000000E+00 -0.00000000000E+00 -0.32708980229E+03  0.32708980229E+03  0.00000000000E+00 0.  1.
         24    2    1    2    0    0 -0.15964015367E+03  0.18576503987E+03  0.39484556600E+02  0.26192557686E+03  0.83978264453E+02 0.  0.
        254    2    1    2    0    0  0.15964015367E+03 -0.18576503987E+03  0.78522756144E+03  0.12169661458E+04  0.89690057865E+03 0.  0.
         23    2    4    4    0    0  0.50346082471E+03 -0.22413219883E+03  0.38190903792E+03  0.67669575003E+03  0.91403393244E+02 0.  0.
         23    2    4    4    0    0 -0.34382067104E+03  0.38367158954E+02  0.40331852352E+03  0.54027039573E+03  0.97680992845E+02 0.  0.
          4    1    3    3  502    0 -0.15955246270E+02  0.22522275359E+02  0.34783459238E+02  0.44403961619E+02  0.00000000000E+00 0. -1.
         -3    1    3    3    0  502 -0.14368490740E+03  0.16324276451E+03  0.47010973618E+01  0.21752161524E+03  0.00000000000E+00 0.  1.
         11    1    5    5    0    0  0.32012222943E+03 -0.17692200093E+03  0.21476329753E+03  0.42414963180E+03  0.00000000000E+00 0. -1.
        -11    1    5    5    0    0  0.18333859528E+03 -0.47210197899E+02  0.16714574039E+03  0.25254611824E+03  0.00000000000E+00 0.  1.
          3    1    6    6  503    0 -0.30239066949E+03  0.34928528319E+02  0.29351583171E+03  0.42286128050E+03  0.00000000000E+00 0. -1.
         -3    1    6    6    0  503 -0.41430001556E+02  0.34386306355E+01  0.10980269181E+03  0.11740911523E+03  0.00000000000E+00 0.  1.
<mgrwt>
<rscale>  0 0.12275873E+04</rscale>
<asrwt>0</asrwt>
<pdfrwt beam="1">  1        2 0.17720029E+00 0.12275873E+04</pdfrwt>
<pdfrwt beam="2">  1       -1 0.50321509E-01 0.12275873E+04</pdfrwt>
<totfact> 0.90153134E+01</totfact>
</mgrwt>
</event>
<event>
12    6  0.1530720E-007  0.1504323E+04  0.7818608E-02  0.8881583E-01
         -1   -1    0    0    0  501 -0.00000000000E+00  0.00000000000E+00  0.34250204936E+03  0.34250204936E+03  0.00000000000E+00 0.  1.
          2   -1    0    0  501    0  0.00000000000E+00 -0.00000000000E+00 -0.16518067767E+04  0.16518067767E+04  0.00000000000E+00 0. -1.
         24    2    1    2    0    0 -0.28850214566E+03 -0.19698890602E+03  0.13849889362E+02  0.35907280852E+03  0.81873959445E+02 0.  0.
        254    2    1    2    0    0  0.28850214566E+03  0.19698890602E+03 -0.13231546167E+04  0.16352360175E+04  0.89510925377E+03 0.  0.
         23    2    4    4    0    0  0.42294528697E+02  0.59466367222E+02  0.11678605628E+03  0.16513588278E+03  0.91136166539E+02 0.  0.
         23    2    4    4    0    0  0.24620761697E+03  0.13752253880E+03 -0.14399406730E+04  0.14701001347E+04  0.90744835368E+02 0.  0.
          4    1    3    3  502    0  0.23991035916E+01 -0.12222885689E+02  0.72055881779E+01  0.14390105406E+02  0.00000000000E+00 0. -1.
         -3    1    3    3    0  502 -0.29090124926E+03 -0.18476602033E+03  0.66443011838E+01  0.34468270311E+03  0.00000000000E+00 0.  1.
         11    1    5    5    0    0  0.34911860284E+02  0.46741589683E+02  0.13178832777E+03  0.14412417400E+03  0.00000000000E+00 0.  1.
        -11    1    5    5    0    0  0.73826684134E+01  0.12724777539E+02 -0.15002271485E+02  0.21011708784E+02  0.00000000000E+00 0. -1.
          3    1    6    6  503    0  0.63437561709E+02 -0.35216416450E+01 -0.38358584111E+03  0.38881206732E+03  0.00000000000E+00 0. -1.
         -3    1    6    6    0  503  0.18277005526E+03  0.14104418044E+03 -0.10563548319E+04  0.10812880674E+04  0.00000000000E+00 0.  1.
<mgrwt>
<rscale>  0 0.15043234E+04</rscale>
<asrwt>0</asrwt>
<pdfrwt beam="1">  1        2 0.25412412E+00 0.15043234E+04</pdfrwt>
<pdfrwt beam="2">  1       -1 0.52692623E-01 0.15043234E+04</pdfrwt>
<totfact> 0.41670383E+01</totfact>
</mgrwt>
</event>
<event>
12    6  0.1530720E-007  0.1352442E+04  0.7818608E-02  0.8988982E-01
         -1   -1    0    0    0  501 -0.00000000000E+00  0.00000000000E+00  0.76073846690E+03  0.76073846690E+03  0.00000000000E+00 0.  1.
          2   -1    0    0  501    0  0.00000000000E+00 -0.00000000000E+00 -0.60109312665E+03  0.60109312665E+03  0.00000000000E+00 0. -1.
         24    2    1    2    0    0 -0.21126523429E+03 -0.20708991332E+03  0.26877182467E+03  0.40915748291E+03  0.87477543806E+02 0.  0.
        254    2    1    2    0    0  0.21126523429E+03  0.20708991332E+03 -0.10912648441E+03  0.95267411063E+03  0.89897727449E+03 0.  0.
         23    2    4    4    0    0  0.19678847645E+03 -0.27068107257E+03 -0.27029200089E+03  0.43998777246E+03  0.92398737302E+02 0.  0.
         23    2    4    4    0    0  0.14476757839E+02  0.47777098589E+03  0.16116551648E+03  0.51268633818E+03  0.91642054656E+02 0.  0.
          2    1    3    3  502    0 -0.11719022593E+02  0.53108085088E+01  0.29148151157E+02  0.31861495467E+02  0.00000000000E+00 0. -1.
         -1    1    3    3    0  502 -0.19954621170E+03 -0.21240072183E+03  0.23962367351E+03  0.37729598745E+03  0.00000000000E+00 0.  1.
         11    1    5    5    0    0  0.12848760195E+03 -0.12576544317E+03 -0.18704485928E+03  0.25944515786E+03  0.00000000000E+00 0. -1.
        -11    1    5    5    0    0  0.68300874499E+02 -0.14491562939E+03 -0.83247141607E+02  0.18054261460E+03  0.00000000000E+00 0.  1.
          1    1    6    6  503    0  0.20638393544E+01  0.44669527737E+03  0.12597055237E+03  0.46412230104E+03  0.00000000000E+00 0. -1.
         -1    1    6    6    0  503  0.12412918484E+02  0.31075708521E+02  0.35194964103E+02  0.48564037143E+02  0.00000000000E+00 0.  1.
<mgrwt>
<rscale>  0 0.13524417E+04</rscale>
<asrwt>0</asrwt>
<pdfrwt beam="1">  1        2 0.92475865E-01 0.13524417E+04</pdfrwt>
<pdfrwt beam="2">  1       -1 0.11703669E+00 0.13524417E+04</pdfrwt>
<totfact> 0.36354309E+01</totfact>
</mgrwt>
</event>
<event>
12    6  0.1530720E-007  0.1678527E+04  0.7818608E-02  0.8773707E-01
         -1   -1    0    0    0  501 -0.00000000000E+00  0.00000000000E+00  0.16886759619E+04  0.16886759619E+04  0.00000000000E+00 0.  1.
          2   -1    0    0  501    0  0.00000000000E+00 -0.00000000000E+00 -0.41710993138E+03  0.41710993138E+03  0.00000000000E+00 0. -1.
         24    2    1    2    0    0 -0.12593608647E+03  0.58173953317E+03  0.51192036032E+03  0.78865427804E+03  0.75048868266E+02 0.  0.
        254    2    1    2    0    0  0.12593608647E+03 -0.58173953317E+03  0.75964567023E+03  0.13171316153E+04  0.89637791434E+03 0.  0.
         23    2    4    4    0    0  0.34070632408E+03 -0.61540412383E+03  0.24420057332E+03  0.75055950911E+03  0.94353705859E+02 0.  0.
         23    2    4    4    0    0 -0.21477023762E+03  0.33664590659E+02  0.51544509690E+03  0.56657210616E+03  0.89781645799E+02 0.  0.
          2    1    3    3  502    0 -0.11795567207E+03  0.42967613837E+03  0.40929719706E+03  0.60502836295E+03  0.00000000000E+00 0. -1.
         -1    1    3    3    0  502 -0.79804143928E+01  0.15206339480E+03  0.10262316326E+03  0.18362591508E+03  0.00000000000E+00 0.  1.
         11    1    5    5    0    0  0.78097731501E+02 -0.13392270139E+03  0.96376383366E+02  0.18254575559E+03  0.00000000000E+00 0. -1.
        -11    1    5    5    0    0  0.26260859258E+03 -0.48148142244E+03  0.14782418996E+03  0.56801375352E+03  0.00000000000E+00 0.  1.
          1    1    6    6  503    0  0.55688902504E+01 -0.54440886864E+01  0.50731490235E+01  0.92944866056E+01  0.00000000000E+00 0. -1.
         -1    1    6    6    0  503 -0.22033912787E+03  0.39108679345E+02  0.51037194788E+03  0.55727761955E+03  0.00000000000E+00 0.  1.
<mgrwt>
<rscale>  0 0.16785273E+04</rscale>
<asrwt>0</asrwt>
<pdfrwt beam="1">  1        2 0.64170760E-01 0.16785273E+04</pdfrwt>
<pdfrwt beam="2">  1       -1 0.25979630E+00 0.16785273E+04</pdfrwt>
<totfact> 0.49770101E+00</totfact>
</mgrwt>
</event>
<event>
12    6  0.1530720E-007  0.2137843E+04  0.7818608E-02  0.8544754E-01
         -1   -1    0    0    0  501 -0.00000000000E+00  0.00000000000E+00  0.75385664034E+03  0.75385664034E+03  0.00000000000E+00 0.  1.
          2   -1    0    0  501    0  0.00000000000E+00 -0.00000000000E+00 -0.15156636348E+04  0.15156636348E+04  0.00000000000E+00 0. -1.
         24    2    1    2    0    0 -0.14579668130E+03  0.25634963837E+03  0.58334644450E+03  0.65892585845E+03  0.83176939431E+02 0.  0.
        254    2    1    2    0    0  0.14579668130E+03 -0.25634963837E+03 -0.13451534390E+04  0.16105944167E+04  0.83522738903E+03 0.  0.
         23    2    4    4    0    0  0.29450358029E+03 -0.49305905410E+03 -0.77888603624E+03  0.97231094025E+03  0.94263022757E+02 0.  0.
         23    2    4    4    0    0 -0.14870689899E+03  0.23670941572E+03 -0.56626740272E+03  0.63828347645E+03  0.92746620540E+02 0.  0.
          2    1    3    3  502    0 -0.46979439236E+02  0.11297285414E+03  0.16197625791E+03  0.20299320583E+03  0.00000000000E+00 0. -1.
         -1    1    3    3    0  502 -0.98817242065E+02  0.14337678423E+03  0.42137018658E+03  0.45593265262E+03  0.00000000000E+00 0.  1.
         11    1    5    5    0    0  0.29340186662E+03 -0.48923000564E+03 -0.74567626897E+03  0.93886301017E+03  0.00000000000E+00 0.  1.
        -11    1    5    5    0    0  0.11017136668E+01 -0.38290484577E+01 -0.33209767264E+02  0.33447930082E+02  0.00000000000E+00 0. -1.
          3    1    6    6  503    0 -0.37377551657E+02  0.31997333224E+02 -0.42495512198E+02  0.65013685161E+02  0.00000000000E+00 0. -1.
         -3    1    6    6    0  503 -0.11132934733E+03  0.20471208250E+03 -0.52377189052E+03  0.57326979128E+03  0.00000000000E+00 0.  1.
<mgrwt>
<rscale>  0 0.21378429E+04</rscale>
<asrwt>0</asrwt>
<pdfrwt beam="1">  1        2 0.23317902E+00 0.21378429E+04</pdfrwt>
<pdfrwt beam="2">  1       -1 0.11597795E+00 0.21378429E+04</pdfrwt>
<totfact> 0.87554360E+00</totfact>
</mgrwt>
</event>
<event>
12    6  0.1530720E-007  0.2794428E+04  0.7818608E-02  0.8305000E-01
          2   -1    0    0  501    0  0.00000000000E+00  0.00000000000E+00  0.18269356796E+04  0.18269356796E+04  0.00000000000E+00 0. -1.
         -1   -1    0    0    0  501 -0.00000000000E+00 -0.00000000000E+00 -0.10685687893E+04  0.10685687893E+04  0.00000000000E+00 0.  1.
         24    2    1    2    0    0  0.65898052366E+03  0.57333219537E+03 -0.59077499689E+03  0.10574296990E+04  0.78596021053E+02 0.  0.
        254    2    1    2    0    0 -0.65898052366E+03 -0.57333219537E+03  0.13491418872E+04  0.18380747699E+04  0.89183512548E+03 0.  0.
         23    2    4    4    0    0  0.32761973936E+02 -0.17140306774E+03  0.88845724995E+03  0.90997800699E+03  0.90836829789E+02 0.  0.
         23    2    4    4    0    0 -0.69174249759E+03 -0.40192912763E+03  0.46068463725E+03  0.92809676289E+03  0.95281475997E+02 0.  0.
          2    1    3    3  502    0  0.13885824156E+02  0.94031038954E+01 -0.17580808007E+00  0.16770968483E+02  0.00000000000E+00 0. -1.
         -1    1    3    3    0  502  0.64509469950E+03  0.56392909147E+03 -0.59059918881E+03  0.10406587305E+04  0.00000000000E+00 0.  1.
         11    1    5    5    0    0  0.53409804226E+02 -0.16261852362E+03  0.72180895285E+03  0.74182582580E+03  0.00000000000E+00 0. -1.
        -11    1    5    5    0    0 -0.20647830291E+02 -0.87845441151E+01  0.16664829710E+03  0.16815218119E+03  0.00000000000E+00 0.  1.
          1    1    6    6  503    0 -0.59833215933E+03 -0.35176892710E+03  0.43458368814E+03  0.81890520389E+03  0.00000000000E+00 0. -1.
         -1    1    6    6    0  503 -0.93410338260E+02 -0.50160200529E+02  0.26100949111E+02  0.10919155899E+03  0.00000000000E+00 0.  1.
<mgrwt>
<rscale>  0 0.27944276E+04</rscale>
<asrwt>0</asrwt>
<pdfrwt beam="1">  1        2 0.28106703E+00 0.27944276E+04</pdfrwt>
<pdfrwt beam="2">  1       -1 0.16439520E+00 0.27944276E+04</pdfrwt>
<totfact> 0.22365888E+00</totfact>
</mgrwt>
</event>
<event>
12    6  0.1530720E-007  0.1586511E+04  0.7818608E-02  0.8828878E-01
         -1   -1    0    0    0  501 -0.00000000000E+00  0.00000000000E+00  0.46437621245E+03  0.46437621245E+03  0.00000000000E+00 0.  1.
          2   -1    0    0  501    0  0.00000000000E+00 -0.00000000000E+00 -0.13550533320E+04  0.13550533320E+04  0.00000000000E+00 0. -1.
         24    2    1    2    0    0  0.40995628528E+03 -0.18598729501E+03  0.15480012086E+02  0.45757897789E+03  0.80519938460E+02 0.  0.
        254    2    1    2    0    0 -0.40995628528E+03  0.18598729501E+03 -0.90615713166E+03  0.13618505666E+04  0.91151565467E+03 0.  0.
         23    2    4    4    0    0  0.78093148573E+02  0.13070675461E+03  0.12436913614E+03  0.21672619290E+03  0.91212746428E+02 0.  0.
         23    2    4    4    0    0 -0.48804943385E+03  0.55280540397E+02 -0.10305262678E+04  0.11451243737E+04  0.89873547595E+02 0.  0.
          4    1    3    3  502    0  0.41359343239E+01  0.58372139089E+01 -0.41621313604E+01  0.82766150334E+01  0.00000000000E+00 0. -1.
         -3    1    3    3    0  502  0.40582035095E+03 -0.19182450892E+03  0.19642143446E+02  0.44930236286E+03  0.00000000000E+00 0.  1.
         11    1    5    5    0    0  0.65855727430E+02  0.13877687179E+03  0.86889027439E+02  0.17648144398E+03  0.00000000000E+00 0. -1.
        -11    1    5    5    0    0  0.12237421143E+02 -0.80701171837E+01  0.37480108699E+02  0.40244748920E+02  0.00000000000E+00 0.  1.
          1    1    6    6  503    0 -0.42065766267E+03  0.23039796647E+02 -0.82299932839E+03  0.92456021758E+03  0.00000000000E+00 0. -1.
         -1    1    6    6    0  503 -0.67391771181E+02  0.32240743750E+02 -0.20752693941E+03  0.22056415611E+03  0.00000000000E+00 0.  1.
<mgrwt>
<rscale>  0 0.15865113E+04</rscale>
<asrwt>0</asrwt>
<pdfrwt beam="1">  1        2 0.20846974E+00 0.15865113E+04</pdfrwt>
<pdfrwt beam="2">  1       -1 0.71442494E-01 0.15865113E+04</pdfrwt>
<totfact> 0.33243406E+01</totfact>
</mgrwt>
</event>
<event>
12    6  0.1530720E-007  0.1265997E+04  0.7818608E-02  0.9056973E-01
         -1   -1    0    0    0  501 -0.00000000000E+00  0.00000000000E+00  0.25401060428E+03  0.25401060428E+03  0.00000000000E+00 0.  1.
          2   -1    0    0  501    0  0.00000000000E+00 -0.00000000000E+00 -0.15774423194E+04  0.15774423194E+04  0.00000000000E+00 0. -1.
         24    2    1    2    0    0  0.91679749344E+02 -0.71091598846E+02 -0.72649823652E+03  0.73988949584E+03  0.78597624114E+02 0.  0.
        254    2    1    2    0    0 -0.91679749344E+02  0.71091598846E+02 -0.59693347861E+03  0.10915634279E+04  0.90648880153E+03 0.  0.
         23    2    4    4    0    0  0.11339651465E+02 -0.29801355483E+03  0.68581626691E+02  0.31898932080E+03  0.90055986529E+02 0.  0.
         23    2    4    4    0    0 -0.10301940081E+03  0.36910515368E+03 -0.66551510530E+03  0.77257410706E+03  0.84313605655E+02 0.  0.
          4    1    3    3  502    0  0.17467805467E+02 -0.11617932723E+02 -0.37994840419E+03  0.38052712181E+03  0.00000000000E+00 0. -1.
         -3    1    3    3    0  502  0.74211943877E+02 -0.59473666122E+02 -0.34654983233E+03  0.35936237402E+03  0.00000000000E+00 0.  1.
         11    1    5    5    0    0 -0.78085869949E+01 -0.62357636638E+00  0.13976512848E+02  0.16022040748E+02  0.00000000000E+00 0. -1.
        -11    1    5    5    0    0  0.19148238460E+02 -0.29738997846E+03  0.54605113843E+02  0.30296728006E+03  0.00000000000E+00 0.  1.
          2    1    6    6  503    0 -0.18699456359E+02  0.15382842870E+03 -0.33630681145E+03  0.37029059746E+03  0.00000000000E+00 0.  1.
         -2    1    6    6    0  503 -0.84319944451E+02  0.21527672498E+03 -0.32920829385E+03  0.40228350959E+03  0.00000000000E+00 0. -1.
<mgrwt>
<rscale>  0 0.12659970E+04</rscale>
<asrwt>0</asrwt>
<pdfrwt beam="1">  1        2 0.24268344E+00 0.12659970E+04</pdfrwt>
<pdfrwt beam="2">  1       -1 0.39078554E-01 0.12659970E+04</pdfrwt>
<totfact> 0.81663997E+01</totfact>
</mgrwt>
</event>
<event>
12    6  0.1530720E-007  0.2137278E+04  0.7818608E-02  0.8544998E-01
         -1   -1    0    0    0  501 -0.00000000000E+00  0.00000000000E+00  0.88668704926E+03  0.88668704926E+03  0.00000000000E+00 0.  1.
          2   -1    0    0  501    0  0.00000000000E+00 -0.00000000000E+00 -0.12879279502E+04  0.12879279502E+04  0.00000000000E+00 0. -1.
         24    2    1    2    0    0 -0.81967638846E+03  0.30785611774E+03 -0.21644130058E+03  0.90561408393E+03  0.81518472624E+02 0.  0.
        254    2    1    2    0    0  0.81967638846E+03 -0.30785611774E+03 -0.18479960034E+03  0.12690009155E+04  0.89975977920E+03 0.  0.
         23    2    4    4    0    0  0.12112874626E+02 -0.44818795098E+02  0.27897472923E+03  0.29795814271E+03  0.93790773182E+02 0.  0.
         23    2    4    4    0    0  0.80756351384E+03 -0.26303732264E+03 -0.46377432957E+03  0.97104277281E+03  0.80560386534E+02 0.  0.
          2    1    3    3  502    0 -0.15113879187E+03  0.45265163436E+02 -0.91324281033E+01  0.15803566266E+03  0.00000000000E+00 0. -1.
         -1    1    3    3    0  502 -0.66853759659E+03  0.26259095431E+03 -0.20730887248E+03  0.74757842127E+03  0.00000000000E+00 0.  1.
         11    1    5    5    0    0  0.34173399872E+02 -0.28092056134E+02  0.26150902126E+03  0.26522434481E+03  0.00000000000E+00 0. -1.
        -11    1    5    5    0    0 -0.22060525247E+02 -0.16726738964E+02  0.17465707968E+02  0.32733797906E+02  0.00000000000E+00 0.  1.
          3    1    6    6  503    0  0.44832491124E+03 -0.18556465744E+03 -0.27905538386E+03  0.55973330738E+03  0.00000000000E+00 0. -1.
         -3    1    6    6    0  503  0.35923860259E+03 -0.77472665199E+02 -0.18471894570E+03  0.41130946542E+03  0.00000000000E+00 0.  1.
<mgrwt>
<rscale>  0 0.21372777E+04</rscale>
<asrwt>0</asrwt>
<pdfrwt beam="1">  1        2 0.19814276E+00 0.21372777E+04</pdfrwt>
<pdfrwt beam="2">  1       -1 0.13641339E+00 0.21372777E+04</pdfrwt>
<totfact> 0.78914246E+00</totfact>
</mgrwt>
</event>
<event>
12    6  0.1530720E-007  0.2425910E+04  0.7818608E-02  0.8429867E-01
         -1   -1    0    0    0  501 -0.00000000000E+00  0.00000000000E+00  0.83769603012E+03  0.83769603012E+03  0.00000000000E+00 0.  1.
          2   -1    0    0  501    0  0.00000000000E+00 -0.00000000000E+00 -0.17563169532E+04  0.17563169532E+04  0.00000000000E+00 0. -1.
         24    2    1    2    0    0  0.62170877340E+03  0.39781403331E+03 -0.11847179825E+04  0.13980688017E+04  0.79131992636E+02 0.  0.
        254    2    1    2    0    0 -0.62170877340E+03 -0.39781403331E+03  0.26609705946E+03  0.11959441816E+04  0.90260569262E+03 0.  0.
         23    2    4    4    0    0 -0.16231125773E+03  0.23100059563E+03 -0.12256283445E+03  0.32100215517E+03  0.91183966050E+02 0.  0.
         23    2    4    4    0    0 -0.45939751567E+03 -0.62881462894E+03  0.38865989392E+03  0.87494202640E+03  0.89516040192E+02 0.  0.
          4    1    3    3  502    0  0.17652954687E+03  0.81652135653E+02 -0.35534233344E+03  0.40509002222E+03  0.00000000000E+00 0. -1.
         -3    1    3    3    0  502  0.44517922653E+03  0.31616189765E+03 -0.82937564909E+03  0.99297877952E+03  0.00000000000E+00 0.  1.
         11    1    5    5    0    0 -0.63915104985E+02  0.92272890490E+02 -0.98289795783E+02  0.14919889718E+03  0.00000000000E+00 0.  1.
        -11    1    5    5    0    0 -0.98396152743E+02  0.13872770514E+03 -0.24273038671E+02  0.17180325799E+03  0.00000000000E+00 0. -1.
          3    1    6    6  503    0 -0.10059272928E+03 -0.97751742645E+02  0.42717796413E+02  0.14662574980E+03  0.00000000000E+00 0. -1.
         -3    1    6    6    0  503 -0.35880478639E+03 -0.53106288629E+03  0.34594209750E+03  0.72831627660E+03  0.00000000000E+00 0.  1.
<mgrwt>
<rscale>  0 0.24259099E+04</rscale>
<asrwt>0</asrwt>
<pdfrwt beam="1">  1        2 0.27020261E+00 0.24259099E+04</pdfrwt>
<pdfrwt beam="2">  1       -1 0.12887631E+00 0.24259099E+04</pdfrwt>
<totfact> 0.48319809E+00</totfact>
</mgrwt>
</event>
<event>
12    6  0.1530720E-007  0.2464504E+04  0.7818608E-02  0.8415741E-01
         -1   -1    0    0    0  501 -0.00000000000E+00  0.00000000000E+00  0.53586001600E+03  0.53586001600E+03  0.00000000000E+00 0.  1.
          2   -1    0    0  501    0  0.00000000000E+00 -0.00000000000E+00 -0.28336593328E+04  0.28336593328E+04  0.00000000000E+00 0. -1.
         24    2    1    2    0    0  0.26279022290E+03 -0.85721008226E+03 -0.20919743197E+03  0.92424017590E+03  0.81169642203E+02 0.  0.
        254    2    1    2    0    0 -0.26279022290E+03  0.85721008226E+03 -0.20886018848E+04  0.24452791729E+04  0.90181182834E+03 0.  0.
         23    2    4    4    0    0  0.29952972242E+03  0.39484730451E+03 -0.11414260772E+04  0.12473395092E+04  0.85906420546E+02 0.  0.
         23    2    4    4    0    0 -0.56231994532E+03  0.46236277775E+03 -0.94717580765E+03  0.11979396637E+04  0.89075069964E+02 0.  0.
          2    1    3    3  502    0  0.14319989957E+03 -0.43046355163E+03 -0.65633294114E+02  0.45838063857E+03  0.00000000000E+00 0. -1.
         -1    1    3    3    0  502  0.11959032333E+03 -0.42674653063E+03 -0.14356413786E+03  0.46585953733E+03  0.00000000000E+00 0.  1.
         11    1    5    5    0    0  0.16902164015E+03  0.26768389315E+03 -0.64442023067E+03  0.71798357584E+03  0.00000000000E+00 0.  1.
        -11    1    5    5    0    0  0.13050808227E+03  0.12716341136E+03 -0.49700584649E+03  0.52935593335E+03  0.00000000000E+00 0. -1.
          1    1    6    6  503    0 -0.51722730405E+03  0.45240503624E+03 -0.89187948556E+03  0.11258967171E+04  0.00000000000E+00 0. -1.
         -1    1    6    6    0  503 -0.45092641276E+02  0.99577415063E+01 -0.55296322090E+02  0.72042946565E+02  0.00000000000E+00 0.  1.
<mgrwt>
<rscale>  0 0.24645038E+04</rscale>
<asrwt>0</asrwt>
<pdfrwt beam="1">  1        2 0.43594760E+00 0.24645038E+04</pdfrwt>
<pdfrwt beam="2">  1       -1 0.82440001E-01 0.24645038E+04</pdfrwt>
<totfact> 0.32828448E+00</totfact>
</mgrwt>
</event>
<event>
12    6  0.1530720E-007  0.1671870E+04  0.7818608E-02  0.8777572E-01
         -1   -1    0    0    0  501 -0.00000000000E+00  0.00000000000E+00  0.94022127826E+03  0.94022127826E+03  0.00000000000E+00 0.  1.
          2   -1    0    0  501    0  0.00000000000E+00 -0.00000000000E+00 -0.74321611550E+03  0.74321611550E+03  0.00000000000E+00 0. -1.
         24    2    1    2    0    0 -0.32902902590E+03  0.31965948936E+03 -0.30278620107E+03  0.55524757393E+03  0.78600863627E+02 0.  0.
        254    2    1    2    0    0  0.32902902590E+03 -0.31965948936E+03  0.49979136384E+03  0.11281898198E+04  0.90143140237E+03 0.  0.
         23    2    4    4    0    0  0.58266350071E+03 -0.41464898751E+03  0.30801628915E+03  0.78407373239E+03  0.92016550386E+02 0.  0.
         23    2    4    4    0    0 -0.25363447481E+03  0.94989498145E+02  0.19177507469E+03  0.34411608744E+03  0.91020606440E+02 0.  0.
          2    1    3    3  502    0 -0.21471271441E+03  0.20665324722E+03 -0.24016966472E+03  0.38273826849E+03  0.00000000000E+00 0. -1.
         -1    1    3    3    0  502 -0.11431631149E+03  0.11300624214E+03 -0.62616536356E+02  0.17250930544E+03  0.00000000000E+00 0.  1.
         11    1    5    5    0    0  0.13384140076E+03 -0.85544076628E+02  0.28895583843E+02  0.16145050129E+03  0.00000000000E+00 0.  1.
        -11    1    5    5    0    0  0.44882209995E+03 -0.32910491088E+03  0.27912070530E+03  0.62262323109E+03  0.00000000000E+00 0. -1.
          4    1    6    6  503    0 -0.18478804913E+03  0.85023037230E+02  0.18370427766E+03  0.27408539106E+03  0.00000000000E+00 0. -1.
         -4    1    6    6    0  503 -0.68846425678E+02  0.99664609155E+01  0.80707970333E+01  0.70030696387E+02  0.00000000000E+00 0.  1.
<mgrwt>
<rscale>  0 0.16718703E+04</rscale>
<asrwt>0</asrwt>
<pdfrwt beam="1">  1        2 0.11434094E+00 0.16718703E+04</pdfrwt>
<pdfrwt beam="2">  1       -1 0.14464943E+00 0.16718703E+04</pdfrwt>
<totfact> 0.15890302E+01</totfact>
</mgrwt>
</event>
<event>
12    6  0.1530720E-007  0.2534818E+04  0.7818608E-02  0.8390685E-01
         -1   -1    0    0    0  501 -0.00000000000E+00  0.00000000000E+00  0.69976610594E+03  0.69976610594E+03  0.00000000000E+00 0.  1.
          2   -1    0    0  501    0  0.00000000000E+00 -0.00000000000E+00 -0.22955179816E+04  0.22955179816E+04  0.00000000000E+00 0. -1.
         24    2    1    2    0    0  0.41159016000E+03 -0.50833818641E+03  0.35846966038E+03  0.74824629419E+03  0.59647697207E+02 0.  0.
        254    2    1    2    0    0 -0.41159016000E+03  0.50833818641E+03 -0.19542215361E+04  0.22470377934E+04  0.89575826051E+03 0.  0.
         23    2    4    4    0    0 -0.19493368422E+03 -0.20966330371E+03 -0.28111207937E+03  0.41127782459E+03  0.90374806596E+02 0.  0.
         23    2    4    4    0    0 -0.21665647578E+03  0.71800149012E+03 -0.16731094567E+04  0.18357599688E+04  0.90847347736E+02 0.  0.
          4    1    3    3  502    0  0.15730073513E+03 -0.15085586408E+03  0.12635839085E+03  0.25192748151E+03  0.00000000000E+00 0. -1.
         -3    1    3    3    0  502  0.25428942486E+03 -0.35748232233E+03  0.23211126953E+03  0.49631881268E+03  0.00000000000E+00 0.  1.
         11    1    5    5    0    0 -0.16956023088E+03 -0.19729539667E+03 -0.28116111011E+03  0.38305053881E+03  0.00000000000E+00 0.  1.
        -11    1    5    5    0    0 -0.25373453333E+02 -0.12367907037E+02  0.49030737917E-01  0.28227285780E+02  0.00000000000E+00 0. -1.
          3    1    6    6  503    0 -0.86133453347E+02  0.28513390631E+03 -0.77503036968E+03  0.83029656764E+03  0.00000000000E+00 0. -1.
         -3    1    6    6    0  503 -0.13052302243E+03  0.43286758381E+03 -0.89807908704E+03  0.10054634012E+04  0.00000000000E+00 0.  1.
<mgrwt>
<rscale>  0 0.25348181E+04</rscale>
<asrwt>0</asrwt>
<pdfrwt beam="1">  1        2 0.35315661E+00 0.25348181E+04</pdfrwt>
<pdfrwt beam="2">  1       -1 0.10765632E+00 0.25348181E+04</pdfrwt>
<totfact> 0.37034628E+00</totfact>
</mgrwt>
</event>
<event>
12    6  0.1530720E-007  0.3878898E+04  0.7818608E-02  0.8029432E-01
         -1   -1    0    0    0  501 -0.00000000000E+00  0.00000000000E+00  0.11107060622E+04  0.11107060622E+04  0.00000000000E+00 0.  1.
          2   -1    0    0  501    0  0.00000000000E+00 -0.00000000000E+00 -0.33865506871E+04  0.33865506871E+04  0.00000000000E+00 0. -1.
         24    2    1    2    0    0 -0.77922392132E+03 -0.30933033588E+02 -0.30049554612E+04  0.31055456293E+04  0.80681842183E+02 0.  0.
        254    2    1    2    0    0  0.77922392132E+03  0.30933033588E+02  0.72911083637E+03  0.13917111200E+04  0.89281042649E+03 0.  0.
         23    2    4    4    0    0  0.37123965670E+03  0.26809903685E+03  0.77863337959E+03  0.90792573884E+03  0.91450703508E+02 0.  0.
         23    2    4    4    0    0  0.40798426462E+03 -0.23716600327E+03 -0.49522543226E+02  0.48378538114E+03  0.94323588949E+02 0.  0.
          2    1    3    3  502    0 -0.31213874347E+03 -0.51412722264E+02 -0.11859297218E+04  0.12273969074E+04  0.00000000000E+00 0. -1.
         -1    1    3    3    0  502 -0.46708517785E+03  0.20479688676E+02 -0.18190257394E+04  0.18781487219E+04  0.00000000000E+00 0.  1.
         11    1    5    5    0    0  0.74843307041E+02  0.50471985731E+02  0.23374495819E+03  0.25057064360E+03  0.00000000000E+00 0.  1.
        -11    1    5    5    0    0  0.29639634966E+03  0.21762705112E+03  0.54488842140E+03  0.65735509525E+03  0.00000000000E+00 0. -1.
          4    1    6    6  503    0  0.26513177023E+03 -0.16881100659E+03  0.10346653252E+02  0.31448221693E+03  0.00000000000E+00 0. -1.
         -4    1    6    6    0  503  0.14285249439E+03 -0.68354996676E+02 -0.59869196478E+02  0.16930316421E+03  0.00000000000E+00 0.  1.
<mgrwt>
<rscale>  0 0.38788980E+04</rscale>
<asrwt>0</asrwt>
<pdfrwt beam="1">  1        2 0.52100780E+00 0.38788980E+04</pdfrwt>
<pdfrwt beam="2">  1       -1 0.17087786E+00 0.38788980E+04</pdfrwt>
<totfact> 0.21314607E-01</totfact>
</mgrwt>
</event>
<event>
12    6  0.1530720E-007  0.2766784E+04  0.7818608E-02  0.8313655E-01
         -1   -1    0    0    0  501 -0.00000000000E+00  0.00000000000E+00  0.74575407333E+03  0.74575407333E+03  0.00000000000E+00 0.  1.
          2   -1    0    0  501    0  0.00000000000E+00 -0.00000000000E+00 -0.25662259144E+04  0.25662259144E+04  0.00000000000E+00 0. -1.
         24    2    1    2    0    0 -0.51515828517E+02  0.59312708597E+03 -0.21091980356E+04  0.21931150517E+04  0.81139731207E+02 0.  0.
        254    2    1    2    0    0  0.51515828517E+02 -0.59312708597E+03  0.28872619460E+03  0.11188649360E+04  0.90224293223E+03 0.  0.
         23    2    4    4    0    0 -0.32092146678E+03 -0.12570656427E+03  0.36280459034E+03  0.50973908128E+03  0.97025935086E+02 0.  0.
         23    2    4    4    0    0  0.37243729529E+03 -0.46742052170E+03 -0.74078395737E+02  0.60912585467E+03  0.91406865606E+02 0.  0.
          2    1    3    3  502    0 -0.72960747149E+02  0.41569741641E+03 -0.14641480953E+04  0.15237641739E+04  0.00000000000E+00 0. -1.
         -1    1    3    3    0  502  0.21444918631E+02  0.17742966956E+03 -0.64504994028E+03  0.66935087781E+03  0.00000000000E+00 0.  1.
         11    1    5    5    0    0 -0.46177554276E+02 -0.29473140004E+02  0.11523164087E+03  0.12759060921E+03  0.00000000000E+00 0.  1.
        -11    1    5    5    0    0 -0.27474391250E+03 -0.96233424269E+02  0.24757294947E+03  0.38214847208E+03  0.00000000000E+00 0. -1.
          1    1    6    6  503    0  0.33808842918E+03 -0.39205019242E+03 -0.88046768314E+02  0.52512795843E+03  0.00000000000E+00 0. -1.
         -1    1    6    6    0  503  0.34348866116E+02 -0.75370329280E+02  0.13968372577E+02  0.83997896234E+02  0.00000000000E+00 0.  1.
<mgrwt>
<rscale>  0 0.27667840E+04</rscale>
<asrwt>0</asrwt>
<pdfrwt beam="1">  1        2 0.39480397E+00 0.27667840E+04</pdfrwt>
<pdfrwt beam="2">  1       -1 0.11473140E+00 0.27667840E+04</pdfrwt>
<totfact> 0.21802951E+00</totfact>
</mgrwt>
</event>
<event>
12    6  0.1530720E-007  0.2160356E+04  0.7818608E-02  0.8535112E-01
         -1   -1    0    0    0  501 -0.00000000000E+00  0.00000000000E+00  0.12743433603E+04  0.12743433603E+04  0.00000000000E+00 0.  1.
          2   -1    0    0  501    0  0.00000000000E+00 -0.00000000000E+00 -0.91559650844E+03  0.91559650844E+03  0.00000000000E+00 0. -1.
         24    2    1    2    0    0 -0.77612784245E+03 -0.36788945103E+03 -0.10398999013E+03  0.86890770728E+03  0.80433884160E+02 0.  0.
        254    2    1    2    0    0  0.77612784245E+03  0.36788945103E+03  0.46273684203E+03  0.13210321615E+04  0.89066464549E+03 0.  0.
         23    2    4    4    0    0 -0.13043157348E+03 -0.12754823791E+02 -0.97407122711E+02  0.18591422979E+03  0.88886851639E+02 0.  0.
         23    2    4    4    0    0  0.90655941593E+03  0.38064427482E+03  0.56014396474E+03  0.11351179317E+04  0.89394737423E+02 0.  0.
          2    1    3    3  502    0 -0.69766054737E+03 -0.30999194233E+03 -0.74633305583E+02  0.76706934104E+03  0.00000000000E+00 0. -1.
         -1    1    3    3    0  502 -0.78467295089E+02 -0.57897508702E+02 -0.29356684543E+02  0.10183836625E+03  0.00000000000E+00 0.  1.
         11    1    5    5    0    0 -0.93626875420E+01 -0.10464504651E+02 -0.56318303169E+02  0.58042372862E+02  0.00000000000E+00 0. -1.
        -11    1    5    5    0    0 -0.12106888593E+03 -0.22903191397E+01 -0.41088819543E+02  0.12787185693E+03  0.00000000000E+00 0.  1.
          4    1    6    6  503    0  0.16415723510E+03  0.92344309615E+02  0.13994972445E+03  0.23465079315E+03  0.00000000000E+00 0. -1.
         -4    1    6    6    0  503  0.74240218083E+03  0.28829996520E+03  0.42019424030E+03  0.90046713856E+03  0.00000000000E+00 0.  1.
<mgrwt>
<rscale>  0 0.21603558E+04</rscale>
<asrwt>0</asrwt>
<pdfrwt beam="1">  1        2 0.14086100E+00 0.21603558E+04</pdfrwt>
<pdfrwt beam="2">  1       -1 0.19605282E+00 0.21603558E+04</pdfrwt>
<totfact> 0.47984523E+00</totfact>
</mgrwt>
</event>
<event>
12    6  0.1530720E-007  0.2446350E+04  0.7818608E-02  0.8422352E-01
          2   -1    0    0  501    0  0.00000000000E+00  0.00000000000E+00  0.18232478213E+04  0.18232478213E+04  0.00000000000E+00 0. -1.
         -1   -1    0    0    0  501 -0.00000000000E+00 -0.00000000000E+00 -0.82059994479E+03  0.82059994479E+03  0.00000000000E+00 0.  1.
         24    2    1    2    0    0 -0.10300700252E+04 -0.16559278206E+02  0.25329037666E+03  0.10638614325E+04  0.79540343698E+02 0.  0.
        254    2    1    2    0    0  0.10300700252E+04  0.16559278206E+02  0.74935749985E+03  0.15799863336E+04  0.93461312060E+03 0.  0.
         23    2    4    4    0    0 -0.12449400051E+03  0.40445382901E+02  0.29471631885E+03  0.33505975547E+03  0.90954636907E+02 0.  0.
         23    2    4    4    0    0  0.11545640257E+04 -0.23886104696E+02  0.45464118099E+03  0.12449265781E+04  0.97749404087E+02 0.  0.
          2    1    3    3  502    0 -0.10978507436E+03 -0.11852768651E+02  0.50815437074E+02  0.12155434720E+03  0.00000000000E+00 0. -1.
         -1    1    3    3    0  502 -0.92028495081E+03 -0.47065095546E+01  0.20247493958E+03  0.94230708533E+03  0.00000000000E+00 0.  1.
         11    1    5    5    0    0 -0.23361425786E+02  0.18132616445E+02  0.17181473751E+03  0.17434119427E+03  0.00000000000E+00 0. -1.
        -11    1    5    5    0    0 -0.10113257472E+03  0.22312766457E+02  0.12290158134E+03  0.16071856120E+03  0.00000000000E+00 0.  1.
          2    1    6    6  503    0  0.74223924192E+03 -0.30040115386E+02  0.24414921369E+03  0.78194011236E+03  0.00000000000E+00 0. -1.
         -2    1    6    6    0  503  0.41232478376E+03  0.61540106901E+01  0.21049196730E+03  0.46298646573E+03  0.00000000000E+00 0.  1.
<mgrwt>
<rscale>  0 0.24463500E+04</rscale>
<asrwt>0</asrwt>
<pdfrwt beam="1">  1        2 0.28049966E+00 0.24463500E+04</pdfrwt>
<pdfrwt beam="2">  1       -1 0.12624615E+00 0.24463500E+04</pdfrwt>
<totfact> 0.46628437E+00</totfact>
</mgrwt>
</event>
<event>
12    6  0.1530720E-007  0.3821076E+04  0.7818608E-02  0.8041647E-01
          2   -1    0    0  501    0  0.00000000000E+00  0.00000000000E+00  0.27609871905E+04  0.27609871905E+04  0.00000000000E+00 0. -1.
         -1   -1    0    0    0  501 -0.00000000000E+00 -0.00000000000E+00 -0.13220470366E+04  0.13220470366E+04  0.00000000000E+00 0.  1.
         24    2    1    2    0    0 -0.13813350483E+04  0.10381115740E+04  0.12366350282E+04  0.21263681949E+04  0.80083404782E+02 0.  0.
        254    2    1    2    0    0  0.13813350483E+04 -0.10381115740E+04  0.20230512565E+03  0.19566660322E+04  0.89546213890E+03 0.  0.
         23    2    4    4    0    0  0.77837648736E+03 -0.54961305005E+03  0.54753787123E+03  0.11022955154E+04  0.85517378225E+02 0.  0.
         23    2    4    4    0    0  0.60295856090E+03 -0.48849852392E+03 -0.34523274558E+03  0.85437051681E+03  0.92593182011E+02 0.  0.
          4    1    3    3  502    0 -0.12726755234E+04  0.97413213091E+03  0.11270203876E+04  0.19592884806E+04  0.00000000000E+00 0. -1.
         -3    1    3    3    0  502 -0.10865952486E+03  0.63979443055E+02  0.10961464065E+03  0.16707971427E+03  0.00000000000E+00 0.  1.
         11    1    5    5    0    0  0.16040637069E+03 -0.14800799301E+03  0.15085418171E+03  0.26531783561E+03  0.00000000000E+00 0. -1.
        -11    1    5    5    0    0  0.61797011667E+03 -0.40160505704E+03  0.39668368952E+03  0.83697767979E+03  0.00000000000E+00 0.  1.
          3    1    6    6  503    0  0.19128227348E+03 -0.10724781830E+03 -0.11779128206E+03  0.24892928475E+03  0.00000000000E+00 0. -1.
         -3    1    6    6    0  503  0.41167628741E+03 -0.38125070562E+03 -0.22744146352E+03  0.60544123206E+03  0.00000000000E+00 0.  1.
<mgrwt>
<rscale>  0 0.38210757E+04</rscale>
<asrwt>0</asrwt>
<pdfrwt beam="1">  1        2 0.42476726E+00 0.38210757E+04</pdfrwt>
<pdfrwt beam="2">  1       -1 0.20339185E+00 0.38210757E+04</pdfrwt>
<totfact> 0.31651795E-01</totfact>
</mgrwt>
</event>
<event>
12    6  0.1530720E-007  0.2797224E+04  0.7818608E-02  0.8304131E-01
         -1   -1    0    0    0  501 -0.00000000000E+00  0.00000000000E+00  0.66570608216E+03  0.66570608216E+03  0.00000000000E+00 0.  1.
          2   -1    0    0  501    0  0.00000000000E+00 -0.00000000000E+00 -0.29384076823E+04  0.29384076823E+04  0.00000000000E+00 0. -1.
         24    2    1    2    0    0 -0.41368169576E+03  0.10104518160E+04 -0.22834340474E+03  0.11182238143E+04  0.78347753575E+02 0.  0.
        254    2    1    2    0    0  0.41368169576E+03 -0.10104518160E+04 -0.20443581954E+04  0.24858899501E+04  0.89894549067E+03 0.  0.
         23    2    4    4    0    0  0.54979489410E+03 -0.28577573741E+03 -0.63111754105E+03  0.88923586922E+03  0.92135133446E+02 0.  0.
         23    2    4    4    0    0 -0.13611319834E+03 -0.72467607862E+03 -0.14132406543E+04  0.15966540809E+04  0.91503471735E+02 0.  0.
          2    1    3    3  502    0 -0.15556025653E+03  0.28895470214E+03 -0.58347565941E+02  0.33331404373E+03  0.00000000000E+00 0. -1.
         -1    1    3    3    0  502 -0.25812143922E+03  0.72149711390E+03 -0.16999583880E+03  0.78490977059E+03  0.00000000000E+00 0.  1.
         11    1    5    5    0    0  0.54070488932E+02 -0.56987870828E+02 -0.10394206803E+03  0.13028886637E+03  0.00000000000E+00 0. -1.
        -11    1    5    5    0    0  0.49572440517E+03 -0.22878786659E+03 -0.52717547302E+03  0.75894700285E+03  0.00000000000E+00 0.  1.
          1    1    6    6  503    0 -0.11687988637E+02 -0.19137810036E+02 -0.20186746514E+02  0.30172331467E+02  0.00000000000E+00 0. -1.
         -1    1    6    6    0  503 -0.12442520971E+03 -0.70553826859E+03 -0.13930539078E+04  0.15664817494E+04  0.00000000000E+00 0.  1.
<mgrwt>
<rscale>  0 0.27972242E+04</rscale>
<asrwt>0</asrwt>
<pdfrwt beam="1">  1        2 0.45206272E+00 0.27972242E+04</pdfrwt>
<pdfrwt beam="2">  1       -1 0.10241632E+00 0.27972242E+04</pdfrwt>
<totfact> 0.16967909E+00</totfact>
</mgrwt>
</event>
<event>
12    6  0.1530720E-007  0.2578727E+04  0.7818608E-02  0.8375463E-01
         -1   -1    0    0    0  501 -0.00000000000E+00  0.00000000000E+00  0.76430940066E+03  0.76430940066E+03  0.00000000000E+00 0.  1.
          2   -1    0    0  501    0  0.00000000000E+00 -0.00000000000E+00 -0.21751123126E+04  0.21751123126E+04  0.00000000000E+00 0. -1.
         24    2    1    2    0    0  0.57643222910E+03  0.21029539647E+03  0.46079701726E+03  0.77204332013E+03  0.84963100939E+02 0.  0.
        254    2    1    2    0    0 -0.57643222910E+03 -0.21029539647E+03 -0.18715999292E+04  0.21673783931E+04  0.90451342469E+03 0.  0.
         23    2    4    4    0    0 -0.27058380243E+03 -0.11202523738E+03 -0.44366906900E+02  0.30989283725E+03  0.91103788070E+02 0.  0.
         23    2    4    4    0    0 -0.30584842667E+03 -0.98270159090E+02 -0.18272330223E+04  0.18574855559E+04  0.90949371752E+02 0.  0.
          2    1    3    3  502    0  0.13400257482E+02  0.21963540940E+02  0.20545993779E+02  0.32925702598E+02  0.00000000000E+00 0. -1.
         -1    1    3    3    0  502  0.56303197162E+03  0.18833185553E+03  0.44025102348E+03  0.73911761753E+03  0.00000000000E+00 0.  1.
         11    1    5    5    0    0 -0.27310401987E+03 -0.11104925406E+03 -0.31214918007E+02  0.29646604123E+03  0.00000000000E+00 0.  1.
        -11    1    5    5    0    0  0.25202174402E+01 -0.97598331746E+00 -0.13151988892E+02  0.13426796014E+02  0.00000000000E+00 0. -1.
          2    1    6    6  503    0 -0.27887688250E+03 -0.91086100488E+02 -0.17658493286E+04  0.17900538664E+04  0.00000000000E+00 0.  1.
         -2    1    6    6    0  503 -0.26971544165E+02 -0.71840586028E+01 -0.61383693701E+02  0.67431689472E+02  0.00000000000E+00 0. -1.
<mgrwt>
<rscale>  0 0.25787274E+04</rscale>
<asrwt>0</asrwt>
<pdfrwt beam="1">  1        2 0.33463266E+00 0.25787274E+04</pdfrwt>
<pdfrwt beam="2">  1       -1 0.11758606E+00 0.25787274E+04</pdfrwt>
<totfact> 0.34966681E+00</totfact>
</mgrwt>
</event>
<event>
12    6  0.1530720E-007  0.1310699E+04  0.7818608E-02  0.9021124E-01
         -1   -1    0    0    0  501 -0.00000000000E+00  0.00000000000E+00  0.28184938083E+03  0.28184938083E+03  0.00000000000E+00 0.  1.
          2   -1    0    0  501    0  0.00000000000E+00 -0.00000000000E+00 -0.15238021830E+04  0.15238021830E+04  0.00000000000E+00 0. -1.
         24    2    1    2    0    0 -0.16387515924E+03  0.14997369870E+03  0.28449477736E+02  0.23761459217E+03  0.79398636692E+02 0.  0.
        254    2    1    2    0    0  0.16387515924E+03 -0.14997369870E+03 -0.12704022799E+04  0.15680369717E+04  0.89189170508E+03 0.  0.
         23    2    4    4    0    0  0.18619782859E+03  0.19012380902E+02  0.65203156040E+02  0.21863054796E+03  0.92286309618E+02 0.  0.
         23    2    4    4    0    0 -0.22322669347E+02 -0.16898607960E+03 -0.13356054360E+04  0.13494064237E+04  0.89449533997E+02 0.  0.
          4    1    3    3  502    0 -0.75548489230E+02  0.22908970076E+02 -0.56721948311E+01  0.79149029868E+02  0.00000000000E+00 0. -1.
         -3    1    3    3    0  502 -0.88326670015E+02  0.12706472863E+03  0.34121672568E+02  0.15846556230E+03  0.00000000000E+00 0.  1.
         11    1    5    5    0    0  0.18083765241E+03  0.10989237034E+02  0.82308262386E+02  0.19899163278E+03  0.00000000000E+00 0. -1.
        -11    1    5    5    0    0  0.53601761819E+01  0.80231438680E+01 -0.17105106346E+02  0.19638915177E+02  0.00000000000E+00 0.  1.
          2    1    6    6  503    0  0.11034520256E+02 -0.11846691872E+03 -0.10889422603E+04  0.10954229401E+04  0.00000000000E+00 0. -1.
         -2    1    6    6    0  503 -0.33357189603E+02 -0.50519160880E+02 -0.24666317570E+03  0.25398348364E+03  0.00000000000E+00 0.  1.
<mgrwt>
<rscale>  0 0.13106986E+04</rscale>
<asrwt>0</asrwt>
<pdfrwt beam="1">  1        2 0.23443111E+00 0.13106986E+04</pdfrwt>
<pdfrwt beam="2">  1       -1 0.43361443E-01 0.13106986E+04</pdfrwt>
<totfact> 0.72063725E+01</totfact>
</mgrwt>
</event>
<event>
12    6  0.1530720E-007  0.1631632E+04  0.7818608E-02  0.8801348E-01
         -1   -1    0    0    0  501 -0.00000000000E+00  0.00000000000E+00  0.46420554077E+03  0.46420554077E+03  0.00000000000E+00 0.  1.
          2   -1    0    0  501    0  0.00000000000E+00 -0.00000000000E+00 -0.14337515239E+04  0.14337515239E+04  0.00000000000E+00 0. -1.
         24    2    1    2    0    0 -0.31672697739E+03  0.40389322192E+03 -0.60217467544E+03  0.79526488775E+03  0.79913634724E+02 0.  0.
        254    2    1    2    0    0  0.31672697739E+03 -0.40389322192E+03 -0.36737130773E+03  0.11026921770E+04  0.90416958946E+03 0.  0.
         23    2    4    4    0    0  0.49268308046E+03  0.68215722968E+02 -0.29480939528E+03  0.58535505655E+03  0.91312430967E+02 0.  0.
         23    2    4    4    0    0 -0.17595610306E+03 -0.47210894489E+03 -0.72561912448E+02  0.51733712043E+03  0.92331246022E+02 0.  0.
          2    1    3    3  502    0 -0.23132046189E+03  0.27754097728E+03 -0.36726948228E+03  0.51519416026E+03  0.00000000000E+00 0. -1.
         -1    1    3    3    0  502 -0.85406515508E+02  0.12635224464E+03 -0.23490519317E+03  0.28007072748E+03  0.00000000000E+00 0.  1.
         11    1    5    5    0    0  0.42580493167E+03  0.76263222125E+02 -0.22219860292E+03  0.48631074225E+03  0.00000000000E+00 0.  1.
        -11    1    5    5    0    0  0.66878148784E+02 -0.80474991577E+01 -0.72610792362E+02  0.99044314298E+02  0.00000000000E+00 0. -1.
          1    1    6    6  503    0 -0.16523331670E+03 -0.46832723121E+03 -0.59742024583E+02  0.50020151334E+03  0.00000000000E+00 0. -1.
         -1    1    6    6    0  503 -0.10722786361E+02 -0.37817136748E+01 -0.12819887865E+02  0.17135607096E+02  0.00000000000E+00 0.  1.
<mgrwt>
<rscale>  0 0.16316316E+04</rscale>
<asrwt>0</asrwt>
<pdfrwt beam="1">  1        2 0.22057716E+00 0.16316316E+04</pdfrwt>
<pdfrwt beam="2">  1       -1 0.71416237E-01 0.16316316E+04</pdfrwt>
<totfact> 0.29875073E+01</totfact>
</mgrwt>
</event>
<event>
12    6  0.1530720E-007  0.2650477E+04  0.7818608E-02  0.8351255E-01
          2   -1    0    0  501    0  0.00000000000E+00  0.00000000000E+00  0.32556576647E+04  0.32556576647E+04  0.00000000000E+00 0. -1.
         -1   -1    0    0    0  501 -0.00000000000E+00 -0.00000000000E+00 -0.53944763671E+03  0.53944763671E+03  0.00000000000E+00 0.  1.
         24    2    1    2    0    0  0.29552225665E+03  0.55336050951E+03 -0.21006768362E+03  0.66740868517E+03  0.88117329052E+02 0.  0.
        254    2    1    2    0    0 -0.29552225665E+03 -0.55336050951E+03  0.29262777116E+04  0.31276966162E+04  0.90875938515E+03 0.  0.
         23    2    4    4    0    0 -0.11664042506E+03  0.23242892509E+03  0.51168902477E+03  0.58053695748E+03  0.87001764051E+02 0.  0.
         23    2    4    4    0    0 -0.17888183160E+03 -0.78578943460E+03  0.24145886868E+04  0.25471596588E+04  0.91214337762E+02 0.  0.
          2    1    3    3  502    0  0.56064653080E+02  0.52656327893E+02 -0.10630894695E+02  0.77646314234E+02  0.00000000000E+00 0. -1.
         -1    1    3    3    0  502  0.23945760357E+03  0.50070418162E+03 -0.19943678892E+03  0.58976237094E+03  0.00000000000E+00 0.  1.
         11    1    5    5    0    0  0.65567333542E+01 -0.34868131715E+01  0.21651080844E+02  0.22889253376E+02  0.00000000000E+00 0. -1.
        -11    1    5    5    0    0 -0.12319715841E+03  0.23591573826E+03  0.49003794393E+03  0.55764770410E+03  0.00000000000E+00 0.  1.
          3    1    6    6  503    0 -0.83699219702E+02 -0.19629830739E+03  0.67642417757E+03  0.70928714416E+03  0.00000000000E+00 0. -1.
         -3    1    6    6    0  503 -0.95182611896E+02 -0.58949112721E+03  0.17381645093E+04  0.18378725146E+04  0.00000000000E+00 0.  1.
<mgrwt>
<rscale>  0 0.26504768E+04</rscale>
<asrwt>0</asrwt>
<pdfrwt beam="1">  1        2 0.50087040E+00 0.26504768E+04</pdfrwt>
<pdfrwt beam="2">  1       -1 0.82991946E-01 0.26504768E+04</pdfrwt>
<totfact> 0.17212110E+00</totfact>
</mgrwt>
</event>
<event>
12    6  0.1530720E-007  0.1865163E+04  0.7818608E-02  0.8672394E-01
         -1   -1    0    0    0  501 -0.00000000000E+00  0.00000000000E+00  0.74109549574E+03  0.74109549574E+03  0.00000000000E+00 0.  1.
          2   -1    0    0  501    0  0.00000000000E+00 -0.00000000000E+00 -0.11735441370E+04  0.11735441370E+04  0.00000000000E+00 0. -1.
         24    2    1    2    0    0  0.61758269229E+03  0.26063490996E+03  0.82393854040E+02  0.68005440883E+03  0.79663753809E+02 0.  0.
        254    2    1    2    0    0 -0.61758269229E+03 -0.26063490996E+03 -0.51484249530E+03  0.12345852239E+04  0.89988829420E+03 0.  0.
         23    2    4    4    0    0 -0.50326344527E+03 -0.18717930635E+03  0.13820327705E+03  0.56140271227E+03  0.88106024121E+02 0.  0.
         23    2    4    4    0    0 -0.11431924702E+03 -0.73455603611E+02 -0.65304577235E+03  0.67318251164E+03  0.90781590937E+02 0.  0.
          4    1    3    3  502    0  0.12535061769E+03  0.58033479776E+02  0.49529688418E+02  0.14674417251E+03  0.00000000000E+00 0. -1.
         -3    1    3    3    0  502  0.49223207460E+03  0.20260143019E+03  0.32864165623E+02  0.53331023632E+03  0.00000000000E+00 0.  1.
         11    1    5    5    0    0 -0.49341312185E+03 -0.19590191083E+03  0.13639375929E+03  0.54812163344E+03  0.00000000000E+00 0.  1.
        -11    1    5    5    0    0 -0.98503234240E+01  0.87226044724E+01  0.18095177660E+01  0.13281078830E+02  0.00000000000E+00 0. -1.
          2    1    6    6  503    0 -0.61756305745E+01 -0.34614332549E+02 -0.63893980804E+02  0.72929631932E+02  0.00000000000E+00 0. -1.
         -2    1    6    6    0  503 -0.10814361645E+03 -0.38841271062E+02 -0.58915179155E+03  0.60025287971E+03  0.00000000000E+00 0.  1.
<mgrwt>
<rscale>  0 0.18651630E+04</rscale>
<asrwt>0</asrwt>
<pdfrwt beam="1">  1        2 0.18054525E+00 0.18651630E+04</pdfrwt>
<pdfrwt beam="2">  1       -1 0.11401469E+00 0.18651630E+04</pdfrwt>
<totfact> 0.14745315E+01</totfact>
</mgrwt>
</event>
<event>
12    6  0.1530720E-007  0.2678947E+04  0.7818608E-02  0.8341868E-01
          2   -1    0    0  501    0  0.00000000000E+00  0.00000000000E+00  0.27333436671E+04  0.27333436671E+04  0.00000000000E+00 0. -1.
         -1   -1    0    0    0  501 -0.00000000000E+00 -0.00000000000E+00 -0.65640841718E+03  0.65640841718E+03  0.00000000000E+00 0.  1.
         24    2    1    2    0    0 -0.80993475433E+03 -0.11877984936E+03  0.20008576828E+04  0.21632779520E+04  0.78975135166E+02 0.  0.
        254    2    1    2    0    0  0.80993475433E+03  0.11877984936E+03  0.76077567074E+02  0.12264741322E+04  0.91013627654E+03 0.  0.
         23    2    4    4    0    0  0.50245994195E+03  0.49009657153E+03  0.17100400912E+03  0.72823902931E+03  0.91809966683E+02 0.  0.
         23    2    4    4    0    0  0.30747481239E+03 -0.37131672217E+03 -0.94926442046E+02  0.49823510290E+03  0.82524662678E+02 0.  0.
          4    1    3    3  502    0 -0.39275559511E+03 -0.84827070980E+02  0.90419391392E+03  0.98945400269E+03  0.00000000000E+00 0. -1.
         -3    1    3    3    0  502 -0.41717915922E+03 -0.33952778380E+02  0.10966637689E+04  0.11738239493E+04  0.00000000000E+00 0.  1.
         11    1    5    5    0    0  0.12888102498E+02  0.40416810978E+02  0.18150543982E+02  0.46141781961E+02  0.00000000000E+00 0.  1.
        -11    1    5    5    0    0  0.48957183945E+03  0.44967976055E+03  0.15285346514E+03  0.68209724734E+03  0.00000000000E+00 0. -1.
          1    1    6    6  503    0  0.10672797036E+03 -0.19238841670E+03 -0.35896971723E+02  0.22291871863E+03  0.00000000000E+00 0. -1.
         -1    1    6    6    0  503  0.20074684202E+03 -0.17892830547E+03 -0.59029470323E+02  0.27531638427E+03  0.00000000000E+00 0.  1.
<mgrwt>
<rscale>  0 0.26789474E+04</rscale>
<asrwt>0</asrwt>
<pdfrwt beam="1">  1        2 0.42051440E+00 0.26789474E+04</pdfrwt>
<pdfrwt beam="2">  1       -1 0.10098591E+00 0.26789474E+04</pdfrwt>
<totfact> 0.23608047E+00</totfact>
</mgrwt>
</event>
<event>
12    6  0.1530720E-007  0.2967674E+04  0.7818608E-02  0.8253022E-01
          2   -1    0    0  501    0  0.00000000000E+00  0.00000000000E+00  0.18771080360E+04  0.18771080360E+04  0.00000000000E+00 0. -1.
         -1   -1    0    0    0  501 -0.00000000000E+00 -0.00000000000E+00 -0.11729598905E+04  0.11729598905E+04  0.00000000000E+00 0.  1.
         24    2    1    2    0    0  0.20934421264E+03 -0.20637940099E+03  0.16702271576E+04  0.16977428467E+04  0.79085769479E+02 0.  0.
        254    2    1    2    0    0 -0.20934421264E+03  0.20637940099E+03 -0.96607901213E+03  0.13523250798E+04  0.89947596253E+03 0.  0.
         23    2    4    4    0    0  0.16736103986E+03 -0.15652510416E+03 -0.73146812007E+03  0.77185416338E+03  0.90572694293E+02 0.  0.
         23    2    4    4    0    0 -0.37670525250E+03  0.36290450515E+03 -0.23461089206E+03  0.58047091639E+03  0.91091640561E+02 0.  0.
          4    1    3    3  502    0  0.18675571313E+03 -0.19560766216E+03  0.13676726601E+04  0.13941551416E+04  0.00000000000E+00 0. -1.
         -3    1    3    3    0  502  0.22588499517E+02 -0.10771738826E+02  0.30255449756E+03  0.30358770506E+03  0.00000000000E+00 0.  1.
         11    1    5    5    0    0  0.64429445618E+01 -0.37270913206E+02 -0.58079339251E+02  0.69309755112E+02  0.00000000000E+00 0. -1.
        -11    1    5    5    0    0  0.16091809529E+03 -0.11925419095E+03 -0.67338878082E+03  0.70254440826E+03  0.00000000000E+00 0.  1.
          4    1    6    6  503    0 -0.19920018451E+03  0.14334960585E+03 -0.14091382553E+03  0.28299563465E+03  0.00000000000E+00 0. -1.
         -4    1    6    6    0  503 -0.17750506799E+03  0.21955489930E+03 -0.93697066536E+02  0.29747528174E+03  0.00000000000E+00 0.  1.
<mgrwt>
<rscale>  0 0.29676741E+04</rscale>
<asrwt>0</asrwt>
<pdfrwt beam="1">  1        2 0.28878585E+00 0.29676741E+04</pdfrwt>
<pdfrwt beam="2">  1       -1 0.18045537E+00 0.29676741E+04</pdfrwt>
<totfact> 0.15772049E+00</totfact>
</mgrwt>
</event>
<event>
12    6  0.1530720E-007  0.1349185E+04  0.7818608E-02  0.8991445E-01
         -1   -1    0    0    0  501 -0.00000000000E+00  0.00000000000E+00  0.32147435411E+03  0.32147435411E+03  0.00000000000E+00 0.  1.
          2   -1    0    0  501    0  0.00000000000E+00 -0.00000000000E+00 -0.14155882559E+04  0.14155882559E+04  0.00000000000E+00 0. -1.
         24    2    1    2    0    0 -0.17138002500E+03 -0.20807647367E+03 -0.34382350787E+02  0.28411614686E+03  0.82902997537E+02 0.  0.
        254    2    1    2    0    0  0.17138002500E+03  0.20807647367E+03 -0.10597315510E+04  0.14529464631E+04  0.95674214536E+03 0.  0.
         23    2    4    4    0    0  0.53065822084E+03  0.20539322855E+03 -0.84916341076E+03  0.10264234114E+04  0.93177227312E+02 0.  0.
         23    2    4    4    0    0 -0.35927819584E+03  0.26832451213E+01 -0.21056814022E+03  0.42652305170E+03  0.92168053809E+02 0.  0.
          2    1    3    3  502    0 -0.77918300177E+02 -0.41607692576E+02 -0.29553125590E+02  0.93144236623E+02  0.00000000000E+00 0. -1.
         -1    1    3    3    0  502 -0.93461724821E+02 -0.16646878109E+03 -0.48292251971E+01  0.19097191024E+03  0.00000000000E+00 0.  1.
         11    1    5    5    0    0  0.22690747506E+03  0.10850145324E+03 -0.45042237970E+03  0.51588747584E+03  0.00000000000E+00 0. -1.
        -11    1    5    5    0    0  0.30375074577E+03  0.96891775309E+02 -0.39874103106E+03  0.51053593559E+03  0.00000000000E+00 0.  1.
          3    1    6    6  503    0 -0.18981791093E+02  0.22224683573E+02 -0.24796633339E+02  0.38329074839E+02  0.00000000000E+00 0. -1.
         -3    1    6    6    0  503 -0.34029640475E+03 -0.19541438452E+02 -0.18577150688E+03  0.38819397686E+03  0.00000000000E+00 0.  1.
<mgrwt>
<rscale>  0 0.13491854E+04</rscale>
<asrwt>0</asrwt>
<pdfrwt beam="1">  1        2 0.21778280E+00 0.13491854E+04</pdfrwt>
<pdfrwt beam="2">  1       -1 0.49457594E-01 0.13491854E+04</pdfrwt>
<totfact> 0.64662338E+01</totfact>
</mgrwt>
</event>
<event>
12    6  0.1530720E-007  0.1593247E+04  0.7818608E-02  0.8824708E-01
         -1   -1    0    0    0  501 -0.00000000000E+00  0.00000000000E+00  0.67091958428E+03  0.67091958428E+03  0.00000000000E+00 0.  1.
          2   -1    0    0  501    0  0.00000000000E+00 -0.00000000000E+00 -0.94587898063E+03  0.94587898063E+03  0.00000000000E+00 0. -1.
         24    2    1    2    0    0 -0.30106918149E+03 -0.17840136883E+03  0.31470940510E+03  0.47747991140E+03  0.80469594782E+02 0.  0.
        254    2    1    2    0    0  0.30106918149E+03  0.17840136883E+03 -0.58966880145E+03  0.11393186535E+04  0.90987251766E+03 0.  0.
         23    2    4    4    0    0  0.41979562409E+03 -0.54780192964E+02  0.54716480836E+02  0.43820773062E+03  0.99009526576E+02 0.  0.
         23    2    4    4    0    0 -0.11872644259E+03  0.23318156180E+03 -0.64438528229E+03  0.70111092290E+03  0.88625759497E+02 0.  0.
          2    1    3    3  502    0 -0.12290467408E+03 -0.11837817647E+03  0.16159486816E+03  0.23501458038E+03  0.00000000000E+00 0. -1.
         -1    1    3    3    0  502 -0.17816450742E+03 -0.60023192359E+02  0.15311453693E+03  0.24246533101E+03  0.00000000000E+00 0.  1.
         11    1    5    5    0    0  0.12362836209E+03  0.22779611986E+01  0.57999589363E+02  0.13657640128E+03  0.00000000000E+00 0.  1.
        -11    1    5    5    0    0  0.29616726200E+03 -0.57058154163E+02 -0.32831085274E+01  0.30163132934E+03  0.00000000000E+00 0. -1.
          1    1    6    6  503    0 -0.11891039558E+03  0.23021450453E+03 -0.56402038667E+03  0.62069106394E+03  0.00000000000E+00 0. -1.
         -1    1    6    6    0  503  0.18395298754E+00  0.29670572649E+01 -0.80364895619E+02  0.80419858962E+02  0.00000000000E+00 0.  1.
<mgrwt>
<rscale>  0 0.15932467E+04</rscale>
<asrwt>0</asrwt>
<pdfrwt beam="1">  1        2 0.14551984E+00 0.15932467E+04</pdfrwt>
<pdfrwt beam="2">  1       -1 0.10321840E+00 0.15932467E+04</pdfrwt>
<totfact> 0.26505938E+01</totfact>
</mgrwt>
</event>
<event>
12    6  0.1530720E-007  0.1228964E+04  0.7818608E-02  0.9087875E-01
         -1   -1    0    0    0  501 -0.00000000000E+00  0.00000000000E+00  0.40821228712E+03  0.40821228712E+03  0.00000000000E+00 0.  1.
          2   -1    0    0  501    0  0.00000000000E+00 -0.00000000000E+00 -0.92498036101E+03  0.92498036101E+03  0.00000000000E+00 0. -1.
         24    2    1    2    0    0  0.59886635328E+02  0.79967244682E+02 -0.40016310006E+03  0.42006320107E+03  0.79633014060E+02 0.  0.
        254    2    1    2    0    0 -0.59886635328E+02 -0.79967244682E+02 -0.11660497383E+03  0.91312944707E+03  0.90012637883E+03 0.  0.
         23    2    4    4    0    0  0.10291052287E+03 -0.38336303693E+03  0.18351906845E+03  0.44659608355E+03  0.90614676273E+02 0.  0.
         23    2    4    4    0    0 -0.16279715820E+03  0.30339579225E+03 -0.30012404228E+03  0.46653336352E+03  0.95010615437E+02 0.  0.
          2    1    3    3  502    0  0.75195169670E+02  0.55335214068E+02 -0.24443736511E+03  0.26165994137E+03  0.00000000000E+00 0. -1.
         -1    1    3    3    0  502 -0.15308534342E+02  0.24632030614E+02 -0.15572573495E+03  0.15840325970E+03  0.00000000000E+00 0.  1.
         11    1    5    5    0    0  0.57452639144E+02 -0.75896987841E+02  0.57521084054E+02  0.11121975373E+03  0.00000000000E+00 0. -1.
        -11    1    5    5    0    0  0.45457883729E+02 -0.30746604909E+03  0.12599798440E+03  0.33537632982E+03  0.00000000000E+00 0.  1.
          2    1    6    6  503    0 -0.29692689837E+02  0.12367450542E+03 -0.15241902427E+03  0.19851598948E+03  0.00000000000E+00 0. -1.
         -2    1    6    6    0  503 -0.13310446836E+03  0.17972128683E+03 -0.14770501801E+03  0.26801737403E+03  0.00000000000E+00 0.  1.
<mgrwt>
<rscale>  0 0.12289644E+04</rscale>
<asrwt>0</asrwt>
<pdfrwt beam="1">  1        2 0.14230467E+00 0.12289644E+04</pdfrwt>
<pdfrwt beam="2">  1       -1 0.62801890E-01 0.12289644E+04</pdfrwt>
<totfact> 0.81530191E+01</totfact>
</mgrwt>
</event>
<event>
12    6  0.1530720E-007  0.2994002E+04  0.7818608E-02  0.8245446E-01
         -1   -1    0    0    0  501 -0.00000000000E+00  0.00000000000E+00  0.16062608932E+04  0.16062608932E+04  0.00000000000E+00 0.  1.
          2   -1    0    0  501    0  0.00000000000E+00 -0.00000000000E+00 -0.13951732163E+04  0.13951732163E+04  0.00000000000E+00 0. -1.
         24    2    1    2    0    0 -0.13138437128E+04  0.25605713155E+03  0.31598267935E+03  0.13780498598E+04  0.86173117594E+02 0.  0.
        254    2    1    2    0    0  0.13138437128E+04 -0.25605713155E+03 -0.10489500241E+03  0.16233842497E+04  0.91248172829E+03 0.  0.
         23    2    4    4    0    0  0.22958555164E+03 -0.14354624460E+03  0.33805795970E+03  0.44257393186E+03  0.90958513534E+02 0.  0.
         23    2    4    4    0    0  0.10842581611E+04 -0.11251088695E+03 -0.44295296210E+03  0.11808103178E+04  0.99152511023E+02 0.  0.
          2    1    3    3  502    0 -0.25237101572E+03  0.53660498524E+02  0.26627003130E+02  0.25938306802E+03  0.00000000000E+00 0. -1.
         -1    1    3    3    0  502 -0.10614726971E+04  0.20239663302E+03  0.28935567622E+03  0.11186667918E+04  0.00000000000E+00 0.  1.
         11    1    5    5    0    0  0.46384635825E+02 -0.20747780049E+02  0.18045872060E+02  0.53922706868E+02  0.00000000000E+00 0.  1.
        -11    1    5    5    0    0  0.18320091582E+03 -0.12279846455E+03  0.32001208764E+03  0.38865122499E+03  0.00000000000E+00 0. -1.
          2    1    6    6  503    0  0.91331205402E+03 -0.11849949736E+03 -0.40226527785E+03  0.10049867624E+04  0.00000000000E+00 0. -1.
         -2    1    6    6    0  503  0.17094610711E+03  0.59886104146E+01 -0.40687684257E+02  0.17582355542E+03  0.00000000000E+00 0.  1.
<mgrwt>
<rscale>  0 0.29940021E+04</rscale>
<asrwt>0</asrwt>
<pdfrwt beam="1">  1        2 0.21464203E+00 0.29940021E+04</pdfrwt>
<pdfrwt beam="2">  1       -1 0.24711706E+00 0.29940021E+04</pdfrwt>
<totfact> 0.10342672E+00</totfact>
</mgrwt>
</event>
<event>
12    6  0.1530720E-007  0.1543013E+04  0.7818608E-02  0.8856343E-01
         -1   -1    0    0    0  501 -0.00000000000E+00  0.00000000000E+00  0.90147890035E+03  0.90147890035E+03  0.00000000000E+00 0.  1.
          2   -1    0    0  501    0  0.00000000000E+00 -0.00000000000E+00 -0.66027273884E+03  0.66027273884E+03  0.00000000000E+00 0. -1.
         24    2    1    2    0    0 -0.28102977385E+03  0.63930346528E+02  0.49656028687E+03  0.57971857154E+03  0.80228926867E+02 0.  0.
        254    2    1    2    0    0  0.28102977385E+03 -0.63930346528E+02 -0.25535412535E+03  0.98203306765E+03  0.90339271285E+03 0.  0.
         23    2    4    4    0    0 -0.96539437344E+02 -0.38289079751E+03  0.24670600297E+02  0.40619839552E+03  0.91996044618E+02 0.  0.
         23    2    4    4    0    0  0.37756921119E+03  0.31896045098E+03 -0.28002472565E+03  0.57583467213E+03  0.94220189572E+02 0.  0.
          2    1    3    3  502    0 -0.18283887413E+03  0.48752997255E+02  0.24733700194E+03  0.31142013609E+03  0.00000000000E+00 0. -1.
         -1    1    3    3    0  502 -0.98190899720E+02  0.15177349273E+02  0.24922328492E+03  0.26829843545E+03  0.00000000000E+00 0.  1.
         11    1    5    5    0    0 -0.74284655425E+02 -0.20587999458E+03 -0.26828604105E+02  0.22050976440E+03  0.00000000000E+00 0.  1.
        -11    1    5    5    0    0 -0.22254781919E+02 -0.17701080293E+03  0.51499204401E+02  0.18568863112E+03  0.00000000000E+00 0. -1.
          1    1    6    6  503    0  0.66876364083E+02  0.37303205605E+02 -0.81593976259E+02  0.11189975059E+03  0.00000000000E+00 0. -1.
         -1    1    6    6    0  503  0.31069284711E+03  0.28165724537E+03 -0.19843074939E+03  0.46393492154E+03  0.00000000000E+00 0.  1.
<mgrwt>
<rscale>  0 0.15430126E+04</rscale>
<asrwt>0</asrwt>
<pdfrwt beam="1">  1        2 0.10158042E+00 0.15430126E+04</pdfrwt>
<pdfrwt beam="2">  1       -1 0.13868906E+00 0.15430126E+04</pdfrwt>
<totfact> 0.20843395E+01</totfact>
</mgrwt>
</event>
<event>
12    6  0.1530720E-007  0.1138166E+04  0.7818608E-02  0.9168771E-01
          4   -1    0    0  501    0  0.00000000000E+00  0.00000000000E+00  0.55131077285E+03  0.55131077285E+03  0.00000000000E+00 0. -1.
         -3   -1    0    0    0  501 -0.00000000000E+00 -0.00000000000E+00 -0.58742817622E+03  0.58742817622E+03  0.00000000000E+00 0.  1.
         24    2    1    2    0    0  0.20025990878E+03 -0.69194175842E+02  0.22235238405E+02  0.22731599282E+03  0.79286125726E+02 0.  0.
        254    2    1    2    0    0 -0.20025990878E+03  0.69194175842E+02 -0.58352641777E+02  0.91142295624E+03  0.88453089790E+03 0.  0.
         23    2    4    4    0    0  0.29291162890E+03  0.15170971505E+03 -0.18107194609E+03  0.38841868972E+03  0.96275484312E+02 0.  0.
         23    2    4    4    0    0 -0.49317153767E+03 -0.82515539208E+02  0.12271930431E+03  0.52300426652E+03  0.91904599287E+02 0.  0.
          2    1    3    3  502    0  0.11377745724E+03 -0.79347357184E+02  0.20520542348E+02  0.14022269976E+03  0.00000000000E+00 0. -1.
         -1    1    3    3    0  502  0.86482451534E+02  0.10153181342E+02  0.17146960573E+01  0.87093293068E+02  0.00000000000E+00 0.  1.
         11    1    5    5    0    0  0.13451528641E+03  0.10972224323E+03 -0.56416470162E+02  0.18252712413E+03  0.00000000000E+00 0. -1.
        -11    1    5    5    0    0  0.15839634248E+03  0.41987471822E+02 -0.12465547593E+03  0.20589156559E+03  0.00000000000E+00 0.  1.
          3    1    6    6  503    0 -0.33238004993E+03 -0.98788249726E+02  0.86754674345E+02  0.35743809170E+03  0.00000000000E+00 0. -1.
         -3    1    6    6    0  503 -0.16079148774E+03  0.16272710518E+02  0.35964629969E+02  0.16556617483E+03  0.00000000000E+00 0.  1.
<mgrwt>
<rscale>  0 0.11381660E+04</rscale>
<asrwt>0</asrwt>
<pdfrwt beam="1">  1        4 0.84817041E-01 0.11381660E+04</pdfrwt>
<pdfrwt beam="2">  1       -3 0.90373566E-01 0.11381660E+04</pdfrwt>
<totfact> 0.30336099E+00</totfact>
</mgrwt>
</event>
<event>
12    6  0.2254447E-007  0.1838175E+04  0.7818608E-02  0.8686258E-01
          2   -1    0    0  501    0  0.00000000000E+00  0.00000000000E+00  0.21469252116E+04  0.21469252116E+04  0.00000000000E+00 0. -1.
         -1   -1    0    0    0  501 -0.00000000000E+00 -0.00000000000E+00 -0.39345669845E+03  0.39345669845E+03  0.00000000000E+00 0.  1.
         24    2    1    2    0    0 -0.12229044899E+03  0.22034912323E+03 -0.23278490521E+03  0.35258362681E+03  0.81349319453E+02 0.  0.
        254    2    1    2    0    0  0.12229044899E+03 -0.22034912323E+03  0.19862534183E+04  0.21877982832E+04  0.88190135284E+03 0.  0.
         23    2    4    4    0    0  0.30557057212E+03 -0.37131318951E+03  0.58118314535E+03  0.75997471504E+03  0.92416772362E+02 0.  0.
         23    2    4    4    0    0 -0.18328012312E+03  0.15096406628E+03  0.14050702730E+04  0.14278235682E+04  0.89866105674E+02 0.  0.
          2    1    3    3  502    0 -0.31421477627E+02  0.85134797894E+01 -0.16499864133E+02  0.36497042494E+02  0.00000000000E+00 0. -1.
         -1    1    3    3    0  502 -0.90868971368E+02  0.21183564344E+03 -0.21628504108E+03  0.31608658431E+03  0.00000000000E+00 0.  1.
         11    1    5    5    0    0 -0.15118682497E+01 -0.30414085480E+02  0.44170809107E+02  0.53650374820E+02  0.00000000000E+00 0. -1.
        -11    1    5    5    0    0  0.30708244037E+03 -0.34089910403E+03  0.53701233624E+03  0.70632434022E+03  0.00000000000E+00 0.  1.
          1    1    6    6  503    0 -0.43570540422E+02  0.10009242016E+02  0.13170887470E+03  0.13908919654E+03  0.00000000000E+00 0. -1.
         -1    1    6    6    0  503 -0.13970958270E+03  0.14095482427E+03  0.12733613983E+04  0.12887343716E+04  0.00000000000E+00 0.  1.
<mgrwt>
<rscale>  0 0.18381753E+04</rscale>
<asrwt>0</asrwt>
<pdfrwt beam="1">  1        2 0.33029618E+00 0.18381753E+04</pdfrwt>
<pdfrwt beam="2">  1       -1 0.60531801E-01 0.18381753E+04</pdfrwt>
<totfact> 0.16407789E+01</totfact>
</mgrwt>
</event>
<event>
12    6  0.1530720E-007  0.2831909E+04  0.7818608E-02  0.8293430E-01
         -1   -1    0    0    0  501 -0.00000000000E+00  0.00000000000E+00  0.67763720203E+03  0.67763720203E+03  0.00000000000E+00 0.  1.
          2   -1    0    0  501    0  0.00000000000E+00 -0.00000000000E+00 -0.29587038878E+04  0.29587038878E+04  0.00000000000E+00 0. -1.
         24    2    1    2    0    0 -0.10116946065E+04 -0.57320237940E+03 -0.16689405588E+04  0.20356283643E+04  0.79582058046E+02 0.  0.
        254    2    1    2    0    0  0.10116946065E+04  0.57320237940E+03 -0.61212612695E+03  0.16007127256E+04  0.91405464270E+03 0.  0.
         23    2    4    4    0    0  0.21085638431E+03  0.12820062779E+02  0.21656967459E+03  0.31608002285E+03  0.91538997573E+02 0.  0.
         23    2    4    4    0    0  0.80083822221E+03  0.56038231662E+03 -0.82869580155E+03  0.12846327027E+04  0.90411561341E+02 0.  0.
          2    1    3    3  502    0 -0.71629833056E+03 -0.36696645721E+03 -0.11274433272E+04  0.13852350469E+04  0.00000000000E+00 0. -1.
         -1    1    3    3    0  502 -0.29539627597E+03 -0.20623592219E+03 -0.54149723158E+03  0.65039331736E+03  0.00000000000E+00 0.  1.
         11    1    5    5    0    0  0.15999960157E+03 -0.24188469601E+02  0.18473648452E+03  0.24558608120E+03  0.00000000000E+00 0. -1.
        -11    1    5    5    0    0  0.50856782739E+02  0.37008532380E+02  0.31833190073E+02  0.70493941652E+02  0.00000000000E+00 0.  1.
          2    1    6    6  503    0  0.65578618462E+03  0.43958086310E+03 -0.62511715480E+03  0.10070046238E+04  0.00000000000E+00 0. -1.
         -2    1    6    6    0  503  0.14505203759E+03  0.12080145352E+03 -0.20357864674E+03  0.27762807890E+03  0.00000000000E+00 0.  1.
<mgrwt>
<rscale>  0 0.28319095E+04</rscale>
<asrwt>0</asrwt>
<pdfrwt beam="1">  1        2 0.45518520E+00 0.28319095E+04</pdfrwt>
<pdfrwt beam="2">  1       -1 0.10425188E+00 0.28319095E+04</pdfrwt>
<totfact> 0.15770129E+00</totfact>
</mgrwt>
</event>
<event>
12    6  0.1530720E-007  0.1055314E+04  0.7818608E-02  0.9249874E-01
         -1   -1    0    0    0  501 -0.00000000000E+00  0.00000000000E+00  0.23015339915E+03  0.23015339915E+03  0.00000000000E+00 0.  1.
          2   -1    0    0  501    0  0.00000000000E+00 -0.00000000000E+00 -0.12097241273E+04  0.12097241273E+04  0.00000000000E+00 0. -1.
         24    2    1    2    0    0  0.54844662078E+02 -0.54666817548E+02 -0.26813773793E+03  0.29065598828E+03  0.81158235090E+02 0.  0.
        254    2    1    2    0    0 -0.54844662078E+02  0.54666817548E+02 -0.71143299019E+03  0.11492215381E+04  0.89920901146E+03 0.  0.
         23    2    4    4    0    0  0.19968967315E+03  0.39217168537E+03 -0.47361765470E+03  0.65431213030E+03  0.10067812396E+03 0.  0.
         23    2    4    4    0    0 -0.25453433523E+03 -0.33750486782E+03 -0.23781533549E+03  0.49490940784E+03  0.98396771086E+02 0.  0.
          4    1    3    3  502    0  0.40149393488E+02 -0.65690742541E+02 -0.25887843119E+03  0.27008385659E+03  0.00000000000E+00 0. -1.
         -3    1    3    3    0  502  0.14695268589E+02  0.11023924993E+02 -0.92593067368E+01  0.20572131693E+02  0.00000000000E+00 0.  1.
         11    1    5    5    0    0  0.16286945687E+03  0.33240012920E+03 -0.44415445056E+03  0.57817772512E+03  0.00000000000E+00 0. -1.
        -11    1    5    5    0    0  0.36820216286E+02  0.59771556164E+02 -0.29463204142E+02  0.76134405178E+02  0.00000000000E+00 0.  1.
          4    1    6    6  503    0 -0.22934973598E+03 -0.32249992324E+03 -0.24404921951E+03  0.46493819313E+03  0.00000000000E+00 0. -1.
         -4    1    6    6    0  503 -0.25184599254E+02 -0.15004944579E+02  0.62338840214E+01  0.29971214713E+02  0.00000000000E+00 0.  1.
<mgrwt>
<rscale>  0 0.10553144E+04</rscale>
<asrwt>0</asrwt>
<pdfrwt beam="1">  1        2 0.18611141E+00 0.10553144E+04</pdfrwt>
<pdfrwt beam="2">  1       -1 0.35408215E-01 0.10553144E+04</pdfrwt>
<totfact> 0.16096573E+02</totfact>
</mgrwt>
</event>
<event>
12    6  0.1530720E-007  0.1912422E+04  0.7818608E-02  0.8648698E-01
          2   -1    0    0  501    0  0.00000000000E+00  0.00000000000E+00  0.22786750388E+04  0.22786750388E+04  0.00000000000E+00 0. -1.
         -1   -1    0    0    0  501 -0.00000000000E+00 -0.00000000000E+00 -0.40125936001E+03  0.40125936001E+03  0.00000000000E+00 0.  1.
         24    2    1    2    0    0  0.18651925435E+03  0.12701937102E+03  0.15300717510E+04  0.15502867481E+04  0.10651800524E+03 0.  0.
        254    2    1    2    0    0 -0.18651925435E+03 -0.12701937102E+03  0.34734392783E+03  0.11296476507E+04  0.10509674865E+04 0.  0.
         23    2    4    4    0    0  0.17159956707E+03  0.76379698877E+02  0.60161902303E+03  0.63683034554E+03  0.91253330410E+02 0.  0.
         23    2    4    4    0    0 -0.35811882142E+03 -0.20339906990E+03 -0.25427509520E+03  0.49281730514E+03  0.92697358715E+02 0.  0.
          4    1    3    3  502    0  0.83850018060E+02  0.11197073223E+03  0.10387575501E+04  0.10481343035E+04  0.00000000000E+00 0. -1.
         -3    1    3    3    0  502  0.10266923629E+03  0.15048638789E+02  0.49131420092E+03  0.50215244461E+03  0.00000000000E+00 0.  1.
         11    1    5    5    0    0  0.99464414258E+02  0.10889081319E+02  0.40786612667E+03  0.41996013987E+03  0.00000000000E+00 0.  1.
        -11    1    5    5    0    0  0.72135152813E+02  0.65490617558E+02  0.19375289636E+03  0.21687020567E+03  0.00000000000E+00 0. -1.
          1    1    6    6  503    0 -0.16630228510E+03 -0.45072051535E+02 -0.86448219156E+02  0.19277249403E+03  0.00000000000E+00 0. -1.
         -1    1    6    6    0  503 -0.19181653632E+03 -0.15832701836E+03 -0.16782687605E+03  0.30004481111E+03  0.00000000000E+00 0.  1.
<mgrwt>
<rscale>  0 0.19124222E+04</rscale>
<asrwt>0</asrwt>
<pdfrwt beam="1">  1        2 0.35056538E+00 0.19124222E+04</pdfrwt>
<pdfrwt beam="2">  1       -1 0.61732211E-01 0.19124222E+04</pdfrwt>
<totfact> 0.13220042E+01</totfact>
</mgrwt>
</event>
<event>
12    6  0.1530720E-007  0.1889934E+04  0.7818608E-02  0.8659883E-01
         -1   -1    0    0    0  501 -0.00000000000E+00  0.00000000000E+00  0.25884569157E+03  0.25884569157E+03  0.00000000000E+00 0.  1.
          2   -1    0    0  501    0  0.00000000000E+00 -0.00000000000E+00 -0.34497877097E+04  0.34497877097E+04  0.00000000000E+00 0. -1.
         24    2    1    2    0    0  0.75208816252E+02  0.90498883180E+02 -0.26564821266E+04  0.26603276566E+04  0.81237538997E+02 0.  0.
        254    2    1    2    0    0 -0.75208816252E+02 -0.90498883180E+02 -0.53445989155E+03  0.10483057447E+04  0.89412031894E+03 0.  0.
         23    2    4    4    0    0  0.26775123875E+03 -0.17316408041E+03 -0.59221638917E+03  0.67863389660E+03  0.90261782681E+02 0.  0.
         23    2    4    4    0    0 -0.34296005500E+03  0.82665197233E+02  0.57756497625E+02  0.36967184807E+03  0.94161181380E+02 0.  0.
          4    1    3    3  502    0  0.74974276438E+01  0.71359802708E+02 -0.14877661638E+04  0.14894954149E+04  0.00000000000E+00 0. -1.
         -3    1    3    3    0  502  0.67711388608E+02  0.19139080472E+02 -0.11687159628E+04  0.11708322417E+04  0.00000000000E+00 0.  1.
         11    1    5    5    0    0  0.27063529754E+03 -0.17526975303E+03 -0.55977159132E+03  0.64599317725E+03  0.00000000000E+00 0. -1.
        -11    1    5    5    0    0 -0.28840587889E+01  0.21056726128E+01 -0.32444797853E+02  0.32640719354E+02  0.00000000000E+00 0.  1.
          3    1    6    6  503    0 -0.25506011518E+03  0.47388322002E+02  0.13406055066E+01  0.25942843453E+03  0.00000000000E+00 0. -1.
         -3    1    6    6    0  503 -0.87899939823E+02  0.35276875231E+02  0.56415892119E+02  0.11024341355E+03  0.00000000000E+00 0.  1.
<mgrwt>
<rscale>  0 0.18899341E+04</rscale>
<asrwt>0</asrwt>
<pdfrwt beam="1">  1        2 0.53073658E+00 0.18899341E+04</pdfrwt>
<pdfrwt beam="2">  1       -1 0.39822413E-01 0.18899341E+04</pdfrwt>
<totfact> 0.58109488E+00</totfact>
</mgrwt>
</event>
<event>
12    6  0.1530720E-007  0.2185292E+04  0.7818608E-02  0.8524575E-01
         -1   -1    0    0    0  501 -0.00000000000E+00  0.00000000000E+00  0.27584310412E+03  0.27584310412E+03  0.00000000000E+00 0.  1.
          2   -1    0    0  501    0  0.00000000000E+00 -0.00000000000E+00 -0.43280963858E+04  0.43280963858E+04  0.00000000000E+00 0. -1.
         24    2    1    2    0    0 -0.66531174200E+03  0.61406223577E+03 -0.16509674346E+04  0.18844910811E+04  0.76818103064E+02 0.  0.
        254    2    1    2    0    0  0.66531174200E+03 -0.61406223577E+03 -0.24012858470E+04  0.27194484089E+04  0.89972984045E+03 0.  0.
         23    2    4    4    0    0  0.54695597612E+03 -0.12397719687E+03 -0.52224904393E+03  0.77173969721E+03  0.91142258072E+02 0.  0.
         23    2    4    4    0    0  0.11835576588E+03 -0.49008503891E+03 -0.18790368031E+04  0.19477087117E+04  0.92728017909E+02 0.  0.
          2    1    3    3  502    0 -0.75289686325E+02  0.70150631549E+02 -0.14138214198E+03  0.17486725836E+03  0.00000000000E+00 0. -1.
         -1    1    3    3    0  502 -0.59002205567E+03  0.54391160422E+03 -0.15095852927E+04  0.17096238227E+04  0.00000000000E+00 0.  1.
         11    1    5    5    0    0  0.32843470570E+03 -0.11309597095E+03 -0.28821863866E+03  0.45136463998E+03  0.00000000000E+00 0. -1.
        -11    1    5    5    0    0  0.21852127042E+03 -0.10881225917E+02 -0.23403040527E+03  0.32037505723E+03  0.00000000000E+00 0.  1.
          1    1    6    6  503    0  0.11065395726E+03 -0.48987969344E+03 -0.18147368566E+04  0.18829488232E+04  0.00000000000E+00 0. -1.
         -1    1    6    6    0  503  0.77018086244E+01 -0.20534546094E+00 -0.64299946527E+02  0.64759888405E+02  0.00000000000E+00 0.  1.
<mgrwt>
<rscale>  0 0.21852922E+04</rscale>
<asrwt>0</asrwt>
<pdfrwt beam="1">  1        2 0.66586097E+00 0.21852922E+04</pdfrwt>
<pdfrwt beam="2">  1       -1 0.42437401E-01 0.21852922E+04</pdfrwt>
<totfact> 0.10279409E+00</totfact>
</mgrwt>
</event>
<event>
12    6  0.1530720E-007  0.2191503E+04  0.7818608E-02  0.8521973E-01
          2   -1    0    0  501    0  0.00000000000E+00  0.00000000000E+00  0.79872805071E+03  0.79872805071E+03  0.00000000000E+00 0. -1.
         -1   -1    0    0    0  501 -0.00000000000E+00 -0.00000000000E+00 -0.15032285445E+04  0.15032285445E+04  0.00000000000E+00 0.  1.
         24    2    1    2    0    0  0.90850420844E+02  0.90920781507E+03 -0.34328772649E+03  0.97954440457E+03  0.82146986639E+02 0.  0.
        254    2    1    2    0    0 -0.90850420844E+02 -0.90920781507E+03 -0.36121276727E+03  0.13224121906E+04  0.88509134483E+03 0.  0.
         23    2    4    4    0    0 -0.34969013917E+03 -0.65897066788E+03 -0.52427643260E+03  0.91628047129E+03  0.90435555697E+02 0.  0.
         23    2    4    4    0    0  0.25883971832E+03 -0.25023714719E+03  0.16306366532E+03  0.40613171932E+03  0.93469700305E+02 0.  0.
          2    1    3    3  502    0  0.16889046699E+02  0.22185027053E+03 -0.46997416205E+02  0.22740171408E+03  0.00000000000E+00 0. -1.
         -1    1    3    3    0  502  0.73961374145E+02  0.68735754454E+03 -0.29629031028E+03  0.75214269050E+03  0.00000000000E+00 0.  1.
         11    1    5    5    0    0 -0.12986073842E+03 -0.32683000769E+03 -0.27463741403E+03  0.44621449381E+03  0.00000000000E+00 0.  1.
        -11    1    5    5    0    0 -0.21982940075E+03 -0.33214066020E+03 -0.24963901857E+03  0.47006597748E+03  0.00000000000E+00 0. -1.
          3    1    6    6  503    0  0.25427755937E+03 -0.20848907645E+03  0.15431943975E+03  0.36323444452E+03  0.00000000000E+00 0. -1.
         -3    1    6    6    0  503  0.45621589504E+01 -0.41748070736E+02  0.87442255705E+01  0.42897274800E+02  0.00000000000E+00 0.  1.
<mgrwt>
<rscale>  0 0.21915025E+04</rscale>
<asrwt>0</asrwt>
<pdfrwt beam="1">  1        2 0.12288124E+00 0.21915025E+04</pdfrwt>
<pdfrwt beam="2">  1       -1 0.23126592E+00 0.21915025E+04</pdfrwt>
<totfact> 0.33351195E+00</totfact>
</mgrwt>
</event>
<event>
12    6  0.1530720E-007  0.2126445E+04  0.7818608E-02  0.8549683E-01
         -1   -1    0    0    0  501 -0.00000000000E+00  0.00000000000E+00  0.90115055922E+03  0.90115055922E+03  0.00000000000E+00 0.  1.
          2   -1    0    0  501    0  0.00000000000E+00 -0.00000000000E+00 -0.12544428154E+04  0.12544428154E+04  0.00000000000E+00 0. -1.
         24    2    1    2    0    0 -0.16023527177E+02  0.58650967428E+02  0.73360689329E+03  0.74025103973E+03  0.78075851241E+02 0.  0.
        254    2    1    2    0    0  0.16023527177E+02 -0.58650967428E+02 -0.10868991494E+04  0.14153423348E+04  0.90451504928E+03 0.  0.
         23    2    4    4    0    0  0.40195142514E+03  0.12881433650E+03 -0.73737840674E+03  0.85451879958E+03  0.91199685565E+02 0.  0.
         23    2    4    4    0    0 -0.38592789797E+03 -0.18746530393E+03 -0.34952074267E+03  0.56082353525E+03  0.90965408426E+02 0.  0.
          2    1    3    3  502    0 -0.27967846236E+02  0.50238201850E+02  0.25420833854E+03  0.26062992294E+03  0.00000000000E+00 0. -1.
         -1    1    3    3    0  502  0.11944319059E+02  0.84127655776E+01  0.47939855475E+03  0.47962111680E+03  0.00000000000E+00 0.  1.
         11    1    5    5    0    0  0.39193705968E+03  0.10857809190E+03 -0.71589516218E+03  0.82335274580E+03  0.00000000000E+00 0. -1.
        -11    1    5    5    0    0  0.10014365461E+02  0.20236244601E+02 -0.21483244566E+02  0.31166053780E+02  0.00000000000E+00 0.  1.
          3    1    6    6  503    0 -0.28167835147E+03 -0.17051247065E+03 -0.29439054857E+03  0.44168200260E+03  0.00000000000E+00 0. -1.
         -3    1    6    6    0  503 -0.10424954650E+03 -0.16952833277E+02 -0.55130194101E+02  0.11914153265E+03  0.00000000000E+00 0.  1.
<mgrwt>
<rscale>  0 0.21264448E+04</rscale>
<asrwt>0</asrwt>
<pdfrwt beam="1">  1        2 0.19299120E+00 0.21264448E+04</pdfrwt>
<pdfrwt beam="2">  1       -1 0.13863855E+00 0.21264448E+04</pdfrwt>
<totfact> 0.79251162E+00</totfact>
</mgrwt>
</event>
<event>
12    6  0.1530720E-007  0.1821590E+04  0.7818608E-02  0.8694902E-01
         -1   -1    0    0    0  501 -0.00000000000E+00  0.00000000000E+00  0.71680672249E+03  0.71680672249E+03  0.00000000000E+00 0.  1.
          2   -1    0    0  501    0  0.00000000000E+00 -0.00000000000E+00 -0.11572821527E+04  0.11572821527E+04  0.00000000000E+00 0. -1.
         24    2    1    2    0    0  0.12547340400E+03 -0.35527607065E+03  0.42221860967E+03  0.57305411969E+03  0.90320586025E+02 0.  0.
        254    2    1    2    0    0 -0.12547340400E+03  0.35527607065E+03 -0.86269403987E+03  0.13010347555E+04  0.89804552619E+03 0.  0.
         23    2    4    4    0    0  0.15057578947E+02 -0.18029349671E+03  0.68413183774E+02  0.21394687616E+03  0.91435367689E+02 0.  0.
         23    2    4    4    0    0 -0.14053098295E+03  0.53556956736E+03 -0.93110722364E+03  0.10870878793E+04  0.90640370882E+02 0.  0.
          2    1    3    3  502    0  0.40763687492E+02 -0.16243425149E+03  0.25036772260E+03  0.30121514038E+03  0.00000000000E+00 0. -1.
         -1    1    3    3    0  502  0.84709716507E+02 -0.19284181915E+03  0.17185088707E+03  0.27183897931E+03  0.00000000000E+00 0.  1.
         11    1    5    5    0    0  0.17643658117E+02 -0.17563885011E+03  0.85435606136E+02  0.19611105817E+03  0.00000000000E+00 0. -1.
        -11    1    5    5    0    0 -0.25860791706E+01 -0.46546466055E+01 -0.17022422363E+02  0.17835817996E+02  0.00000000000E+00 0.  1.
          2    1    6    6  503    0 -0.28470920906E+02  0.23606609192E+02 -0.62041702166E+02  0.72229067158E+02  0.00000000000E+00 0.  1.
         -2    1    6    6    0  503 -0.11206006204E+03  0.51196295817E+03 -0.86906552148E+03  0.10148588122E+04  0.00000000000E+00 0. -1.
<mgrwt>
<rscale>  0 0.18215901E+04</rscale>
<asrwt>0</asrwt>
<pdfrwt beam="1">  1        2 0.17804341E+00 0.18215901E+04</pdfrwt>
<pdfrwt beam="2">  1       -1 0.11027796E+00 0.18215901E+04</pdfrwt>
<totfact> 0.16387446E+01</totfact>
</mgrwt>
</event>
<event>
12    6  0.1530720E-007  0.1335328E+04  0.7818608E-02  0.9002009E-01
          2   -1    0    0  501    0  0.00000000000E+00  0.00000000000E+00  0.10452084404E+04  0.10452084404E+04  0.00000000000E+00 0. -1.
         -1   -1    0    0    0  501 -0.00000000000E+00 -0.00000000000E+00 -0.42649434764E+03  0.42649434764E+03  0.00000000000E+00 0.  1.
         24    2    1    2    0    0 -0.12647747589E+03  0.16646925866E+03 -0.14612294663E+03  0.26722556345E+03  0.79680739487E+02 0.  0.
        254    2    1    2    0    0  0.12647747589E+03 -0.16646925866E+03  0.76483703941E+03  0.12044772246E+04  0.90668689291E+03 0.  0.
         23    2    4    4    0    0  0.19210848065E+03  0.25013462546E+03  0.20028342392E+01  0.32861403665E+03  0.92250607297E+02 0.  0.
         23    2    4    4    0    0 -0.65631004758E+02 -0.41660388412E+03  0.76283420517E+03  0.87586318795E+03  0.85755900025E+02 0.  0.
          4    1    3    3  502    0 -0.45306771830E+02  0.57934889953E+02 -0.99852275539E+02  0.12401464421E+03  0.00000000000E+00 0. -1.
         -3    1    3    3    0  502 -0.81170704063E+02  0.10853436870E+03 -0.46270671090E+02  0.14321091925E+03  0.00000000000E+00 0.  1.
         11    1    5    5    0    0  0.68790009878E+02  0.85834426942E+02  0.44801306505E+02  0.11877193007E+03  0.00000000000E+00 0. -1.
        -11    1    5    5    0    0  0.12331847077E+03  0.16430019852E+03 -0.42798472265E+02  0.20984210659E+03  0.00000000000E+00 0.  1.
          4    1    6    6  503    0 -0.83879496801E+02 -0.31338109262E+03  0.54816232914E+03  0.63696579051E+03  0.00000000000E+00 0.  1.
         -4    1    6    6    0  503  0.18248492042E+02 -0.10322279150E+03  0.21467187603E+03  0.23889739744E+03  0.00000000000E+00 0. -1.
<mgrwt>
<rscale>  0 0.13353284E+04</rscale>
<asrwt>0</asrwt>
<pdfrwt beam="1">  1        2 0.16080130E+00 0.13353284E+04</pdfrwt>
<pdfrwt beam="2">  1       -1 0.65614515E-01 0.13353284E+04</pdfrwt>
<totfact> 0.61905494E+01</totfact>
</mgrwt>
</event>
<event>
12    6  0.1530720E-007  0.1191021E+04  0.7818608E-02  0.9120752E-01
          2   -1    0    0  501    0  0.00000000000E+00  0.00000000000E+00  0.23269385203E+03  0.23269385203E+03  0.00000000000E+00 0. -1.
         -1   -1    0    0    0  501 -0.00000000000E+00 -0.00000000000E+00 -0.15240310040E+04  0.15240310040E+04  0.00000000000E+00 0.  1.
         24    2    1    2    0    0 -0.20656193704E+03  0.12974245459E+03 -0.19886701860E+03  0.32464770749E+03  0.79668717428E+02 0.  0.
        254    2    1    2    0    0  0.20656193704E+03 -0.12974245459E+03 -0.10924701334E+04  0.14320771486E+04  0.89322619125E+03 0.  0.
         23    2    4    4    0    0 -0.58841532556E+01 -0.28300542782E+03 -0.11149490732E+04  0.11539784854E+04  0.91805303043E+02 0.  0.
         23    2    4    4    0    0  0.21244609029E+03  0.15326297323E+03  0.22478939775E+02  0.27809866312E+03  0.90612821700E+02 0.  0.
          4    1    3    3  502    0 -0.16396026047E+03  0.11464477558E+03 -0.11873138528E+03  0.23264465055E+03  0.00000000000E+00 0. -1.
         -3    1    3    3    0  502 -0.42601676562E+02  0.15097679015E+02 -0.80135633324E+02  0.92003056937E+02  0.00000000000E+00 0.  1.
         11    1    5    5    0    0 -0.13939211420E+02 -0.14485877131E+03 -0.74308298659E+03  0.75719924076E+03  0.00000000000E+00 0. -1.
        -11    1    5    5    0    0  0.80550581640E+01 -0.13814665651E+03 -0.37186608659E+03  0.39677924469E+03  0.00000000000E+00 0.  1.
          3    1    6    6  503    0  0.14113153787E+03  0.77814062349E+02  0.53391287251E+02  0.16977564265E+03  0.00000000000E+00 0. -1.
         -3    1    6    6    0  503  0.71314552417E+02  0.75448910876E+02 -0.30912347476E+02  0.10832302048E+03  0.00000000000E+00 0.  1.
<mgrwt>
<rscale>  0 0.11910208E+04</rscale>
<asrwt>0</asrwt>
<pdfrwt beam="1">  1        2 0.35799053E-01 0.11910208E+04</pdfrwt>
<pdfrwt beam="2">  1       -1 0.23446632E+00 0.11910208E+04</pdfrwt>
<totfact> 0.14588928E+01</totfact>
</mgrwt>
</event>
<event>
12    6  0.1530720E-007  0.2199760E+04  0.7818608E-02  0.8518528E-01
          2   -1    0    0  501    0  0.00000000000E+00  0.00000000000E+00  0.26008484091E+04  0.26008484091E+04  0.00000000000E+00 0. -1.
         -1   -1    0    0    0  501 -0.00000000000E+00 -0.00000000000E+00 -0.46513128347E+03  0.46513128347E+03  0.00000000000E+00 0.  1.
         24    2    1    2    0    0  0.36353309424E+02  0.85840340775E+03  0.45190458095E+03  0.97405055987E+03  0.79867198241E+02 0.  0.
        254    2    1    2    0    0 -0.36353309424E+02 -0.85840340775E+03  0.16838125447E+04  0.20919291327E+04  0.89597144880E+03 0.  0.
         23    2    4    4    0    0 -0.34958444837E+03 -0.65331805135E+03  0.65420677070E+03  0.99253610313E+03  0.90042514541E+02 0.  0.
         23    2    4    4    0    0  0.31323113895E+03 -0.20508535641E+03  0.10296057740E+04  0.10993930296E+04  0.91669154249E+02 0.  0.
          4    1    3    3  502    0  0.48081431420E+02  0.83222216556E+03  0.43015992776E+03  0.93805283452E+03  0.00000000000E+00 0. -1.
         -3    1    3    3    0  502 -0.11728121996E+02  0.26181242192E+02  0.21744653187E+02  0.35997725352E+02  0.00000000000E+00 0.  1.
         11    1    5    5    0    0 -0.25045179739E+03 -0.38751782513E+03  0.37611351303E+03  0.59527938172E+03  0.00000000000E+00 0. -1.
        -11    1    5    5    0    0 -0.99132650979E+02 -0.26580022621E+03  0.27809325767E+03  0.39725672141E+03  0.00000000000E+00 0.  1.
          3    1    6    6  503    0  0.23032391650E+03 -0.19521388964E+03  0.81309748362E+03  0.86734369606E+03  0.00000000000E+00 0. -1.
         -3    1    6    6    0  503  0.82907222448E+02 -0.98714667628E+01  0.21650829035E+03  0.23204933351E+03  0.00000000000E+00 0.  1.
<mgrwt>
<rscale>  0 0.21997599E+04</rscale>
<asrwt>0</asrwt>
<pdfrwt beam="1">  1        2 0.40013052E+00 0.21997599E+04</pdfrwt>
<pdfrwt beam="2">  1       -1 0.71558660E-01 0.21997599E+04</pdfrwt>
<totfact> 0.62352281E+00</totfact>
</mgrwt>
</event>
<event>
12    6  0.1530720E-007  0.1286139E+04  0.7818608E-02  0.9040630E-01
          2   -1    0    0  501    0  0.00000000000E+00  0.00000000000E+00  0.52596162645E+03  0.52596162645E+03  0.00000000000E+00 0. -1.
         -1   -1    0    0    0  501 -0.00000000000E+00 -0.00000000000E+00 -0.78625176829E+03  0.78625176829E+03  0.00000000000E+00 0.  1.
         24    2    1    2    0    0  0.14004258354E+03 -0.27726381084E+03 -0.34942712493E+02  0.32255317416E+03  0.79576447510E+02 0.  0.
        254    2    1    2    0    0 -0.14004258354E+03  0.27726381084E+03 -0.22534742935E+03  0.98966022058E+03  0.91222735229E+03 0.  0.
         23    2    4    4    0    0 -0.50128408514E+03  0.15674552922E+03  0.98669926619E+01  0.53285876440E+03  0.89365599109E+02 0.  0.
         23    2    4    4    0    0  0.36124150160E+03  0.12051828163E+03 -0.23521442201E+03  0.45680145618E+03  0.91223173351E+02 0.  0.
          4    1    3    3  502    0  0.14479651039E+03 -0.23738824589E+03 -0.17038758993E+02  0.27858486681E+03  0.00000000000E+00 0. -1.
         -3    1    3    3    0  502 -0.47539268434E+01 -0.39875564952E+02 -0.17903953500E+02  0.43968307355E+02  0.00000000000E+00 0.  1.
         11    1    5    5    0    0 -0.45144177122E+03  0.16510956119E+03  0.20850211339E+02  0.48113986668E+03  0.00000000000E+00 0. -1.
        -11    1    5    5    0    0 -0.49842313927E+02 -0.83640319785E+01 -0.10983218677E+02  0.51718897717E+02  0.00000000000E+00 0.  1.
          4    1    6    6  503    0  0.10032845192E+03  0.85636739562E+01 -0.10149476174E+03  0.14296965216E+03  0.00000000000E+00 0. -1.
         -4    1    6    6    0  503  0.26091304968E+03  0.11195460767E+03 -0.13371966027E+03  0.31383180402E+03  0.00000000000E+00 0.  1.
<mgrwt>
<rscale>  0 0.12861388E+04</rscale>
<asrwt>0</asrwt>
<pdfrwt beam="1">  1        2 0.80917174E-01 0.12861388E+04</pdfrwt>
<pdfrwt beam="2">  1       -1 0.12096181E+00 0.12861388E+04</pdfrwt>
<totfact> 0.39535540E+01</totfact>
</mgrwt>
</event>
<event>
12    6  0.1530720E-007  0.1294741E+04  0.7818608E-02  0.9033746E-01
         -1   -1    0    0    0  501 -0.00000000000E+00  0.00000000000E+00  0.85443609887E+03  0.85443609887E+03  0.00000000000E+00 0.  1.
          2   -1    0    0  501    0  0.00000000000E+00 -0.00000000000E+00 -0.49048562952E+03  0.49048562952E+03  0.00000000000E+00 0. -1.
         24    2    1    2    0    0  0.30150527395E+01 -0.30824124114E+03 -0.66360179139E+01  0.31852749630E+03  0.79962340396E+02 0.  0.
        254    2    1    2    0    0 -0.30150527395E+01  0.30824124114E+03  0.37058648726E+03  0.10263942321E+04  0.90616169739E+03 0.  0.
         23    2    4    4    0    0  0.17049225998E+03  0.24826644030E+03 -0.23131111615E+03  0.39059408992E+03  0.91406096812E+02 0.  0.
         23    2    4    4    0    0 -0.17350731272E+03  0.59974800840E+02  0.60189760341E+03  0.63580014216E+03  0.90880864203E+02 0.  0.
          2    1    3    3  502    0  0.14424940365E+02 -0.29048673114E+03 -0.23099932923E+02  0.29176056412E+03  0.00000000000E+00 0. -1.
         -1    1    3    3    0  502 -0.11409887625E+02 -0.17754510000E+02  0.16463915009E+02  0.26766932181E+02  0.00000000000E+00 0.  1.
         11    1    5    5    0    0 -0.98270600492E+01  0.27459931564E+02 -0.28109121150E+02  0.40506069206E+02  0.00000000000E+00 0. -1.
        -11    1    5    5    0    0  0.18031932003E+03  0.22080650874E+03 -0.20320199500E+03  0.35008802071E+03  0.00000000000E+00 0.  1.
          3    1    6    6  503    0 -0.94850034255E+02  0.49344406652E+02  0.20674733981E+03  0.23275708794E+03  0.00000000000E+00 0. -1.
         -3    1    6    6    0  503 -0.78657278466E+02  0.10630394188E+02  0.39515026360E+03  0.40304305422E+03  0.00000000000E+00 0.  1.
<mgrwt>
<rscale>  0 0.12947411E+04</rscale>
<asrwt>0</asrwt>
<pdfrwt beam="1">  1        2 0.75459328E-01 0.12947411E+04</pdfrwt>
<pdfrwt beam="2">  1       -1 0.13145171E+00 0.12947411E+04</pdfrwt>
<totfact> 0.34826016E+01</totfact>
</mgrwt>
</event>
<event>
12    6  0.1530720E-007  0.2020766E+04  0.7818608E-02  0.8596973E-01
         -1   -1    0    0    0  501 -0.00000000000E+00  0.00000000000E+00  0.84541651593E+03  0.84541651593E+03  0.00000000000E+00 0.  1.
          2   -1    0    0  501    0  0.00000000000E+00 -0.00000000000E+00 -0.12075400445E+04  0.12075400445E+04  0.00000000000E+00 0. -1.
         24    2    1    2    0    0 -0.36942227099E+03  0.91194171539E+02 -0.86448444179E+03  0.94785733661E+03  0.79441734915E+02 0.  0.
        254    2    1    2    0    0  0.36942227099E+03 -0.91194171539E+02  0.50236091322E+03  0.11050992238E+04  0.90779326729E+03 0.  0.
         23    2    4    4    0    0  0.56271706251E+02 -0.24240493067E+03 -0.18926244810E+03  0.32553851407E+03  0.90710498521E+02 0.  0.
         23    2    4    4    0    0  0.31315056474E+03  0.15121075913E+03  0.69162336132E+03  0.77956070975E+03  0.91891546865E+02 0.  0.
          4    1    3    3  502    0 -0.34906819899E+03  0.72600892908E+02 -0.83247630994E+03  0.90561377187E+03  0.00000000000E+00 0. -1.
         -3    1    3    3    0  502 -0.20354071995E+02  0.18593278631E+02 -0.32008131848E+02  0.42243564734E+02  0.00000000000E+00 0.  1.
         11    1    5    5    0    0  0.37448152836E+02 -0.19357582176E+03 -0.97623440578E+02  0.22000977040E+03  0.00000000000E+00 0.  1.
        -11    1    5    5    0    0  0.18823553415E+02 -0.48829108913E+02 -0.91639007527E+02  0.10552874367E+03  0.00000000000E+00 0. -1.
          3    1    6    6  503    0  0.53175986045E+02  0.46923449529E+02  0.21865384112E+03  0.22986734836E+03  0.00000000000E+00 0. -1.
         -3    1    6    6    0  503  0.25997457869E+03  0.10428730961E+03  0.47296952021E+03  0.54969336139E+03  0.00000000000E+00 0.  1.
<mgrwt>
<rscale>  0 0.20207665E+04</rscale>
<asrwt>0</asrwt>
<pdfrwt beam="1">  1        2 0.18577539E+00 0.20207665E+04</pdfrwt>
<pdfrwt beam="2">  1       -1 0.13006408E+00 0.20207665E+04</pdfrwt>
<totfact> 0.10041133E+01</totfact>
</mgrwt>
</event>
<event>
12    6  0.1530720E-007  0.2033492E+04  0.7818608E-02  0.8591120E-01
          2   -1    0    0  501    0  0.00000000000E+00  0.00000000000E+00  0.23480255962E+04  0.23480255962E+04  0.00000000000E+00 0. -1.
         -1   -1    0    0    0  501 -0.00000000000E+00 -0.00000000000E+00 -0.44027295833E+03  0.44027295833E+03  0.00000000000E+00 0.  1.
         24    2    1    2    0    0 -0.20661174630E+03  0.70894762950E+03  0.12659558663E+04  0.14677496313E+04  0.79684187404E+02 0.  0.
        254    2    1    2    0    0  0.20661174630E+03 -0.70894762950E+03  0.64179677160E+03  0.13205489232E+04  0.88693359815E+03 0.  0.
         23    2    4    4    0    0 -0.24506231324E+03 -0.17519624385E+03 -0.66166747275E+02  0.32129938112E+03  0.90033286251E+02 0.  0.
         23    2    4    4    0    0  0.45167405954E+03 -0.53375138566E+03  0.70796351887E+03  0.99924954212E+03  0.91582234148E+02 0.  0.
          4    1    3    3  502    0  0.61374136551E+01  0.40185315213E+02  0.79089905912E+02  0.88925477915E+02  0.00000000000E+00 0. -1.
         -3    1    3    3    0  502 -0.21274915996E+03  0.66876231429E+03  0.11868659604E+04  0.13788241534E+04  0.00000000000E+00 0.  1.
         11    1    5    5    0    0 -0.36722048598E+02 -0.43717992668E+00 -0.29095056948E+02  0.46853199660E+02  0.00000000000E+00 0. -1.
        -11    1    5    5    0    0 -0.20834026464E+03 -0.17475906392E+03 -0.37071690327E+02  0.27444618146E+03  0.00000000000E+00 0.  1.
          3    1    6    6  503    0  0.64182434170E+01 -0.48069552389E+01 -0.19833260290E+01  0.82604024942E+01  0.00000000000E+00 0. -1.
         -3    1    6    6    0  503  0.44525581612E+03 -0.52894443042E+03  0.70994684490E+03  0.99098913962E+03  0.00000000000E+00 0.  1.
<mgrwt>
<rscale>  0 0.20334918E+04</rscale>
<asrwt>0</asrwt>
<pdfrwt beam="1">  1        2 0.36123470E+00 0.20334918E+04</pdfrwt>
<pdfrwt beam="2">  1       -1 0.67734303E-01 0.20334918E+04</pdfrwt>
<totfact> 0.99117901E+00</totfact>
</mgrwt>
</event>
<event>
12    6  0.1530720E-007  0.1608314E+04  0.7818608E-02  0.8815456E-01
         -1   -1    0    0    0  501 -0.00000000000E+00  0.00000000000E+00  0.26592887834E+03  0.26592887834E+03  0.00000000000E+00 0.  1.
          2   -1    0    0  501    0  0.00000000000E+00 -0.00000000000E+00 -0.24317357396E+04  0.24317357396E+04  0.00000000000E+00 0. -1.
         24    2    1    2    0    0  0.34448909751E+03  0.41322929031E+03 -0.91303471414E+03  0.10626755656E+04  0.78840242172E+02 0.  0.
        254    2    1    2    0    0 -0.34448909751E+03 -0.41322929031E+03 -0.12527721472E+04  0.16349890524E+04  0.90239678860E+03 0.  0.
         23    2    4    4    0    0 -0.47681343690E+03 -0.41030517156E+03 -0.36577803476E+03  0.73370711747E+03  0.93974337402E+02 0.  0.
         23    2    4    4    0    0  0.13232433940E+03 -0.29241187513E+01 -0.88699411240E+03  0.90128193493E+03  0.89623041247E+02 0.  0.
          2    1    3    3  502    0  0.34714800613E+03  0.39832595312E+03 -0.88219709506E+03  0.10283224288E+04  0.00000000000E+00 0. -1.
         -1    1    3    3    0  502 -0.26589086252E+01  0.14903337192E+02 -0.30837619078E+02  0.34353136755E+02  0.00000000000E+00 0.  1.
         11    1    5    5    0    0 -0.95106163090E+02 -0.12278335451E+03 -0.60705081160E+02  0.16675143562E+03  0.00000000000E+00 0.  1.
        -11    1    5    5    0    0 -0.38170727381E+03 -0.28752181705E+03 -0.30507295360E+03  0.56695568185E+03  0.00000000000E+00 0. -1.
          1    1    6    6  503    0  0.11656521866E+03  0.12960802693E+02 -0.49718129720E+03  0.51082744141E+03  0.00000000000E+00 0. -1.
         -1    1    6    6    0  503  0.15759120741E+02 -0.15884921444E+02 -0.38981281520E+03  0.39045449352E+03  0.00000000000E+00 0.  1.
<mgrwt>
<rscale>  0 0.16083143E+04</rscale>
<asrwt>0</asrwt>
<pdfrwt beam="1">  1        2 0.37411319E+00 0.16083143E+04</pdfrwt>
<pdfrwt beam="2">  1       -1 0.40912135E-01 0.16083143E+04</pdfrwt>
<totfact> 0.24354196E+01</totfact>
</mgrwt>
</event>
<event>
12    6  0.1530720E-007  0.3205064E+04  0.7818608E-02  0.8187481E-01
         -1   -1    0    0    0  501 -0.00000000000E+00  0.00000000000E+00  0.13739459222E+04  0.13739459222E+04  0.00000000000E+00 0.  1.
          2   -1    0    0  501    0  0.00000000000E+00 -0.00000000000E+00 -0.18691489101E+04  0.18691489101E+04  0.00000000000E+00 0. -1.
         24    2    1    2    0    0  0.12223629812E+04  0.65437376120E+03 -0.74592450819E+03  0.15763947900E+04  0.78999272048E+02 0.  0.
        254    2    1    2    0    0 -0.12223629812E+04 -0.65437376120E+03  0.25072152029E+03  0.16667000422E+04  0.89030976240E+03 0.  0.
         23    2    4    4    0    0 -0.21963587470E+03 -0.45598603859E+03  0.37219230504E+03  0.63363966125E+03  0.82516201640E+02 0.  0.
         23    2    4    4    0    0 -0.10027271065E+04 -0.19838772261E+03 -0.12147078475E+03  0.10330603810E+04  0.87402864489E+02 0.  0.
          4    1    3    3  502    0  0.80241527975E+03  0.43862970524E+03 -0.53309759181E+03  0.10585175208E+04  0.00000000000E+00 0. -1.
         -3    1    3    3    0  502  0.41994770141E+03  0.21574405597E+03 -0.21282691638E+03  0.51787726919E+03  0.00000000000E+00 0.  1.
         11    1    5    5    0    0 -0.15003546479E+03 -0.36861712420E+03  0.31832126606E+03  0.50962501251E+03  0.00000000000E+00 0. -1.
        -11    1    5    5    0    0 -0.69600409914E+02 -0.87368914391E+02  0.53871038981E+02  0.12401464874E+03  0.00000000000E+00 0.  1.
          3    1    6    6  503    0 -0.81793734846E+03 -0.17856030625E+03 -0.69502448207E+02  0.84008087664E+03  0.00000000000E+00 0. -1.
         -3    1    6    6    0  503 -0.18478975800E+03 -0.19827416360E+02 -0.51968336548E+02  0.19297950436E+03  0.00000000000E+00 0.  1.
<mgrwt>
<rscale>  0 0.32050644E+04</rscale>
<asrwt>0</asrwt>
<pdfrwt beam="1">  1        2 0.28756137E+00 0.32050644E+04</pdfrwt>
<pdfrwt beam="2">  1       -1 0.21137630E+00 0.32050644E+04</pdfrwt>
<totfact> 0.95180592E-01</totfact>
</mgrwt>
</event>
<event>
12    6  0.1530720E-007  0.1685705E+04  0.7818608E-02  0.8769560E-01
          2   -1    0    0  501    0  0.00000000000E+00  0.00000000000E+00  0.93717876365E+03  0.93717876365E+03  0.00000000000E+00 0. -1.
         -1   -1    0    0    0  501 -0.00000000000E+00 -0.00000000000E+00 -0.75802012878E+03  0.75802012878E+03  0.00000000000E+00 0.  1.
         24    2    1    2    0    0  0.29775006023E+03  0.49536630406E+03 -0.97715981806E+02  0.59158433764E+03  0.79879546014E+02 0.  0.
        254    2    1    2    0    0 -0.29775006023E+03 -0.49536630406E+03  0.27687461668E+03  0.11036145548E+04  0.89847796779E+03 0.  0.
         23    2    4    4    0    0 -0.22112814730E+03  0.19983020864E+03  0.25105152956E+03  0.39799159931E+03  0.80874426217E+02 0.  0.
         23    2    4    4    0    0 -0.76621912931E+02 -0.69519651270E+03  0.25823087123E+02  0.70562295548E+03  0.89821014518E+02 0.  0.
          4    1    3    3  502    0  0.23757857031E+03  0.35650650238E+03 -0.42620472998E+02  0.43053103027E+03  0.00000000000E+00 0. -1.
         -3    1    3    3    0  502  0.60171489922E+02  0.13885980168E+03 -0.55095508808E+02  0.16105330736E+03  0.00000000000E+00 0.  1.
         11    1    5    5    0    0 -0.35892220431E+02  0.77643183617E+02  0.87190893458E+02  0.12214322475E+03  0.00000000000E+00 0.  1.
        -11    1    5    5    0    0 -0.18523592687E+03  0.12218702503E+03  0.16386063610E+03  0.27584837456E+03  0.00000000000E+00 0. -1.
          4    1    6    6  503    0 -0.74628752433E+02 -0.69448208778E+03  0.31879096966E+02  0.69920747833E+03  0.00000000000E+00 0. -1.
         -4    1    6    6    0  503 -0.19931604978E+01 -0.71442492635E+00 -0.60560098434E+01  0.64154771427E+01  0.00000000000E+00 0.  1.
<mgrwt>
<rscale>  0 0.16857050E+04</rscale>
<asrwt>0</asrwt>
<pdfrwt beam="1">  1        2 0.14418135E+00 0.16857050E+04</pdfrwt>
<pdfrwt beam="2">  1       -1 0.11661848E+00 0.16857050E+04</pdfrwt>
<totfact> 0.19977668E+01</totfact>
</mgrwt>
</event>
<event>
12    6  0.1530720E-007  0.1304827E+04  0.7818608E-02  0.9025746E-01
         -1   -1    0    0    0  501 -0.00000000000E+00  0.00000000000E+00  0.27497280658E+03  0.27497280658E+03  0.00000000000E+00 0.  1.
          2   -1    0    0  501    0  0.00000000000E+00 -0.00000000000E+00 -0.15479473247E+04  0.15479473247E+04  0.00000000000E+00 0. -1.
         24    2    1    2    0    0 -0.17207630769E+03  0.24607440529E+03 -0.59939171384E+03  0.67533454876E+03  0.81507407782E+02 0.  0.
        254    2    1    2    0    0  0.17207630769E+03 -0.24607440529E+03 -0.67358280433E+03  0.11475855826E+04  0.87924740910E+03 0.  0.
         23    2    4    4    0    0  0.23360577317E+02  0.17039206315E+03  0.12436411161E+03  0.23060668984E+03  0.90187811738E+02 0.  0.
         23    2    4    4    0    0  0.14871573037E+03 -0.41646646844E+03 -0.79794691595E+03  0.91697889272E+03  0.92576029469E+02 0.  0.
          4    1    3    3  502    0 -0.12893420663E+03  0.11374686964E+03 -0.32769969037E+03  0.37006684134E+03  0.00000000000E+00 0. -1.
         -3    1    3    3    0  502 -0.43142101052E+02  0.13232753565E+03 -0.27169202347E+03  0.30526770742E+03  0.00000000000E+00 0.  1.
         11    1    5    5    0    0 -0.81367416686E+01  0.81469381874E+01 -0.11784518649E+02  0.16475862545E+02  0.00000000000E+00 0. -1.
        -11    1    5    5    0    0  0.31497318986E+02  0.16224512496E+03  0.13614863026E+03  0.21413082730E+03  0.00000000000E+00 0.  1.
          1    1    6    6  503    0  0.57522316678E+02 -0.19216689849E+03 -0.45414024293E+03  0.49646781773E+03  0.00000000000E+00 0.  1.
         -1    1    6    6    0  503  0.91193413690E+02 -0.22429956995E+03 -0.34380667301E+03  0.42051107499E+03  0.00000000000E+00 0. -1.
<mgrwt>
<rscale>  0 0.13048271E+04</rscale>
<asrwt>0</asrwt>
<pdfrwt beam="1">  1        2 0.23814574E+00 0.13048271E+04</pdfrwt>
<pdfrwt beam="2">  1       -1 0.42303508E-01 0.13048271E+04</pdfrwt>
<totfact> 0.73143796E+01</totfact>
</mgrwt>
</event>
<event>
12    6  0.1530720E-007  0.2477961E+04  0.7818608E-02  0.8410880E-01
          2   -1    0    0  501    0  0.00000000000E+00  0.00000000000E+00  0.23835210278E+04  0.23835210278E+04  0.00000000000E+00 0. -1.
         -1   -1    0    0    0  501 -0.00000000000E+00 -0.00000000000E+00 -0.64403549173E+03  0.64403549173E+03  0.00000000000E+00 0.  1.
         24    2    1    2    0    0  0.30258178665E+03  0.34329590118E+03 -0.43065144370E+03  0.63347612428E+03  0.80146869487E+02 0.  0.
        254    2    1    2    0    0 -0.30258178665E+03 -0.34329590118E+03  0.21701369798E+04  0.23940803953E+04  0.90150907627E+03 0.  0.
         23    2    4    4    0    0 -0.23925317803E+03  0.60655339637E+02  0.10069834043E+03  0.28257055564E+03  0.93727315805E+02 0.  0.
         23    2    4    4    0    0 -0.63328608624E+02 -0.40395124081E+03  0.20694386393E+04  0.21115098396E+04  0.93329540663E+02 0.  0.
          4    1    3    3  502    0  0.57107357633E+02  0.53958085529E+02 -0.11829370051E+03  0.14200748174E+03  0.00000000000E+00 0. -1.
         -3    1    3    3    0  502  0.24547442902E+03  0.28933781565E+03 -0.31235774320E+03  0.49146864254E+03  0.00000000000E+00 0.  1.
         11    1    5    5    0    0 -0.52114130320E+02  0.15204511833E+02  0.68362372630E+02  0.87295324907E+02  0.00000000000E+00 0. -1.
        -11    1    5    5    0    0 -0.18713904771E+03  0.45450827804E+02  0.32335967797E+02  0.19527523073E+03  0.00000000000E+00 0.  1.
          1    1    6    6  503    0  0.12147173981E+01 -0.19347413598E+03  0.11440254609E+04  0.11602706460E+04  0.00000000000E+00 0. -1.
         -1    1    6    6    0  503 -0.64543326022E+02 -0.21047710483E+03  0.92541317844E+03  0.95123919359E+03  0.00000000000E+00 0.  1.
<mgrwt>
<rscale>  0 0.24779606E+04</rscale>
<asrwt>0</asrwt>
<pdfrwt beam="1">  1        2 0.36669554E+00 0.24779606E+04</pdfrwt>
<pdfrwt beam="2">  1       -1 0.99082384E-01 0.24779606E+04</pdfrwt>
<totfact> 0.40188053E+00</totfact>
</mgrwt>
</event>
<event>
12    6  0.1530720E-007  0.1929248E+04  0.7818608E-02  0.8640433E-01
         -1   -1    0    0    0  501 -0.00000000000E+00  0.00000000000E+00  0.26227620127E+03  0.26227620127E+03  0.00000000000E+00 0.  1.
          2   -1    0    0  501    0  0.00000000000E+00 -0.00000000000E+00 -0.35477843110E+04  0.35477843110E+04  0.00000000000E+00 0. -1.
         24    2    1    2    0    0 -0.60150235462E+03  0.33567851377E+03 -0.14921869165E+04  0.16454881138E+04  0.80772468697E+02 0.  0.
        254    2    1    2    0    0  0.60150235462E+03 -0.33567851377E+03 -0.17933211932E+04  0.21645723984E+04  0.99744053399E+03 0.  0.
         23    2    4    4    0    0  0.79943530233E+03 -0.25278170862E+03 -0.86418389998E+03  0.12073322276E+04  0.88554503504E+02 0.  0.
         23    2    4    4    0    0 -0.19793294772E+03 -0.82896805155E+02 -0.92913729317E+03  0.95724017075E+03  0.83446406991E+02 0.  0.
          2    1    3    3  502    0 -0.60075088578E+03  0.32941184451E+03 -0.14872481468E+04  0.16374739204E+04  0.00000000000E+00 0. -1.
         -1    1    3    3    0  502 -0.75146883365E+00  0.62666692626E+01 -0.49387697798E+01  0.80141934088E+01  0.00000000000E+00 0.  1.
         11    1    5    5    0    0  0.28020643574E+03 -0.12140331144E+03 -0.27302106502E+03  0.40962777323E+03  0.00000000000E+00 0. -1.
        -11    1    5    5    0    0  0.51922886659E+03 -0.13137839718E+03 -0.59116283496E+03  0.79770445441E+03  0.00000000000E+00 0.  1.
          1    1    6    6  503    0 -0.31325669589E+01 -0.26669112078E+02 -0.87637837193E+02  0.91659396805E+02  0.00000000000E+00 0. -1.
         -1    1    6    6    0  503 -0.19480038076E+03 -0.56227693077E+02 -0.84149945598E+03  0.86558077395E+03  0.00000000000E+00 0.  1.
<mgrwt>
<rscale>  0 0.19292479E+04</rscale>
<asrwt>0</asrwt>
<pdfrwt beam="1">  1        2 0.54581296E+00 0.19292479E+04</pdfrwt>
<pdfrwt beam="2">  1       -1 0.40350185E-01 0.19292479E+04</pdfrwt>
<totfact> 0.48295064E+00</totfact>
</mgrwt>
</event>
<event>
12    6  0.1530720E-007  0.1316910E+04  0.7818608E-02  0.9016262E-01
          2   -1    0    0  501    0  0.00000000000E+00  0.00000000000E+00  0.10769395397E+04  0.10769395397E+04  0.00000000000E+00 0. -1.
         -1   -1    0    0    0  501 -0.00000000000E+00 -0.00000000000E+00 -0.40258802280E+03  0.40258802280E+03  0.00000000000E+00 0.  1.
         24    2    1    2    0    0  0.23719268187E+03 -0.21448725275E+03  0.28693544988E+03  0.43700505582E+03  0.79851840854E+02 0.  0.
        254    2    1    2    0    0 -0.23719268187E+03  0.21448725275E+03  0.38741606703E+03  0.10425225067E+04  0.91350797371E+03 0.  0.
         23    2    4    4    0    0  0.15318033052E+03 -0.25357895919E+03 -0.82188549581E+01  0.31031757490E+03  0.91994268920E+02 0.  0.
         23    2    4    4    0    0 -0.39037301239E+03  0.46806621194E+03  0.39563492199E+03  0.73220493178E+03  0.90111059605E+02 0.  0.
          2    1    3    3  502    0 -0.11913198580E+01 -0.24495999704E+02  0.26021225899E+02  0.35757201257E+02  0.00000000000E+00 0. -1.
         -1    1    3    3    0  502  0.23838400173E+03 -0.18999125305E+03  0.26091422398E+03  0.40124785456E+03  0.00000000000E+00 0.  1.
         11    1    5    5    0    0  0.12901637389E+01 -0.11686897244E+02 -0.21367369816E+02  0.24388779849E+02  0.00000000000E+00 0. -1.
        -11    1    5    5    0    0  0.15189016678E+03 -0.24189206195E+03  0.13148514858E+02  0.28592879505E+03  0.00000000000E+00 0.  1.
          3    1    6    6  503    0 -0.26480314323E+02  0.46246687484E+01  0.17236335621E+02  0.31932520623E+02  0.00000000000E+00 0. -1.
         -3    1    6    6    0  503 -0.36389269807E+03  0.46344154320E+03  0.37839858637E+03  0.70027241116E+03  0.00000000000E+00 0.  1.
<mgrwt>
<rscale>  0 0.13169100E+04</rscale>
<asrwt>0</asrwt>
<pdfrwt beam="1">  1        2 0.16568301E+00 0.13169100E+04</pdfrwt>
<pdfrwt beam="2">  1       -1 0.61936619E-01 0.13169100E+04</pdfrwt>
<totfact> 0.66477715E+01</totfact>
</mgrwt>
</event>
<event>
12    6  0.1530720E-007  0.1488026E+04  0.7818608E-02  0.8892455E-01
          2   -1    0    0  501    0  0.00000000000E+00  0.00000000000E+00  0.26052582615E+04  0.26052582615E+04  0.00000000000E+00 0. -1.
         -1   -1    0    0    0  501 -0.00000000000E+00 -0.00000000000E+00 -0.21247608176E+03  0.21247608176E+03  0.00000000000E+00 0.  1.
         24    2    1    2    0    0 -0.42558088259E+03 -0.20540824788E+03  0.60599785171E+03  0.77314120265E+03  0.84866289138E+02 0.  0.
        254    2    1    2    0    0  0.42558088259E+03  0.20540824788E+03  0.17867843280E+04  0.20445931406E+04  0.87432902266E+03 0.  0.
         23    2    4    4    0    0  0.34563945359E+03 -0.68995616985E+02  0.16914021517E+04  0.17302970767E+04  0.94126021102E+02 0.  0.
         23    2    4    4    0    0  0.79941429003E+02  0.27440386486E+03  0.95382176294E+02  0.31429606388E+03  0.89421155732E+02 0.  0.
          2    1    3    3  502    0 -0.19321766749E+03 -0.50962113304E+02  0.28102361017E+03  0.34482527966E+03  0.00000000000E+00 0. -1.
         -1    1    3    3    0  502 -0.23236321510E+03 -0.15444613457E+03  0.32497424154E+03  0.42831592299E+03  0.00000000000E+00 0.  1.
         11    1    5    5    0    0  0.29546284127E+03 -0.88430810185E+02  0.13580462188E+04  0.13926262353E+04  0.00000000000E+00 0. -1.
        -11    1    5    5    0    0  0.50176612316E+02  0.19435193199E+02  0.33335593293E+03  0.33767084147E+03  0.00000000000E+00 0.  1.
          3    1    6    6  503    0  0.58068432936E+02  0.21618856051E+03  0.11145570214E+03  0.25006361219E+03  0.00000000000E+00 0. -1.
         -3    1    6    6    0  503  0.21872996067E+02  0.58215304351E+02 -0.16073525843E+02  0.64232451694E+02  0.00000000000E+00 0.  1.
<mgrwt>
<rscale>  0 0.14880256E+04</rscale>
<asrwt>0</asrwt>
<pdfrwt beam="1">  1        2 0.40080894E+00 0.14880256E+04</pdfrwt>
<pdfrwt beam="2">  1       -1 0.32688630E-01 0.14880256E+04</pdfrwt>
<totfact> 0.29283435E+01</totfact>
</mgrwt>
</event>
<event>
12    6  0.1530720E-007  0.2142780E+04  0.7818608E-02  0.8542629E-01
         -1   -1    0    0    0  501 -0.00000000000E+00  0.00000000000E+00  0.68583827423E+03  0.68583827423E+03  0.00000000000E+00 0.  1.
          2   -1    0    0  501    0  0.00000000000E+00 -0.00000000000E+00 -0.16736841924E+04  0.16736841924E+04  0.00000000000E+00 0. -1.
         24    2    1    2    0    0  0.50242537163E+03 -0.49872758241E+03  0.16775458672E+03  0.73186875870E+03  0.79560185310E+02 0.  0.
        254    2    1    2    0    0 -0.50242537163E+03  0.49872758241E+03 -0.11556005049E+04  0.16276537080E+04  0.90148966191E+03 0.  0.
         23    2    4    4    0    0 -0.12105566161E+03  0.63727015912E+03 -0.97410934514E+03  0.11733497969E+04  0.84219954560E+02 0.  0.
         23    2    4    4    0    0 -0.38136971001E+03 -0.13854257671E+03 -0.18149115980E+03  0.45430391104E+03  0.93894095795E+02 0.  0.
          2    1    3    3  502    0  0.18542035826E+03 -0.22948887767E+03  0.92572501110E+02  0.30921759684E+03  0.00000000000E+00 0. -1.
         -1    1    3    3    0  502  0.31700501336E+03 -0.26923870474E+03  0.75182085615E+02  0.42265116186E+03  0.00000000000E+00 0.  1.
         11    1    5    5    0    0 -0.11357732385E+03  0.62943247386E+03 -0.93547089805E+03  0.11332214474E+04  0.00000000000E+00 0. -1.
        -11    1    5    5    0    0 -0.74783377625E+01  0.78376852586E+01 -0.38638447093E+02  0.40128349576E+02  0.00000000000E+00 0.  1.
          3    1    6    6  503    0 -0.22333787740E+03 -0.12892409738E+03 -0.10441915918E+03  0.27821680605E+03  0.00000000000E+00 0. -1.
         -3    1    6    6    0  503 -0.15803183262E+03 -0.96184793323E+01 -0.77072000615E+02  0.17608710499E+03  0.00000000000E+00 0.  1.
<mgrwt>
<rscale>  0 0.21427801E+04</rscale>
<asrwt>0</asrwt>
<pdfrwt beam="1">  1        2 0.25748987E+00 0.21427801E+04</pdfrwt>
<pdfrwt beam="2">  1       -1 0.10551358E+00 0.21427801E+04</pdfrwt>
<totfact> 0.89294825E+00</totfact>
</mgrwt>
</event>
<event>
12    6  0.1530720E-007  0.1455753E+04  0.7818608E-02  0.8914422E-01
         -1   -1    0    0    0  501 -0.00000000000E+00  0.00000000000E+00  0.40290649611E+03  0.40290649611E+03  0.00000000000E+00 0.  1.
          2   -1    0    0  501    0  0.00000000000E+00 -0.00000000000E+00 -0.13149554940E+04  0.13149554940E+04  0.00000000000E+00 0. -1.
         24    2    1    2    0    0 -0.31794230438E+03  0.21102880037E+03 -0.11896750130E+02  0.39008449754E+03  0.80024490366E+02 0.  0.
        254    2    1    2    0    0  0.31794230438E+03 -0.21102880037E+03 -0.90015224778E+03  0.13277774926E+04  0.89838663009E+03 0.  0.
         23    2    4    4    0    0  0.60235609698E+03 -0.47948139362E+02 -0.42884478813E+03  0.74622212330E+03  0.88361266220E+02 0.  0.
         23    2    4    4    0    0 -0.28441379260E+03 -0.16308066101E+03 -0.47130745965E+03  0.58155536928E+03  0.92679116301E+02 0.  0.
          4    1    3    3  502    0 -0.17503581186E+03  0.70075461481E+02 -0.16902046193E+02  0.18929813760E+03  0.00000000000E+00 0. -1.
         -3    1    3    3    0  502 -0.14290649253E+03  0.14095333889E+03  0.50052960621E+01  0.20078635994E+03  0.00000000000E+00 0.  1.
         11    1    5    5    0    0  0.33235422179E+03 -0.18372926706E+02 -0.28851135240E+03  0.44049482816E+03  0.00000000000E+00 0.  1.
        -11    1    5    5    0    0  0.27000187519E+03 -0.29575212655E+02 -0.14033343573E+03  0.30572729514E+03  0.00000000000E+00 0. -1.
          4    1    6    6  503    0 -0.23551468966E+03 -0.16687650072E+03 -0.42733077237E+03  0.51568064201E+03  0.00000000000E+00 0. -1.
         -4    1    6    6    0  503 -0.48899102938E+02  0.37958397141E+01 -0.43976687285E+02  0.65874727262E+02  0.00000000000E+00 0.  1.
<mgrwt>
<rscale>  0 0.14557529E+04</rscale>
<asrwt>0</asrwt>
<pdfrwt beam="1">  1        2 0.20230085E+00 0.14557529E+04</pdfrwt>
<pdfrwt beam="2">  1       -1 0.61985615E-01 0.14557529E+04</pdfrwt>
<totfact> 0.47262463E+01</totfact>
</mgrwt>
</event>
<event>
12    6  0.1530720E-007  0.1683416E+04  0.7818608E-02  0.8770880E-01
         -1   -1    0    0    0  501 -0.00000000000E+00  0.00000000000E+00  0.21859874758E+04  0.21859874758E+04  0.00000000000E+00 0.  1.
          2   -1    0    0  501    0  0.00000000000E+00 -0.00000000000E+00 -0.32409721765E+03  0.32409721765E+03  0.00000000000E+00 0. -1.
         24    2    1    2    0    0  0.18724988464E+03  0.50071835491E+03  0.37515987891E+03  0.65762991748E+03  0.77141320816E+02 0.  0.
        254    2    1    2    0    0 -0.18724988464E+03 -0.50071835491E+03  0.14867303792E+04  0.18524547760E+04  0.96718151667E+03 0.  0.
         23    2    4    4    0    0  0.17940928523E+03 -0.30479799877E+03  0.13596982531E+04  0.14080824855E+04  0.93954428788E+02 0.  0.
         23    2    4    4    0    0 -0.36665916987E+03 -0.19592035614E+03  0.12703212612E+03  0.44437229049E+03  0.92227103848E+02 0.  0.
          2    1    3    3  502    0  0.11364209658E+03  0.25996607527E+03  0.15561125593E+03  0.32359194888E+03  0.00000000000E+00 0. -1.
         -1    1    3    3    0  502  0.73607788065E+02  0.24075227964E+03  0.21954862298E+03  0.33403796860E+03  0.00000000000E+00 0.  1.
         11    1    5    5    0    0  0.14922583974E+03 -0.19255703155E+03  0.10326207287E+04  0.10609675447E+04  0.00000000000E+00 0. -1.
        -11    1    5    5    0    0  0.30183445485E+02 -0.11224096722E+03  0.32707752445E+03  0.34711494077E+03  0.00000000000E+00 0.  1.
          3    1    6    6  503    0 -0.10116198450E+03 -0.19726513266E+02  0.58256154364E+02  0.11839198433E+03  0.00000000000E+00 0.  1.
         -3    1    6    6    0  503 -0.26549718538E+03 -0.17619384288E+03  0.68775971755E+02  0.32598030616E+03  0.00000000000E+00 0. -1.
<mgrwt>
<rscale>  0 0.16834161E+04</rscale>
<asrwt>0</asrwt>
<pdfrwt beam="1">  1        2 0.49861112E-01 0.16834161E+04</pdfrwt>
<pdfrwt beam="2">  1       -1 0.33630576E+00 0.16834161E+04</pdfrwt>
<totfact> 0.21073194E+00</totfact>
</mgrwt>
</event>
<event>
12    6  0.1530720E-007  0.1906361E+04  0.7818608E-02  0.8651696E-01
          2   -1    0    0  501    0  0.00000000000E+00  0.00000000000E+00  0.11844736003E+04  0.11844736003E+04  0.00000000000E+00 0. -1.
         -1   -1    0    0    0  501 -0.00000000000E+00 -0.00000000000E+00 -0.76705254161E+03  0.76705254161E+03  0.00000000000E+00 0.  1.
         24    2    1    2    0    0 -0.38640978606E+03  0.17966261071E+03  0.78292555171E+03  0.89546879111E+03  0.85444484210E+02 0.  0.
        254    2    1    2    0    0  0.38640978606E+03 -0.17966261071E+03 -0.36550449297E+03  0.10560573508E+04  0.89446767266E+03 0.  0.
         23    2    4    4    0    0 -0.15392770611E+03 -0.32147139522E+03  0.24730419418E+02  0.36893702527E+03  0.92007273203E+02 0.  0.
         23    2    4    4    0    0  0.54033749217E+03  0.14180878451E+03 -0.39023491239E+03  0.68712032557E+03  0.88185702709E+02 0.  0.
          4    1    3    3  502    0 -0.16046644493E+03  0.10742429773E+03  0.41464459769E+03  0.45740529302E+03  0.00000000000E+00 0. -1.
         -3    1    3    3    0  502 -0.22594334113E+03  0.72238312980E+02  0.36828095402E+03  0.43806349809E+03  0.00000000000E+00 0.  1.
         11    1    5    5    0    0 -0.10827364229E+03 -0.12051072140E+03  0.12781934031E+02  0.16250967179E+03  0.00000000000E+00 0.  1.
        -11    1    5    5    0    0 -0.45654063818E+02 -0.20096067381E+03  0.11948485387E+02  0.20642735348E+03  0.00000000000E+00 0. -1.
          1    1    6    6  503    0  0.74600328134E+02  0.47650272893E+02 -0.41772787945E+02  0.97881169165E+02  0.00000000000E+00 0. -1.
         -1    1    6    6    0  503  0.46573716403E+03  0.94158511613E+02 -0.34846212444E+03  0.58923915640E+03  0.00000000000E+00 0.  1.
<mgrwt>
<rscale>  0 0.19063614E+04</rscale>
<asrwt>0</asrwt>
<pdfrwt beam="1">  1        2 0.18222671E+00 0.19063614E+04</pdfrwt>
<pdfrwt beam="2">  1       -1 0.11800808E+00 0.19063614E+04</pdfrwt>
<totfact> 0.13322614E+01</totfact>
</mgrwt>
</event>
<event>
12    6  0.1530720E-007  0.1106212E+04  0.7818608E-02  0.9199159E-01
         -1   -1    0    0    0  501 -0.00000000000E+00  0.00000000000E+00  0.47403197084E+03  0.47403197084E+03  0.00000000000E+00 0.  1.
          2   -1    0    0  501    0  0.00000000000E+00 -0.00000000000E+00 -0.64537008797E+03  0.64537008797E+03  0.00000000000E+00 0. -1.
         24    2    1    2    0    0 -0.29082145661E+02  0.13322058915E+03 -0.12301024720E+03  0.19954961059E+03  0.78070670563E+02 0.  0.
        254    2    1    2    0    0  0.29082145661E+02 -0.13322058915E+03 -0.48327869938E+02  0.91985244822E+03  0.90840489150E+03 0.  0.
         23    2    4    4    0    0 -0.26767003722E+03 -0.73168846491E+02 -0.36835507037E+03  0.47007501803E+03  0.91017228011E+02 0.  0.
         23    2    4    4    0    0  0.29675218288E+03 -0.60051742657E+02  0.32002720043E+03  0.44977743018E+03  0.90632542988E+02 0.  0.
          4    1    3    3  502    0 -0.14943558556E+02  0.52649915352E+02 -0.10094051397E+03  0.11482295454E+03  0.00000000000E+00 0. -1.
         -3    1    3    3    0  502 -0.14138587105E+02  0.80570673796E+02 -0.22069733233E+02  0.84726656055E+02  0.00000000000E+00 0.  1.
         11    1    5    5    0    0 -0.27263702873E+03 -0.76843666063E+02 -0.36725079518E+03  0.46379849613E+03  0.00000000000E+00 0. -1.
        -11    1    5    5    0    0  0.49669915113E+01  0.36748195723E+01 -0.11042751834E+01  0.62765219065E+01  0.00000000000E+00 0.  1.
          1    1    6    6  503    0  0.21197453788E+03 -0.72970919327E+01  0.24982264196E+03  0.32771604278E+03  0.00000000000E+00 0. -1.
         -1    1    6    6    0  503  0.84777644999E+02 -0.52754650725E+02  0.70204558464E+02  0.12206138740E+03  0.00000000000E+00 0.  1.
<mgrwt>
<rscale>  0 0.11062117E+04</rscale>
<asrwt>0</asrwt>
<pdfrwt beam="1">  1        2 0.99287706E-01 0.11062117E+04</pdfrwt>
<pdfrwt beam="2">  1       -1 0.72927995E-01 0.11062117E+04</pdfrwt>
<totfact> 0.97544686E+01</totfact>
</mgrwt>
</event>
<event>
12    6  0.1530720E-007  0.1431971E+04  0.7818608E-02  0.8930996E-01
         -1   -1    0    0    0  501 -0.00000000000E+00  0.00000000000E+00  0.26637105928E+03  0.26637105928E+03  0.00000000000E+00 0.  1.
          2   -1    0    0  501    0  0.00000000000E+00 -0.00000000000E+00 -0.19245165867E+04  0.19245165867E+04  0.00000000000E+00 0. -1.
         24    2    1    2    0    0  0.33636444544E+02  0.38842300580E+02 -0.11564611969E+04  0.11602659408E+04  0.78577470194E+02 0.  0.
        254    2    1    2    0    0 -0.33636444544E+02 -0.38842300580E+02 -0.50168433056E+03  0.10306217052E+04  0.89880687411E+03 0.  0.
         23    2    4    4    0    0  0.12557310621E+03  0.12685246613E+03  0.20216731279E+03  0.28457510838E+03  0.90836208551E+02 0.  0.
         23    2    4    4    0    0 -0.15920955075E+03 -0.16569476671E+03 -0.70385164335E+03  0.74604659680E+03  0.91520227217E+02 0.  0.
          2    1    3    3  502    0 -0.33099171923E+01  0.67872610652E+01 -0.84110236481E+03  0.84113626158E+03  0.00000000000E+00 0. -1.
         -1    1    3    3    0  502  0.36946361737E+02  0.32055039515E+02 -0.31535883205E+03  0.31912967921E+03  0.00000000000E+00 0.  1.
         11    1    5    5    0    0  0.12873413558E+03  0.10667951347E+03  0.20436081413E+03  0.26403851728E+03  0.00000000000E+00 0. -1.
        -11    1    5    5    0    0 -0.31610293670E+01  0.20172952661E+02 -0.21935013452E+01  0.20536591097E+02  0.00000000000E+00 0.  1.
          3    1    6    6  503    0 -0.12973210661E+03 -0.12875369846E+03 -0.64591963049E+03  0.67128243192E+03  0.00000000000E+00 0. -1.
         -3    1    6    6    0  503 -0.29477444147E+02 -0.36941068246E+02 -0.57932012856E+02  0.74764164879E+02  0.00000000000E+00 0.  1.
<mgrwt>
<rscale>  0 0.14319714E+04</rscale>
<asrwt>0</asrwt>
<pdfrwt beam="1">  1        2 0.29607947E+00 0.14319714E+04</pdfrwt>
<pdfrwt beam="2">  1       -1 0.40980163E-01 0.14319714E+04</pdfrwt>
<totfact> 0.47440778E+01</totfact>
</mgrwt>
</event>
<event>
12    6  0.1530720E-007  0.3462322E+04  0.7818608E-02  0.8122778E-01
          2   -1    0    0  501    0  0.00000000000E+00  0.00000000000E+00  0.36862142871E+04  0.36862142871E+04  0.00000000000E+00 0. -1.
         -1   -1    0    0    0  501 -0.00000000000E+00 -0.00000000000E+00 -0.81300702009E+03  0.81300702009E+03  0.00000000000E+00 0.  1.
         24    2    1    2    0    0  0.10566007086E+04 -0.67369102100E+02  0.29211031622E+04  0.31080991515E+04  0.80579139594E+02 0.  0.
        254    2    1    2    0    0 -0.10566007086E+04  0.67369102100E+02 -0.47895895169E+02  0.13911221557E+04  0.90110109423E+03 0.  0.
         23    2    4    4    0    0 -0.65750731320E+03 -0.28434717504E+03 -0.31586801039E+03  0.78835972355E+03  0.92570356285E+02 0.  0.
         23    2    4    4    0    0 -0.39909339543E+03  0.35171627714E+03  0.26797211522E+03  0.60276243219E+03  0.92377579768E+02 0.  0.
          4    1    3    3  502    0  0.88261702437E+03 -0.37187552851E+02  0.24991132186E+04  0.26506532413E+04  0.00000000000E+00 0. -1.
         -3    1    3    3    0  502  0.17398368426E+03 -0.30181549249E+02  0.42198994357E+03  0.45744591022E+03  0.00000000000E+00 0.  1.
         11    1    5    5    0    0 -0.53994801660E+03 -0.23284345053E+03 -0.29657363306E+03  0.65857106899E+03  0.00000000000E+00 0. -1.
        -11    1    5    5    0    0 -0.11755929660E+03 -0.51503724505E+02 -0.19294377328E+02  0.12978865456E+03  0.00000000000E+00 0.  1.
          3    1    6    6  503    0 -0.37778536516E+03  0.34048114084E+03  0.27433383424E+03  0.57784794021E+03  0.00000000000E+00 0. -1.
         -3    1    6    6    0  503 -0.21308030274E+02  0.11235136303E+02 -0.63617190212E+01  0.24914491984E+02  0.00000000000E+00 0.  1.
<mgrwt>
<rscale>  0 0.34623218E+04</rscale>
<asrwt>0</asrwt>
<pdfrwt beam="1">  1        2 0.56710988E+00 0.34623218E+04</pdfrwt>
<pdfrwt beam="2">  1       -1 0.12507801E+00 0.34623218E+04</pdfrwt>
<totfact> 0.31177158E-01</totfact>
</mgrwt>
</event>
<event>
12    6  0.1530720E-007  0.1616658E+04  0.7818608E-02  0.8810379E-01
         -1   -1    0    0    0  501 -0.00000000000E+00  0.00000000000E+00  0.31862533208E+03  0.31862533208E+03  0.00000000000E+00 0.  1.
          2   -1    0    0  501    0  0.00000000000E+00 -0.00000000000E+00 -0.20506700539E+04  0.20506700539E+04  0.00000000000E+00 0. -1.
         24    2    1    2    0    0  0.41657198680E+03 -0.18329300866E+03 -0.13866490277E+03  0.48304950095E+03  0.83548296787E+02 0.  0.
        254    2    1    2    0    0 -0.41657198680E+03  0.18329300866E+03 -0.15933798190E+04  0.18862458850E+04  0.90107477149E+03 0.  0.
         23    2    4    4    0    0 -0.18804538582E+03  0.34825138515E+03 -0.18248747140E+03  0.44466839176E+03  0.88250818872E+02 0.  0.
         23    2    4    4    0    0 -0.22852660098E+03 -0.16495837648E+03 -0.14108923476E+04  0.14415774933E+04  0.89959874895E+02 0.  0.
          4    1    3    3  502    0  0.23598061036E+03 -0.62764079442E+02 -0.92221976774E+02  0.26101929265E+03  0.00000000000E+00 0. -1.
         -3    1    3    3    0  502  0.18059137644E+03 -0.12052892922E+03 -0.46442925997E+02  0.22203020830E+03  0.00000000000E+00 0.  1.
         11    1    5    5    0    0 -0.35967486845E+02  0.15714165357E+02 -0.24986190717E+02  0.46528537795E+02  0.00000000000E+00 0. -1.
        -11    1    5    5    0    0 -0.15207789898E+03  0.33253721979E+03 -0.15750128068E+03  0.39813985397E+03  0.00000000000E+00 0.  1.
          4    1    6    6  503    0 -0.19803884676E+03 -0.11036077484E+03 -0.96218493461E+03  0.98853362808E+03  0.00000000000E+00 0. -1.
         -4    1    6    6    0  503 -0.30487754213E+02 -0.54597601647E+02 -0.44870741303E+03  0.45304386518E+03  0.00000000000E+00 0.  1.
<mgrwt>
<rscale>  0 0.16166576E+04</rscale>
<asrwt>0</asrwt>
<pdfrwt beam="1">  1        2 0.31548770E+00 0.16166576E+04</pdfrwt>
<pdfrwt beam="2">  1       -1 0.49019282E-01 0.16166576E+04</pdfrwt>
<totfact> 0.28474142E+01</totfact>
</mgrwt>
</event>
<event>
12    6  0.1530720E-007  0.1298266E+04  0.7818608E-02  0.9030941E-01
          2   -1    0    0  501    0  0.00000000000E+00  0.00000000000E+00  0.12700366216E+04  0.12700366216E+04  0.00000000000E+00 0. -1.
         -1   -1    0    0    0  501 -0.00000000000E+00 -0.00000000000E+00 -0.33178066020E+03  0.33178066020E+03  0.00000000000E+00 0.  1.
         24    2    1    2    0    0  0.90139476846E+02  0.42897476807E+02  0.64456789742E+03  0.65690422660E+03  0.78038898939E+02 0.  0.
        254    2    1    2    0    0 -0.90139476846E+02 -0.42897476807E+02  0.29368806402E+03  0.94491305523E+03  0.89254842120E+03 0.  0.
         23    2    4    4    0    0 -0.44495934585E+03 -0.12308104904E+03  0.34530425347E+01  0.47086388575E+03  0.92537080737E+02 0.  0.
         23    2    4    4    0    0  0.35481986900E+03  0.80183572237E+02  0.29023502148E+03  0.47404916947E+03  0.90331072653E+02 0.  0.
          4    1    3    3  502    0  0.75560255014E+02  0.39023981770E+02  0.63071806633E+03  0.63642556712E+03  0.00000000000E+00 0. -1.
         -3    1    3    3    0  502  0.14579221832E+02  0.38734950373E+01  0.13849831084E+02  0.20478659480E+02  0.00000000000E+00 0.  1.
         11    1    5    5    0    0 -0.11462444379E+03 -0.73338519668E+02  0.12759626639E+02  0.13667519765E+03  0.00000000000E+00 0. -1.
        -11    1    5    5    0    0 -0.33033490206E+03 -0.49742529376E+02 -0.93065841039E+01  0.33418868810E+03  0.00000000000E+00 0.  1.
          4    1    6    6  503    0  0.10919861540E+03  0.23332436424E+02  0.14527500723E+03  0.18323091421E+03  0.00000000000E+00 0. -1.
         -4    1    6    6    0  503  0.24562125360E+03  0.56851135812E+02  0.14496001425E+03  0.29081825526E+03  0.00000000000E+00 0.  1.
<mgrwt>
<rscale>  0 0.12982659E+04</rscale>
<asrwt>0</asrwt>
<pdfrwt beam="1">  1        2 0.19539025E+00 0.12982659E+04</pdfrwt>
<pdfrwt beam="2">  1       -1 0.51043179E-01 0.12982659E+04</pdfrwt>
<totfact> 0.74204449E+01</totfact>
</mgrwt>
</event>
<event>
12    6  0.1530720E-007  0.1642513E+04  0.7818608E-02  0.8794848E-01
          2   -1    0    0  501    0  0.00000000000E+00  0.00000000000E+00  0.14070366892E+04  0.14070366892E+04  0.00000000000E+00 0. -1.
         -1   -1    0    0    0  501 -0.00000000000E+00 -0.00000000000E+00 -0.47934933665E+03  0.47934933665E+03  0.00000000000E+00 0.  1.
         24    2    1    2    0    0 -0.37605111802E+03 -0.27618727404E+03 -0.46939681001E+02  0.47678931307E+03  0.86202446055E+02 0.  0.
        254    2    1    2    0    0  0.37605111802E+03  0.27618727404E+03  0.97462703355E+03  0.14095967128E+04  0.90519124190E+03 0.  0.
         23    2    4    4    0    0 -0.29245983556E+02 -0.29477688923E+03  0.25047625661E+03  0.39822643263E+03  0.89984412745E+02 0.  0.
         23    2    4    4    0    0  0.40529710157E+03  0.57096416327E+03  0.72415077694E+03  0.10113702801E+04  0.90607281838E+02 0.  0.
          2    1    3    3  502    0 -0.12945937206E+02 -0.28997000181E+02  0.11257169842E+02  0.33691945365E+02  0.00000000000E+00 0. -1.
         -1    1    3    3    0  502 -0.36310518081E+03 -0.24719027386E+03 -0.58196850843E+02  0.44309736771E+03  0.00000000000E+00 0.  1.
         11    1    5    5    0    0  0.91373792156E+01 -0.11506710781E+03  0.14843066661E+03  0.18803083202E+03  0.00000000000E+00 0.  1.
        -11    1    5    5    0    0 -0.38383362771E+02 -0.17970978143E+03  0.10204559000E+03  0.21019560061E+03  0.00000000000E+00 0. -1.
          1    1    6    6  503    0  0.19816401436E+03  0.28429521339E+03  0.42320410053E+03  0.54698670519E+03  0.00000000000E+00 0. -1.
         -1    1    6    6    0  503  0.20713308721E+03  0.28666894989E+03  0.30094667641E+03  0.46438357495E+03  0.00000000000E+00 0.  1.
<mgrwt>
<rscale>  0 0.16425128E+04</rscale>
<asrwt>0</asrwt>
<pdfrwt beam="1">  1        2 0.21646718E+00 0.16425128E+04</pdfrwt>
<pdfrwt beam="2">  1       -1 0.73746052E-01 0.16425128E+04</pdfrwt>
<totfact> 0.28925546E+01</totfact>
</mgrwt>
</event>
<event>
12    6  0.1530720E-007  0.1729956E+04  0.7818608E-02  0.8744462E-01
          2   -1    0    0  501    0  0.00000000000E+00  0.00000000000E+00  0.62037432354E+03  0.62037432354E+03  0.00000000000E+00 0. -1.
         -1   -1    0    0    0  501 -0.00000000000E+00 -0.00000000000E+00 -0.12060243464E+04  0.12060243464E+04  0.00000000000E+00 0.  1.
         24    2    1    2    0    0  0.19383589831E+03  0.80070000506E+02  0.41072944902E+03  0.46815600161E+03  0.80546887510E+02 0.  0.
        254    2    1    2    0    0 -0.19383589831E+03 -0.80070000506E+02 -0.99637947184E+03  0.13582426683E+04  0.89892576647E+03 0.  0.
         23    2    4    4    0    0 -0.29703325893E+03  0.33978533615E+03 -0.64962890119E+03  0.79672215949E+03  0.95213752064E+02 0.  0.
         23    2    4    4    0    0  0.10319736062E+03 -0.41985533665E+03 -0.34675057065E+03  0.56152050881E+03  0.90228180822E+02 0.  0.
          4    1    3    3  502    0  0.14540406863E+03  0.53097761291E+02  0.36437841666E+03  0.39589562508E+03  0.00000000000E+00 0. -1.
         -3    1    3    3    0  502  0.48431829682E+02  0.26972239215E+02  0.46351032365E+02  0.72260376528E+02  0.00000000000E+00 0.  1.
         11    1    5    5    0    0 -0.20228399522E+03  0.23414107970E+03 -0.51679512712E+03  0.60234380825E+03  0.00000000000E+00 0. -1.
        -11    1    5    5    0    0 -0.94749263712E+02  0.10564425645E+03 -0.13283377407E+03  0.19437835124E+03  0.00000000000E+00 0.  1.
          2    1    6    6  503    0  0.11129358754E+03 -0.40817376017E+03 -0.31736647010E+03  0.52887953020E+03  0.00000000000E+00 0. -1.
         -2    1    6    6    0  503 -0.80962269231E+01 -0.11681576479E+02 -0.29384100551E+02  0.32640978610E+02  0.00000000000E+00 0.  1.
<mgrwt>
<rscale>  0 0.17299555E+04</rscale>
<asrwt>0</asrwt>
<pdfrwt beam="1">  1        2 0.95442205E-01 0.17299555E+04</pdfrwt>
<pdfrwt beam="2">  1       -1 0.18554220E+00 0.17299555E+04</pdfrwt>
<totfact> 0.98089737E+00</totfact>
</mgrwt>
</event>
<event>
12    6  0.1530720E-007  0.2058681E+04  0.7818608E-02  0.8579666E-01
         -1   -1    0    0    0  501 -0.00000000000E+00  0.00000000000E+00  0.41064997410E+03  0.41064997410E+03  0.00000000000E+00 0.  1.
          2   -1    0    0  501    0  0.00000000000E+00 -0.00000000000E+00 -0.25801577751E+04  0.25801577751E+04  0.00000000000E+00 0. -1.
         24    2    1    2    0    0 -0.46092535576E+03  0.26743187109E+03 -0.17897507853E+04  0.18690395545E+04  0.78287890194E+02 0.  0.
        254    2    1    2    0    0  0.46092535576E+03 -0.26743187109E+03 -0.37975701569E+03  0.11217681946E+04  0.91114022096E+03 0.  0.
         23    2    4    4    0    0 -0.82126606974E+02 -0.42070543340E+03 -0.76921279313E+01  0.43966000202E+03  0.97487985335E+02 0.  0.
         23    2    4    4    0    0  0.54305196273E+03  0.15327356231E+03 -0.37206488776E+03  0.68210819261E+03  0.91875386204E+02 0.  0.
          4    1    3    3  502    0 -0.37627133488E+03  0.19424952588E+03 -0.14930579839E+04  0.15519455980E+04  0.00000000000E+00 0. -1.
         -3    1    3    3    0  502 -0.84654020875E+02  0.73182345214E+02 -0.29669280133E+03  0.31709395652E+03  0.00000000000E+00 0.  1.
         11    1    5    5    0    0 -0.54857348201E+02 -0.36878198707E+03 -0.35930913431E+02  0.37456710103E+03  0.00000000000E+00 0. -1.
        -11    1    5    5    0    0 -0.27269258773E+02 -0.51923446328E+02  0.28238785499E+02  0.65092900989E+02  0.00000000000E+00 0.  1.
          4    1    6    6  503    0  0.54570124075E+03  0.15591402068E+03 -0.36719191149E+03  0.67596518095E+03  0.00000000000E+00 0. -1.
         -4    1    6    6    0  503 -0.26492780162E+01 -0.26404583759E+01 -0.48729762716E+01  0.61430116543E+01  0.00000000000E+00 0.  1.
<mgrwt>
<rscale>  0 0.20586809E+04</rscale>
<asrwt>0</asrwt>
<pdfrwt beam="1">  1        2 0.39694735E+00 0.20586809E+04</pdfrwt>
<pdfrwt beam="2">  1       -1 0.63176919E-01 0.20586809E+04</pdfrwt>
<totfact> 0.83648865E+00</totfact>
</mgrwt>
</event>
<event>
12    6  0.1530720E-007  0.1873470E+04  0.7818608E-02  0.8668176E-01
         -1   -1    0    0    0  501 -0.00000000000E+00  0.00000000000E+00  0.29349921932E+03  0.29349921932E+03  0.00000000000E+00 0.  1.
          2   -1    0    0  501    0  0.00000000000E+00 -0.00000000000E+00 -0.29896931231E+04  0.29896931231E+04  0.00000000000E+00 0. -1.
         24    2    1    2    0    0  0.31709336606E+03  0.64450682274E+03 -0.12304063908E+04  0.14269946427E+04  0.80477178433E+02 0.  0.
        254    2    1    2    0    0 -0.31709336606E+03 -0.64450682274E+03 -0.14657875130E+04  0.18561976998E+04  0.88374182888E+03 0.  0.
         23    2    4    4    0    0 -0.20068744495E+03 -0.79535280022E+02  0.42407273709E+02  0.23937057744E+03  0.94332312352E+02 0.  0.
         23    2    4    4    0    0 -0.11640592111E+03 -0.56497154271E+03 -0.15081947867E+04  0.16168271223E+04  0.82068546833E+02 0.  0.
          4    1    3    3  502    0  0.58708644705E+02  0.68385168490E+02 -0.18299485757E+03  0.20398616161E+03  0.00000000000E+00 0. -1.
         -3    1    3    3    0  502  0.25838472135E+03  0.57612165425E+03 -0.10474115333E+04  0.12230084811E+04  0.00000000000E+00 0.  1.
         11    1    5    5    0    0 -0.19437601141E+03 -0.96623950404E+02  0.42315580361E+02  0.22115340817E+03  0.00000000000E+00 0.  1.
        -11    1    5    5    0    0 -0.63114335406E+01  0.17088670382E+02  0.91693347525E-01  0.18217169276E+02  0.00000000000E+00 0. -1.
          3    1    6    6  503    0  0.97375275910E+01 -0.64886254377E+02 -0.20686680587E+03  0.21702285783E+03  0.00000000000E+00 0. -1.
         -3    1    6    6    0  503 -0.12614344870E+03 -0.50008528834E+03 -0.13013279808E+04  0.13998042645E+04  0.00000000000E+00 0.  1.
<mgrwt>
<rscale>  0 0.18734701E+04</rscale>
<asrwt>0</asrwt>
<pdfrwt beam="1">  1        2 0.45995277E+00 0.18734701E+04</pdfrwt>
<pdfrwt beam="2">  1       -1 0.45153728E-01 0.18734701E+04</pdfrwt>
<totfact> 0.92178612E+00</totfact>
</mgrwt>
</event>
<event>
12    6  0.1530720E-007  0.1881042E+04  0.7818608E-02  0.8664351E-01
         -1   -1    0    0    0  501 -0.00000000000E+00  0.00000000000E+00  0.18884675853E+04  0.18884675853E+04  0.00000000000E+00 0.  1.
          2   -1    0    0  501    0  0.00000000000E+00 -0.00000000000E+00 -0.46841117151E+03  0.46841117151E+03  0.00000000000E+00 0. -1.
         24    2    1    2    0    0 -0.11950812845E+03 -0.42048385503E+03 -0.17018491498E+03  0.47969338542E+03  0.10026950494E+03 0.  0.
        254    2    1    2    0    0  0.11950812845E+03  0.42048385503E+03  0.15902413288E+04  0.18771853714E+04  0.89658717910E+03 0.  0.
         23    2    4    4    0    0  0.29343619191E+03  0.53904507257E+02  0.13729868728E+04  0.14080457508E+04  0.92137878900E+02 0.  0.
         23    2    4    4    0    0 -0.17392806346E+03  0.36657934778E+03  0.21725445595E+03  0.46913962061E+03  0.90890568939E+02 0.  0.
          4    1    3    3  502    0 -0.13420218650E+03 -0.35063255784E+03 -0.15777567033E+03  0.40724265447E+03  0.00000000000E+00 0. -1.
         -1    1    3    3    0  502  0.14694058048E+02 -0.69851297198E+02 -0.12409244656E+02  0.72450730950E+02  0.00000000000E+00 0.  1.
         11    1    5    5    0    0  0.28135736049E+03  0.71735488833E+02  0.12938971573E+04  0.13260760907E+04  0.00000000000E+00 0. -1.
        -11    1    5    5    0    0  0.12078831424E+02 -0.17830981576E+02  0.79089715499E+02  0.81969660059E+02  0.00000000000E+00 0.  1.
          1    1    6    6  503    0 -0.16080026259E+03  0.33806043138E+03  0.16707016794E+03  0.40994392388E+03  0.00000000000E+00 0. -1.
         -1    1    6    6    0  503 -0.13127800872E+02  0.28518916400E+02  0.50184288011E+02  0.59195696732E+02  0.00000000000E+00 0.  1.
<mgrwt>
<rscale>  0 0.18810415E+04</rscale>
<asrwt>0</asrwt>
<pdfrwt beam="1">  1        2 0.72063258E-01 0.18810415E+04</pdfrwt>
<pdfrwt beam="2">  1       -1 0.29053347E+00 0.18810415E+04</pdfrwt>
<totfact> 0.27098676E+00</totfact>
</mgrwt>
</event>
<event>
12    6  0.1530720E-007  0.1338742E+04  0.7818608E-02  0.8999394E-01
          2   -1    0    0  501    0  0.00000000000E+00  0.00000000000E+00  0.15387640832E+04  0.15387640832E+04  0.00000000000E+00 0. -1.
         -1   -1    0    0    0  501 -0.00000000000E+00 -0.00000000000E+00 -0.29118009220E+03  0.29118009220E+03  0.00000000000E+00 0.  1.
         24    2    1    2    0    0  0.32745658081E+03 -0.12875237574E+03  0.51023235983E+03  0.62512084343E+03  0.81449501518E+02 0.  0.
        254    2    1    2    0    0 -0.32745658081E+03  0.12875237574E+03  0.73735163115E+03  0.12048233320E+04  0.88549807831E+03 0.  0.
         23    2    4    4    0    0  0.26846242140E+03 -0.10772220156E+03  0.20005134015E+03  0.36321202242E+03  0.90698898139E+02 0.  0.
         23    2    4    4    0    0 -0.59591900221E+03  0.23647457730E+03  0.53730029100E+03  0.84161130953E+03  0.92619170342E+02 0.  0.
          2    1    3    3  502    0  0.22340251048E+03 -0.71508067897E+02  0.39647530996E+03  0.46066772936E+03  0.00000000000E+00 0. -1.
         -1    1    3    3    0  502  0.10405407033E+03 -0.57244307841E+02  0.11375704986E+03  0.16445311407E+03  0.00000000000E+00 0.  1.
         11    1    5    5    0    0  0.85393352223E+02 -0.67998841955E+02  0.38209529033E+02  0.11565394598E+03  0.00000000000E+00 0. -1.
        -11    1    5    5    0    0  0.18306906918E+03 -0.39723359603E+02  0.16184181112E+03  0.24755807645E+03  0.00000000000E+00 0.  1.
          2    1    6    6  503    0 -0.27610436007E+03  0.99060080164E+02  0.30476056323E+03  0.42299588418E+03  0.00000000000E+00 0. -1.
         -2    1    6    6    0  503 -0.31981464214E+03  0.13741449713E+03  0.23253972777E+03  0.41861542535E+03  0.00000000000E+00 0.  1.
<mgrwt>
<rscale>  0 0.13387419E+04</rscale>
<asrwt>0</asrwt>
<pdfrwt beam="1">  1        2 0.23673293E+00 0.13387419E+04</pdfrwt>
<pdfrwt beam="2">  1       -1 0.44796938E-01 0.13387419E+04</pdfrwt>
<totfact> 0.66389565E+01</totfact>
</mgrwt>
</event>
<event>
12    6  0.1530720E-007  0.1787995E+04  0.7818608E-02  0.8712710E-01
         -1   -1    0    0    0  501 -0.00000000000E+00  0.00000000000E+00  0.31672566501E+03  0.31672566501E+03  0.00000000000E+00 0.  1.
          2   -1    0    0  501    0  0.00000000000E+00 -0.00000000000E+00 -0.25234199849E+04  0.25234199849E+04  0.00000000000E+00 0. -1.
         24    2    1    2    0    0  0.53774068402E+03  0.34233634925E+03 -0.11291551513E+04  0.12997395526E+04  0.89287902545E+02 0.  0.
        254    2    1    2    0    0 -0.53774068402E+03 -0.34233634925E+03 -0.10775391686E+04  0.15404060974E+04  0.89744139955E+03 0.  0.
         23    2    4    4    0    0 -0.37431924448E+03 -0.25489884513E+03 -0.12094820412E+04  0.12947853911E+04  0.92380099789E+02 0.  0.
         23    2    4    4    0    0 -0.16342143955E+03 -0.87437504118E+02  0.13194287259E+03  0.24562070632E+03  0.92567411741E+02 0.  0.
          4    1    3    3  502    0  0.29578853070E+03  0.19385950927E+03 -0.71430886733E+03  0.79706306035E+03  0.00000000000E+00 0. -1.
         -3    1    3    3    0  502  0.24195215333E+03  0.14847683998E+03 -0.41484628397E+03  0.50267649222E+03  0.00000000000E+00 0.  1.
         11    1    5    5    0    0 -0.10804776190E+03 -0.48822747165E+02 -0.22517353295E+03  0.25448202183E+03  0.00000000000E+00 0. -1.
        -11    1    5    5    0    0 -0.26627148258E+03 -0.20607609797E+03 -0.98430850826E+03  0.10403033692E+04  0.00000000000E+00 0.  1.
          2    1    6    6  503    0 -0.78274569213E+02  0.83007008489E+01  0.57045499761E+02  0.97211104628E+02  0.00000000000E+00 0. -1.
         -2    1    6    6    0  503 -0.85146870334E+02 -0.95738204967E+02  0.74897372826E+02  0.14840960169E+03  0.00000000000E+00 0.  1.
<mgrwt>
<rscale>  0 0.17879954E+04</rscale>
<asrwt>0</asrwt>
<pdfrwt beam="1">  1        2 0.38821844E+00 0.17879954E+04</pdfrwt>
<pdfrwt beam="2">  1       -1 0.48727027E-01 0.17879954E+04</pdfrwt>
<totfact> 0.15323220E+01</totfact>
</mgrwt>
</event>
<event>
12    6  0.1530720E-007  0.1647531E+04  0.7818608E-02  0.8791868E-01
         -1   -1    0    0    0  501 -0.00000000000E+00  0.00000000000E+00  0.37822816046E+03  0.37822816046E+03  0.00000000000E+00 0.  1.
          2   -1    0    0  501    0  0.00000000000E+00 -0.00000000000E+00 -0.17941278957E+04  0.17941278957E+04  0.00000000000E+00 0. -1.
         24    2    1    2    0    0 -0.33139100919E+03  0.30452868360E+03 -0.95701212945E+03  0.10604772328E+04  0.78625856741E+02 0.  0.
        254    2    1    2    0    0  0.33139100919E+03 -0.30452868360E+03 -0.45888760580E+03  0.11118788233E+04  0.90727006062E+03 0.  0.
         23    2    4    4    0    0  0.52259234477E+03 -0.27271217064E+03 -0.60718925727E+03  0.85149143806E+03  0.94255971254E+02 0.  0.
         23    2    4    4    0    0 -0.19120133558E+03 -0.31816512966E+02  0.14830165148E+03  0.26038738526E+03  0.90763259909E+02 0.  0.
          4    1    3    3  502    0 -0.40099771742E+02  0.44415126646E+02 -0.19868294622E+03  0.20749845370E+03  0.00000000000E+00 0. -1.
         -3    1    3    3    0  502 -0.29129123745E+03  0.26011355696E+03 -0.75832918323E+03  0.85297877914E+03  0.00000000000E+00 0.  1.
         11    1    5    5    0    0  0.51929137847E+03 -0.25947217844E+03 -0.57760523001E+03  0.81891217409E+03  0.00000000000E+00 0.  1.
        -11    1    5    5    0    0  0.33009663022E+01 -0.13239992194E+02 -0.29584027261E+02  0.32579263970E+02  0.00000000000E+00 0. -1.
          1    1    6    6  503    0 -0.33138060648E+02 -0.47668145512E+01 -0.10114470273E+02  0.34973648557E+02  0.00000000000E+00 0. -1.
         -1    1    6    6    0  503 -0.15806327493E+03 -0.27049698414E+02  0.15841612175E+03  0.22541373671E+03  0.00000000000E+00 0.  1.
<mgrwt>
<rscale>  0 0.16475311E+04</rscale>
<asrwt>0</asrwt>
<pdfrwt beam="1">  1        2 0.27601967E+00 0.16475311E+04</pdfrwt>
<pdfrwt beam="2">  1       -1 0.58188948E-01 0.16475311E+04</pdfrwt>
<totfact> 0.28312934E+01</totfact>
</mgrwt>
</event>
<event>
12    6  0.1530720E-007  0.1131620E+04  0.7818608E-02  0.9174910E-01
          2   -1    0    0  501    0  0.00000000000E+00  0.00000000000E+00  0.27030878248E+03  0.27030878248E+03  0.00000000000E+00 0. -1.
         -1   -1    0    0    0  501 -0.00000000000E+00 -0.00000000000E+00 -0.11843519065E+04  0.11843519065E+04  0.00000000000E+00 0.  1.
         24    2    1    2    0    0  0.97031090191E+02  0.99811437194E+02  0.96914333421E+01  0.16286987374E+03  0.83995931061E+02 0.  0.
        254    2    1    2    0    0 -0.97031090191E+02 -0.99811437194E+02 -0.92373455737E+03  0.12917908152E+04  0.89222229428E+03 0.  0.
         23    2    4    4    0    0  0.19527522149E+03  0.31551206797E+03 -0.46261401371E+03  0.59999572558E+03  0.91120073943E+02 0.  0.
         23    2    4    4    0    0 -0.29230631168E+03 -0.41532350516E+03 -0.46112054367E+03  0.69179508967E+03  0.89508080694E+02 0.  0.
          2    1    3    3  502    0  0.67202259102E+02  0.11142473220E+03  0.12589474033E+02  0.13072914530E+03  0.00000000000E+00 0. -1.
         -1    1    3    3    0  502  0.29828831089E+02 -0.11613295007E+02 -0.28980406908E+01  0.32140728444E+02  0.00000000000E+00 0.  1.
         11    1    5    5    0    0  0.12484659519E+03  0.26692792795E+03 -0.33271953234E+03  0.44445413515E+03  0.00000000000E+00 0. -1.
        -11    1    5    5    0    0  0.70428626306E+02  0.48584140015E+02 -0.12989448137E+03  0.15554159044E+03  0.00000000000E+00 0.  1.
          3    1    6    6  503    0 -0.23309233244E+03 -0.38109572632E+03 -0.41065070524E+03  0.60679484983E+03  0.00000000000E+00 0. -1.
         -3    1    6    6    0  503 -0.59213979244E+02 -0.34227778836E+02 -0.50469838426E+02  0.85000239839E+02  0.00000000000E+00 0.  1.
<mgrwt>
<rscale>  0 0.11316196E+04</rscale>
<asrwt>0</asrwt>
<pdfrwt beam="1">  1        2 0.41585967E-01 0.11316196E+04</pdfrwt>
<pdfrwt beam="2">  1       -1 0.18220799E+00 0.11316196E+04</pdfrwt>
<totfact> 0.28122389E+01</totfact>
</mgrwt>
</event>
<event>
12    6  0.1530720E-007  0.1021163E+04  0.7818608E-02  0.9285634E-01
         -1   -1    0    0    0  501 -0.00000000000E+00  0.00000000000E+00  0.19959092711E+03  0.19959092711E+03  0.00000000000E+00 0.  1.
          2   -1    0    0  501    0  0.00000000000E+00 -0.00000000000E+00 -0.13061378404E+04  0.13061378404E+04  0.00000000000E+00 0. -1.
         24    2    1    2    0    0 -0.86773217965E+02  0.12289954218E+01 -0.13587765246E+03  0.17968748593E+03  0.79333185845E+02 0.  0.
        254    2    1    2    0    0  0.86773217965E+02 -0.12289954218E+01 -0.97066926084E+03  0.13260412816E+04  0.89925278134E+03 0.  0.
         23    2    4    4    0    0 -0.15278306487E+03  0.87244684308E+02  0.99839208528E+02  0.22170755241E+03  0.90730763173E+02 0.  0.
         23    2    4    4    0    0  0.23955628284E+03 -0.88473679730E+02 -0.10705084694E+04  0.11043337292E+04  0.91377227724E+02 0.  0.
          2    1    3    3  502    0 -0.17674386931E+02 -0.22905912313E+02 -0.86976056739E+02  0.91661874398E+02  0.00000000000E+00 0. -1.
         -1    1    3    3    0  502 -0.69098831034E+02  0.24134907735E+02 -0.48901595720E+02  0.88025611532E+02  0.00000000000E+00 0.  1.
         11    1    5    5    0    0 -0.98606023487E+02  0.42039927853E+01  0.46127643190E+02  0.10894301671E+03  0.00000000000E+00 0. -1.
        -11    1    5    5    0    0 -0.54177041386E+02  0.83040691523E+02  0.53711565338E+02  0.11276453571E+03  0.00000000000E+00 0.  1.
          1    1    6    6  503    0  0.72510235860E+02  0.14193050848E+02 -0.34286586940E+03  0.35073662682E+03  0.00000000000E+00 0. -1.
         -1    1    6    6    0  503  0.16704604698E+03 -0.10266673058E+03 -0.72764259997E+03  0.75359710235E+03  0.00000000000E+00 0.  1.
<mgrwt>
<rscale>  0 0.10211626E+04</rscale>
<asrwt>0</asrwt>
<pdfrwt beam="1">  1        2 0.20094427E+00 0.10211626E+04</pdfrwt>
<pdfrwt beam="2">  1       -1 0.30706298E-01 0.10211626E+04</pdfrwt>
<totfact> 0.18226482E+02</totfact>
</mgrwt>
</event>
<event>
12    6  0.1530720E-007  0.1677769E+04  0.7818608E-02  0.8774146E-01
         -1   -1    0    0    0  501 -0.00000000000E+00  0.00000000000E+00  0.94940736580E+03  0.94940736580E+03  0.00000000000E+00 0.  1.
          2   -1    0    0  501    0  0.00000000000E+00 -0.00000000000E+00 -0.74122828758E+03  0.74122828758E+03  0.00000000000E+00 0. -1.
         24    2    1    2    0    0  0.16370834905E+03 -0.74878745067E+02 -0.49732592196E+03  0.53507110362E+03  0.80998538642E+02 0.  0.
        254    2    1    2    0    0 -0.16370834905E+03  0.74878745067E+02  0.70550500019E+03  0.11555645498E+04  0.89732094222E+03 0.  0.
         23    2    4    4    0    0  0.25653430653E+03  0.66056633423E+02 -0.51026498740E+02  0.28533312851E+03  0.92940633763E+02 0.  0.
         23    2    4    4    0    0 -0.42024265559E+03  0.88221116431E+01  0.75653149893E+03  0.87023142124E+03  0.91000540751E+02 0.  0.
          2    1    3    3  502    0  0.12773728881E+03 -0.92070592573E+02 -0.39083413622E+03  0.42136104590E+03  0.00000000000E+00 0. -1.
         -3    1    3    3    0  502  0.35971060246E+02  0.17191847507E+02 -0.10649178575E+03  0.11371005772E+03  0.00000000000E+00 0.  1.
         11    1    5    5    0    0  0.17025619248E+03  0.61629915958E+02  0.71011071258E+01  0.18120663162E+03  0.00000000000E+00 0.  1.
        -11    1    5    5    0    0  0.86278114052E+02  0.44267174658E+01 -0.58127605866E+02  0.10412649690E+03  0.00000000000E+00 0. -1.
          3    1    6    6  503    0 -0.19058665832E+02 -0.19967807417E+02  0.41630064527E+02  0.49950058547E+02  0.00000000000E+00 0. -1.
         -3    1    6    6    0  503 -0.40118398976E+03  0.28789919060E+02  0.71490143440E+03  0.82028136269E+03  0.00000000000E+00 0.  1.
<mgrwt>
<rscale>  0 0.16777695E+04</rscale>
<asrwt>0</asrwt>
<pdfrwt beam="1">  1        2 0.11403512E+00 0.16777695E+04</pdfrwt>
<pdfrwt beam="2">  1       -1 0.14606267E+00 0.16777695E+04</pdfrwt>
<totfact> 0.15530775E+01</totfact>
</mgrwt>
</event>
<event>
12    6  0.1530720E-007  0.2958824E+04  0.7818608E-02  0.8255588E-01
         -1   -1    0    0    0  501 -0.00000000000E+00  0.00000000000E+00  0.16891795651E+04  0.16891795651E+04  0.00000000000E+00 0.  1.
          2   -1    0    0  501    0  0.00000000000E+00 -0.00000000000E+00 -0.12956941645E+04  0.12956941645E+04  0.00000000000E+00 0. -1.
         24    2    1    2    0    0  0.12299551421E+04 -0.45177013979E+03 -0.39257547845E+02  0.13133546322E+04  0.80456969736E+02 0.  0.
        254    2    1    2    0    0 -0.12299551421E+04  0.45177013979E+03  0.43274294847E+03  0.16715190974E+04  0.94330468178E+03 0.  0.
         23    2    4    4    0    0 -0.12920460087E+04  0.17213484610E+03  0.39089752935E+03  0.13643261002E+04  0.97834224243E+02 0.  0.
         23    2    4    4    0    0  0.62090866585E+02  0.27963529369E+03  0.41845419121E+02  0.30719299717E+03  0.10278776785E+03 0.  0.
          4    1    3    3  502    0  0.85457341373E+03 -0.32142203031E+03 -0.63653963286E+02  0.91523749271E+03  0.00000000000E+00 0. -1.
         -3    1    3    3    0  502  0.37538172840E+03 -0.13034810948E+03  0.24396415441E+02  0.39811713948E+03  0.00000000000E+00 0.  1.
         11    1    5    5    0    0 -0.10363971759E+03  0.41129868866E+02  0.31214289992E+02  0.11578941693E+03  0.00000000000E+00 0. -1.
        -11    1    5    5    0    0 -0.11884062911E+04  0.13100497723E+03  0.35968323935E+03  0.12485366833E+04  0.00000000000E+00 0.  1.
          2    1    6    6  503    0 -0.20083636842E+02  0.35756515059E+02  0.27629582386E+02  0.49449718511E+02  0.00000000000E+00 0. -1.
         -2    1    6    6    0  503  0.82174503427E+02  0.24387877863E+03  0.14215836734E+02  0.25774327866E+03  0.00000000000E+00 0.  1.
<mgrwt>
<rscale>  0 0.29588242E+04</rscale>
<asrwt>0</asrwt>
<pdfrwt beam="1">  1        2 0.19933756E+00 0.29588242E+04</pdfrwt>
<pdfrwt beam="2">  1       -1 0.25987378E+00 0.29588242E+04</pdfrwt>
<totfact> 0.97791701E-01</totfact>
</mgrwt>
</event>
<event>
12    6  0.1530720E-007  0.1489939E+04  0.7818608E-02  0.8891171E-01
         -1   -1    0    0    0  501 -0.00000000000E+00  0.00000000000E+00  0.21982208310E+03  0.21982208310E+03  0.00000000000E+00 0.  1.
          2   -1    0    0  501    0  0.00000000000E+00 -0.00000000000E+00 -0.25246752003E+04  0.25246752003E+04  0.00000000000E+00 0. -1.
         24    2    1    2    0    0 -0.78221545613E+02 -0.19972088427E+03 -0.15473605314E+04  0.15640986786E+04  0.77929586275E+02 0.  0.
        254    2    1    2    0    0  0.78221545613E+02  0.19972088427E+03 -0.75749258585E+03  0.11803986049E+04  0.87951054965E+03 0.  0.
         23    2    4    4    0    0  0.24410273340E+02  0.47242201330E+03 -0.74478162147E+03  0.88712119101E+03  0.92227565059E+02 0.  0.
         23    2    4    4    0    0  0.53811272273E+02 -0.27270112903E+03 -0.12710964377E+02  0.29327741386E+03  0.92674236258E+02 0.  0.
          2    1    3    3  502    0 -0.48441595707E+02 -0.14206811573E+03 -0.12891713995E+04  0.12978801312E+04  0.00000000000E+00 0. -1.
         -1    1    3    3    0  502 -0.29779949906E+02 -0.57652768546E+02 -0.25818913189E+03  0.26621854737E+03  0.00000000000E+00 0.  1.
         11    1    5    5    0    0  0.89806962797E+01  0.24886493182E+02 -0.13694778092E+02  0.29791565846E+02  0.00000000000E+00 0. -1.
        -11    1    5    5    0    0  0.15429577060E+02  0.44753552012E+03 -0.73108684338E+03  0.85732962516E+03  0.00000000000E+00 0.  1.
          3    1    6    6  503    0 -0.25123250316E+02 -0.70533553813E+02  0.78001476690E+01  0.75279494045E+02  0.00000000000E+00 0. -1.
         -3    1    6    6    0  503  0.78934522590E+02 -0.20216757522E+03 -0.20511112046E+02  0.21799791981E+03  0.00000000000E+00 0.  1.
<mgrwt>
<rscale>  0 0.14899387E+04</rscale>
<asrwt>0</asrwt>
<pdfrwt beam="1">  1        2 0.38841155E+00 0.14899387E+04</pdfrwt>
<pdfrwt beam="2">  1       -1 0.33818784E-01 0.14899387E+04</pdfrwt>
<totfact> 0.30698748E+01</totfact>
</mgrwt>
</event>
<event>
12    6  0.1530720E-007  0.1079352E+04  0.7818608E-02  0.9225554E-01
         -1   -1    0    0    0  501 -0.00000000000E+00  0.00000000000E+00  0.95748262145E+02  0.95748262145E+02  0.00000000000E+00 0.  1.
          2   -1    0    0  501    0  0.00000000000E+00 -0.00000000000E+00 -0.30418327603E+04  0.30418327603E+04  0.00000000000E+00 0. -1.
         24    2    1    2    0    0 -0.14760313195E+02 -0.11195367657E+03 -0.70206410567E+03  0.71591346550E+03  0.82985475031E+02 0.  0.
        254    2    1    2    0    0  0.14760313195E+02  0.11195367657E+03 -0.22440203925E+04  0.24216675569E+04  0.90337962228E+03 0.  0.
         23    2    4    4    0    0  0.25807413358E+03 -0.81110851403E+02 -0.19914068490E+04  0.20117623006E+04  0.91132251904E+02 0.  0.
         23    2    4    4    0    0 -0.24331382038E+03  0.19306452797E+03 -0.25261354350E+03  0.40990525634E+03  0.87938556195E+02 0.  0.
          4    1    3    3  502    0 -0.40241384320E+02 -0.10644726782E+03 -0.58759301324E+03  0.59851143602E+03  0.00000000000E+00 0. -1.
         -3    1    3    3    0  502  0.25481071125E+02 -0.55064087458E+01 -0.11447109243E+03  0.11740202948E+03  0.00000000000E+00 0.  1.
         11    1    5    5    0    0  0.15252957155E+03 -0.11101904648E+02 -0.12876023772E+04  0.12966527694E+04  0.00000000000E+00 0. -1.
        -11    1    5    5    0    0  0.10554456203E+03 -0.70008946754E+02 -0.70380447176E+03  0.71510953124E+03  0.00000000000E+00 0.  1.
          3    1    6    6  503    0 -0.11576365097E+03  0.43599532977E+02 -0.72666724007E+02  0.14346635473E+03  0.00000000000E+00 0. -1.
         -3    1    6    6    0  503 -0.12755016941E+03  0.14946499499E+03 -0.17994681950E+03  0.26643890161E+03  0.00000000000E+00 0.  1.
<mgrwt>
<rscale>  0 0.10793520E+04</rscale>
<asrwt>0</asrwt>
<pdfrwt beam="1">  1        2 0.46797430E+00 0.10793520E+04</pdfrwt>
<pdfrwt beam="2">  1       -1 0.14730501E-01 0.10793520E+04</pdfrwt>
<totfact> 0.64199871E+01</totfact>
</mgrwt>
</event>
<event>
12    6  0.1530720E-007  0.2477324E+04  0.7818608E-02  0.8411109E-01
          2   -1    0    0  501    0  0.00000000000E+00  0.00000000000E+00  0.17507612249E+04  0.17507612249E+04  0.00000000000E+00 0. -1.
         -1   -1    0    0    0  501 -0.00000000000E+00 -0.00000000000E+00 -0.87635195320E+03  0.87635195320E+03  0.00000000000E+00 0.  1.
         24    2    1    2    0    0 -0.10467015377E+03 -0.66522387539E+03 -0.50805799764E+03  0.84724706133E+03  0.78905059961E+02 0.  0.
        254    2    1    2    0    0  0.10467015377E+03  0.66522387539E+03  0.13824672693E+04  0.17798661167E+04  0.89623043762E+03 0.  0.
         23    2    4    4    0    0  0.49198836218E+03  0.38910936875E+03  0.85068416734E+03  0.10608717159E+04  0.91250182280E+02 0.  0.
         23    2    4    4    0    0 -0.38731820841E+03  0.27611450664E+03  0.53178310198E+03  0.71899440079E+03  0.88910435175E+02 0.  0.
          2    1    3    3  502    0 -0.16206305043E+02 -0.36658105620E+02 -0.12599966758E+02  0.42014523597E+02  0.00000000000E+00 0. -1.
         -1    1    3    3    0  502 -0.88463848723E+02 -0.62856576977E+03 -0.49545803088E+03  0.80523253773E+03  0.00000000000E+00 0.  1.
         11    1    5    5    0    0  0.98132310053E+02  0.11342052065E+03  0.15957899842E+03  0.21899685276E+03  0.00000000000E+00 0.  1.
        -11    1    5    5    0    0  0.39385605212E+03  0.27568884809E+03  0.69110516891E+03  0.84187486318E+03  0.00000000000E+00 0. -1.
          3    1    6    6  503    0 -0.38868557203E+03  0.28024665592E+03  0.52390376297E+03  0.70999282737E+03  0.00000000000E+00 0. -1.
         -3    1    6    6    0  503  0.13673636245E+01 -0.41321492800E+01  0.78793390027E+01  0.90015734221E+01  0.00000000000E+00 0.  1.
<mgrwt>
<rscale>  0 0.24773236E+04</rscale>
<asrwt>0</asrwt>
<pdfrwt beam="1">  1        2 0.26934788E+00 0.24773236E+04</pdfrwt>
<pdfrwt beam="2">  1       -1 0.13482338E+00 0.24773236E+04</pdfrwt>
<totfact> 0.43205804E+00</totfact>
</mgrwt>
</event>
<event>
12    6  0.1530720E-007  0.3263152E+04  0.7818608E-02  0.8172335E-01
         -3   -1    0    0    0  501 -0.00000000000E+00  0.00000000000E+00  0.27753702319E+04  0.27753702319E+04  0.00000000000E+00 0.  1.
          2   -1    0    0  501    0  0.00000000000E+00 -0.00000000000E+00 -0.95916607790E+03  0.95916607790E+03  0.00000000000E+00 0. -1.
         24    2    1    2    0    0 -0.12484497733E+03 -0.84721021801E+03  0.22325307409E+04  0.23924798648E+04  0.80093521359E+02 0.  0.
        254    2    1    2    0    0  0.12484497733E+03  0.84721021801E+03 -0.41632658697E+03  0.13420564450E+04  0.94574639980E+03 0.  0.
         23    2    4    4    0    0 -0.23368400146E+03 -0.90265170469E+02 -0.11230580943E+03  0.28928696581E+03  0.91204935273E+02 0.  0.
         23    2    4    4    0    0  0.35852897879E+03  0.93747538848E+03 -0.30402077755E+03  0.10527694792E+04  0.92151020272E+02 0.  0.
          4    1    3    3  502    0 -0.43415300811E+02 -0.39057820368E+03  0.11286348302E+04  0.11950953106E+04  0.00000000000E+00 0. -1.
         -3    1    3    3    0  502 -0.81429676519E+02 -0.45663201433E+03  0.11038959107E+04  0.11973845541E+04  0.00000000000E+00 0.  1.
         11    1    5    5    0    0 -0.61843220377E+02 -0.77318780003E+01 -0.70546094348E+02  0.94133507700E+02  0.00000000000E+00 0. -1.
        -11    1    5    5    0    0 -0.17184078108E+03 -0.82533292469E+02 -0.41759715078E+02  0.19515345811E+03  0.00000000000E+00 0.  1.
          2    1    6    6  503    0  0.24944424773E+03  0.73178401721E+03 -0.26102978412E+03  0.81600663524E+03  0.00000000000E+00 0.  1.
         -2    1    6    6    0  503  0.10908473106E+03  0.20569137127E+03 -0.42990993429E+02  0.23676284396E+03  0.00000000000E+00 0. -1.
<mgrwt>
<rscale>  0 0.32631525E+04</rscale>
<asrwt>0</asrwt>
<pdfrwt beam="1">  1        2 0.14756401E+00 0.32631525E+04</pdfrwt>
<pdfrwt beam="2">  1       -3 0.42698003E+00 0.32631525E+04</pdfrwt>
<totfact> 0.10494000E-01</totfact>
</mgrwt>
</event>
<event>
12    6  0.1530720E-007  0.1667626E+04  0.7818608E-02  0.8780047E-01
          4   -1    0    0  501    0  0.00000000000E+00  0.00000000000E+00  0.72335989007E+03  0.72335989007E+03  0.00000000000E+00 0. -1.
         -3   -1    0    0    0  501 -0.00000000000E+00 -0.00000000000E+00 -0.96113121962E+03  0.96113121962E+03  0.00000000000E+00 0.  1.
         24    2    1    2    0    0  0.34768104309E+03  0.43993196902E+03 -0.25559191162E+03  0.62358154583E+03  0.95417367008E+02 0.  0.
        254    2    1    2    0    0 -0.34768104309E+03 -0.43993196902E+03  0.17820582059E+02  0.10609095639E+04  0.90043838460E+03 0.  0.
         23    2    4    4    0    0 -0.47792133302E+03 -0.63608515454E+03 -0.41008450091E+02  0.80183421728E+03  0.90792591360E+02 0.  0.
         23    2    4    4    0    0  0.13024028993E+03  0.19615318552E+03  0.58829032150E+02  0.25907534658E+03  0.90667385908E+02 0.  0.
          4    1    3    3  502    0  0.30772234145E+03  0.35118877875E+03 -0.18030523234E+03  0.50053628695E+03  0.00000000000E+00 0. -1.
         -3    1    3    3    0  502  0.39958701639E+02  0.88743190270E+02 -0.75286679272E+02  0.12304525888E+03  0.00000000000E+00 0.  1.
         11    1    5    5    0    0 -0.45460463521E+03 -0.61844201255E+03 -0.23829703816E+02  0.76792170957E+03  0.00000000000E+00 0. -1.
        -11    1    5    5    0    0 -0.23316697806E+02 -0.17643141990E+02 -0.17178746274E+02  0.33912507714E+02  0.00000000000E+00 0.  1.
          1    1    6    6  503    0  0.11764051385E+03  0.15138282077E+03  0.80291196143E+02  0.20785265238E+03  0.00000000000E+00 0. -1.
         -1    1    6    6    0  503  0.12599776080E+02  0.44770364750E+02 -0.21462163993E+02  0.51222694193E+02  0.00000000000E+00 0.  1.
<mgrwt>
<rscale>  0 0.16676256E+04</rscale>
<asrwt>0</asrwt>
<pdfrwt beam="1">  1        4 0.11128614E+00 0.16676256E+04</pdfrwt>
<pdfrwt beam="2">  1       -3 0.14786634E+00 0.16676256E+04</pdfrwt>
<totfact> 0.46571682E-01</totfact>
</mgrwt>
</event>
<event>
12    6  0.1530720E-007  0.1628593E+04  0.7818608E-02  0.8803172E-01
          2   -1    0    0  501    0  0.00000000000E+00  0.00000000000E+00  0.22539009343E+04  0.22539009343E+04  0.00000000000E+00 0. -1.
         -1   -1    0    0    0  501 -0.00000000000E+00 -0.00000000000E+00 -0.29419151852E+03  0.29419151852E+03  0.00000000000E+00 0.  1.
         24    2    1    2    0    0 -0.24496429081E+03  0.46914085143E+03  0.98357221505E+03  0.11199432663E+04  0.82206904573E+02 0.  0.
        254    2    1    2    0    0  0.24496429081E+03 -0.46914085143E+03  0.97613720076E+03  0.14281491866E+04  0.89814565757E+03 0.  0.
         23    2    4    4    0    0 -0.20418188222E+03 -0.42596343223E+03  0.19156010164E+03  0.51826553925E+03  0.93641924396E+02 0.  0.
         23    2    4    4    0    0  0.44914617303E+03 -0.43177419200E+02  0.78457709912E+03  0.90988364734E+03  0.93436892967E+02 0.  0.
          2    1    3    3  502    0 -0.16064535442E+03  0.25017932653E+03  0.61368020796E+03  0.68190910169E+03  0.00000000000E+00 0. -1.
         -1    1    3    3    0  502 -0.84318936388E+02  0.21896152491E+03  0.36989200709E+03  0.43803416457E+03  0.00000000000E+00 0.  1.
         11    1    5    5    0    0 -0.16352847322E+02 -0.11315459709E+03  0.68100991715E+02  0.13307563087E+03  0.00000000000E+00 0.  1.
        -11    1    5    5    0    0 -0.18782903490E+03 -0.31280883514E+03  0.12345910992E+03  0.38518990838E+03  0.00000000000E+00 0. -1.
          4    1    6    6  503    0  0.30079620053E+03 -0.55802631568E+02  0.45559888587E+03  0.54878286485E+03  0.00000000000E+00 0. -1.
         -4    1    6    6    0  503  0.14834997250E+03  0.12625212369E+02  0.32897821325E+03  0.36110078250E+03  0.00000000000E+00 0.  1.
<mgrwt>
<rscale>  0 0.16285927E+04</rscale>
<asrwt>0</asrwt>
<pdfrwt beam="1">  1        2 0.34675398E+00 0.16285927E+04</pdfrwt>
<pdfrwt beam="2">  1       -1 0.45260235E-01 0.16285927E+04</pdfrwt>
<totfact> 0.25441100E+01</totfact>
</mgrwt>
</event>
<event>
12    6  0.1530720E-007  0.2977233E+04  0.7818608E-02  0.8250262E-01
          2   -1    0    0  501    0  0.00000000000E+00  0.00000000000E+00  0.23173822393E+04  0.23173822393E+04  0.00000000000E+00 0. -1.
         -1   -1    0    0    0  501 -0.00000000000E+00 -0.00000000000E+00 -0.95624205332E+03  0.95624205332E+03  0.00000000000E+00 0.  1.
         24    2    1    2    0    0  0.61418950531E+03  0.60805751544E+03 -0.52413362682E+03  0.10137461603E+04  0.77475985184E+02 0.  0.
        254    2    1    2    0    0 -0.61418950531E+03 -0.60805751544E+03  0.18852738128E+04  0.22598781323E+04  0.89767986112E+03 0.  0.
         23    2    4    4    0    0 -0.58229960301E+03 -0.39926445077E+03  0.53705917902E+03  0.89162783263E+03  0.89903842141E+02 0.  0.
         23    2    4    4    0    0 -0.31889902292E+02 -0.20879306467E+03  0.13482146337E+04  0.13682502996E+04  0.99069036960E+02 0.  0.
          4    1    3    3  502    0  0.69322187805E+02  0.68763469557E+02 -0.89654798105E+02  0.13255928217E+03  0.00000000000E+00 0. -1.
         -3    1    3    3    0  502  0.54486731750E+03  0.53929404588E+03 -0.43447882872E+03  0.88118687814E+03  0.00000000000E+00 0.  1.
         11    1    5    5    0    0 -0.25662171762E+03 -0.16563690900E+03  0.17804640086E+03  0.35354039718E+03  0.00000000000E+00 0. -1.
        -11    1    5    5    0    0 -0.32567788539E+03 -0.23362754176E+03  0.35901277817E+03  0.53808743545E+03  0.00000000000E+00 0.  1.
          3    1    6    6  503    0 -0.50349317223E+02 -0.57292799956E+02  0.33268882663E+03  0.34132004634E+03  0.00000000000E+00 0. -1.
         -3    1    6    6    0  503  0.18459414931E+02 -0.15150026471E+03  0.10155258071E+04  0.10269302533E+04  0.00000000000E+00 0.  1.
<mgrwt>
<rscale>  0 0.29772325E+04</rscale>
<asrwt>0</asrwt>
<pdfrwt beam="1">  1        2 0.35652034E+00 0.29772325E+04</pdfrwt>
<pdfrwt beam="2">  1       -1 0.14711416E+00 0.29772325E+04</pdfrwt>
<totfact> 0.15882337E+00</totfact>
</mgrwt>
</event>
<event>
12    6  0.1530720E-007  0.2063841E+04  0.7818608E-02  0.8577341E-01
          2   -1    0    0  501    0  0.00000000000E+00  0.00000000000E+00  0.31577058847E+04  0.31577058847E+04  0.00000000000E+00 0. -1.
         -1   -1    0    0    0  501 -0.00000000000E+00 -0.00000000000E+00 -0.33722593179E+03  0.33722593179E+03  0.00000000000E+00 0.  1.
         24    2    1    2    0    0 -0.35676975152E+03 -0.11214747533E+03  0.24075728155E+04  0.24377589874E+04  0.80001920071E+02 0.  0.
        254    2    1    2    0    0  0.35676975152E+03  0.11214747533E+03  0.41290713746E+03  0.10571728291E+04  0.89847669672E+03 0.  0.
         23    2    4    4    0    0  0.57075073887E+03  0.31696336086E+03  0.32421506754E+03  0.73452823768E+03  0.90521510603E+02 0.  0.
         23    2    4    4    0    0 -0.21398098735E+03 -0.20481588553E+03  0.88692069923E+02  0.32264459140E+03  0.92172876576E+02 0.  0.
          4    1    3    3  502    0 -0.22267426885E+03 -0.58836839941E+02  0.12300123419E+04  0.12513896136E+04  0.00000000000E+00 0. -1.
         -3    1    3    3    0  502 -0.13409548267E+03 -0.53310635393E+02  0.11775604735E+04  0.11863693738E+04  0.00000000000E+00 0.  1.
         11    1    5    5    0    0  0.37134222724E+03  0.24159858697E+03  0.18608095508E+03  0.48051123691E+03  0.00000000000E+00 0.  1.
        -11    1    5    5    0    0  0.19940851162E+03  0.75364773899E+02  0.13813411246E+03  0.25401700077E+03  0.00000000000E+00 0. -1.
          3    1    6    6  503    0 -0.21695007062E+03 -0.20013815045E+03  0.70280059254E+02  0.30341703830E+03  0.00000000000E+00 0. -1.
         -3    1    6    6    0  503  0.29690832656E+01 -0.46777350820E+01  0.18412010670E+02  0.19227553090E+02  0.00000000000E+00 0.  1.
<mgrwt>
<rscale>  0 0.20638414E+04</rscale>
<asrwt>0</asrwt>
<pdfrwt beam="1">  1        2 0.48580089E+00 0.20638414E+04</pdfrwt>
<pdfrwt beam="2">  1       -1 0.51880915E-01 0.20638414E+04</pdfrwt>
<totfact> 0.54502233E+00</totfact>
</mgrwt>
</event>
<event>
12    6  0.1530720E-007  0.1184380E+04  0.7818608E-02  0.9126639E-01
         -1   -1    0    0    0  501 -0.00000000000E+00  0.00000000000E+00  0.33583625222E+03  0.33583625222E+03  0.00000000000E+00 0.  1.
          2   -1    0    0  501    0  0.00000000000E+00 -0.00000000000E+00 -0.10442264826E+04  0.10442264826E+04  0.00000000000E+00 0. -1.
         24    2    1    2    0    0  0.20938020794E+03  0.14019437088E+03 -0.18367370392E+03  0.32082319340E+03  0.75478200862E+02 0.  0.
        254    2    1    2    0    0 -0.20938020794E+03 -0.14019437088E+03 -0.52471652645E+03  0.10592395414E+04  0.88496691456E+03 0.  0.
         23    2    4    4    0    0 -0.46952321517E+03  0.16258326964E+03 -0.34474694934E+03  0.61151406935E+03  0.90629072536E+02 0.  0.
         23    2    4    4    0    0  0.26014300723E+03 -0.30277764052E+03 -0.17996957712E+03  0.44772547206E+03  0.93382899043E+02 0.  0.
          4    1    3    3  502    0  0.19469806389E+03  0.13715061628E+03 -0.14374772581E+03  0.27817447098E+03  0.00000000000E+00 0. -1.
         -3    1    3    3    0  502  0.14682144047E+02  0.30437546032E+01 -0.39925978105E+02  0.42648722414E+02  0.00000000000E+00 0.  1.
         11    1    5    5    0    0 -0.36496691859E+03  0.16118608740E+03 -0.25321269596E+03  0.47254468131E+03  0.00000000000E+00 0. -1.
        -11    1    5    5    0    0 -0.10455629658E+03  0.13971822415E+01 -0.91534253374E+02  0.13896938805E+03  0.00000000000E+00 0.  1.
          1    1    6    6  503    0  0.19962825824E+03 -0.19444573305E+03 -0.84638911398E+02  0.29124616720E+03  0.00000000000E+00 0. -1.
         -1    1    6    6    0  503  0.60514748994E+02 -0.10833190748E+03 -0.95330665718E+02  0.15647930486E+03  0.00000000000E+00 0.  1.
<mgrwt>
<rscale>  0 0.11843802E+04</rscale>
<asrwt>0</asrwt>
<pdfrwt beam="1">  1        2 0.16065023E+00 0.11843802E+04</pdfrwt>
<pdfrwt beam="2">  1       -1 0.51667116E-01 0.11843802E+04</pdfrwt>
<totfact> 0.10021911E+02</totfact>
</mgrwt>
</event>
<event>
12    6  0.1530720E-007  0.1871962E+04  0.7818608E-02  0.8668940E-01
          2   -1    0    0  501    0  0.00000000000E+00  0.00000000000E+00  0.74992648458E+03  0.74992648458E+03  0.00000000000E+00 0. -1.
         -1   -1    0    0    0  501 -0.00000000000E+00 -0.00000000000E+00 -0.11681953049E+04  0.11681953049E+04  0.00000000000E+00 0.  1.
         24    2    1    2    0    0 -0.45631474568E+03  0.70740991356E+02 -0.72667451432E+03  0.86471362484E+03  0.80289278586E+02 0.  0.
        254    2    1    2    0    0  0.45631474568E+03 -0.70740991356E+02  0.30840569403E+03  0.10534081646E+04  0.89516884115E+03 0.  0.
         23    2    4    4    0    0 -0.91100366343E+02 -0.21179018936E+01 -0.23825811878E+03  0.27179943280E+03  0.93830902425E+02 0.  0.
         23    2    4    4    0    0  0.54741511202E+03 -0.68623089463E+02  0.54666381281E+03  0.78160873180E+03  0.87740823518E+02 0.  0.
          4    1    3    3  502    0 -0.74567321090E+02  0.39906256301E+02 -0.15568320967E+03  0.17717239186E+03  0.00000000000E+00 0. -1.
         -3    1    3    3    0  502 -0.38174742459E+03  0.30834735056E+02 -0.57099130465E+03  0.68754123298E+03  0.00000000000E+00 0.  1.
         11    1    5    5    0    0 -0.28688869022E+02 -0.24260954028E+02 -0.17734572171E+02  0.41547083486E+02  0.00000000000E+00 0. -1.
        -11    1    5    5    0    0 -0.62411497321E+02  0.22143052134E+02 -0.22052354661E+03  0.23025234932E+03  0.00000000000E+00 0.  1.
          4    1    6    6  503    0  0.48761611150E+01 -0.15804460835E+01  0.26577009146E+02  0.27066809420E+02  0.00000000000E+00 0. -1.
         -4    1    6    6    0  503  0.54253895090E+03 -0.67042643379E+02  0.52008680367E+03  0.75454192238E+03  0.00000000000E+00 0.  1.
<mgrwt>
<rscale>  0 0.18719622E+04</rscale>
<asrwt>0</asrwt>
<pdfrwt beam="1">  1        2 0.11537331E+00 0.18719622E+04</pdfrwt>
<pdfrwt beam="2">  1       -1 0.17972235E+00 0.18719622E+04</pdfrwt>
<totfact> 0.84015485E+00</totfact>
</mgrwt>
</event>
<event>
12    6  0.1530720E-007  0.1241117E+04  0.7818608E-02  0.9077609E-01
         -1   -1    0    0    0  501 -0.00000000000E+00  0.00000000000E+00  0.52434202542E+03  0.52434202542E+03  0.00000000000E+00 0.  1.
          2   -1    0    0  501    0  0.00000000000E+00 -0.00000000000E+00 -0.73443077949E+03  0.73443077949E+03  0.00000000000E+00 0. -1.
         24    2    1    2    0    0 -0.23041525991E+03 -0.18078074279E+03 -0.89804742549E+02  0.31702330107E+03  0.81645653109E+02 0.  0.
        254    2    1    2    0    0  0.23041525991E+03  0.18078074279E+03 -0.12028401152E+03  0.94174950385E+03  0.88693348996E+03 0.  0.
         23    2    4    4    0    0 -0.40955529694E+02 -0.32600396335E+03 -0.11498644499E+03  0.35985634637E+03  0.91207280176E+02 0.  0.
         23    2    4    4    0    0  0.27137078961E+03  0.50678470614E+03 -0.52975665288E+01  0.58189315748E+03  0.89992992368E+02 0.  0.
          4    1    3    3  502    0 -0.26293819052E+02  0.13323648508E+01 -0.24096759797E+02  0.35690250057E+02  0.00000000000E+00 0. -1.
         -3    1    3    3    0  502 -0.20412144086E+03 -0.18211310764E+03 -0.65707982752E+02  0.28133305101E+03  0.00000000000E+00 0.  1.
         11    1    5    5    0    0  0.10165742162E+02 -0.99102973136E-01 -0.83613937087E+01  0.13163017885E+02  0.00000000000E+00 0. -1.
        -11    1    5    5    0    0 -0.51121271855E+02 -0.32590486038E+03 -0.10662505128E+03  0.34669332849E+03  0.00000000000E+00 0.  1.
          1    1    6    6  503    0  0.30530395160E+02  0.11637511322E+03  0.22224109805E+02  0.12234861284E+03  0.00000000000E+00 0. -1.
         -1    1    6    6    0  503  0.24084039445E+03  0.39040959292E+03 -0.27521676334E+02  0.45954454464E+03  0.00000000000E+00 0.  1.
<mgrwt>
<rscale>  0 0.12411171E+04</rscale>
<asrwt>0</asrwt>
<pdfrwt beam="1">  1        2 0.11298935E+00 0.12411171E+04</pdfrwt>
<pdfrwt beam="2">  1       -1 0.80668004E-01 0.12411171E+04</pdfrwt>
<totfact> 0.66391778E+01</totfact>
</mgrwt>
</event>
<event>
12    6  0.1530720E-007  0.2405487E+04  0.7818608E-02  0.8437452E-01
          2   -1    0    0  501    0  0.00000000000E+00  0.00000000000E+00  0.24858901702E+04  0.24858901702E+04  0.00000000000E+00 0. -1.
         -1   -1    0    0    0  501 -0.00000000000E+00 -0.00000000000E+00 -0.58192090640E+03  0.58192090640E+03  0.00000000000E+00 0.  1.
         24    2    1    2    0    0 -0.83445960618E+03  0.18794499684E+02  0.15986205308E+04  0.18051535301E+04  0.79470737664E+02 0.  0.
        254    2    1    2    0    0  0.83445960618E+03 -0.18794499684E+02  0.30534873305E+03  0.12626575466E+04  0.89687800929E+03 0.  0.
         23    2    4    4    0    0  0.46980799835E+03  0.79736378956E+02  0.60128035366E+03  0.77285856609E+03  0.93246201194E+02 0.  0.
         23    2    4    4    0    0  0.36465160783E+03 -0.98530878640E+02 -0.29593162061E+03  0.48979898047E+03  0.98226208605E+02 0.  0.
          2    1    3    3  502    0 -0.41407055341E+03 -0.25970648494E+02  0.75248433096E+03  0.85927967864E+03  0.00000000000E+00 0. -1.
         -1    1    3    3    0  502 -0.42038905277E+03  0.44765148178E+02  0.84613619982E+03  0.94587385143E+03  0.00000000000E+00 0.  1.
         11    1    5    5    0    0  0.35077444658E+03  0.67649532795E+02  0.50855455921E+03  0.62148765986E+03  0.00000000000E+00 0.  1.
        -11    1    5    5    0    0  0.11903355177E+03  0.12086846161E+02  0.92725794447E+02  0.15137090623E+03  0.00000000000E+00 0. -1.
          4    1    6    6  503    0  0.35038201600E+03 -0.11350944937E+03 -0.28837817944E+03  0.46777550878E+03  0.00000000000E+00 0.  1.
         -4    1    6    6    0  503  0.14269591827E+02  0.14978570728E+02 -0.75534411632E+01  0.22023471692E+02  0.00000000000E+00 0. -1.
<mgrwt>
<rscale>  0 0.24054866E+04</rscale>
<asrwt>0</asrwt>
<pdfrwt beam="1">  1        2 0.38244464E+00 0.24054866E+04</pdfrwt>
<pdfrwt beam="2">  1       -1 0.89526295E-01 0.24054866E+04</pdfrwt>
<totfact> 0.44320570E+00</totfact>
</mgrwt>
</event>
<event>
12    6  0.1883996E-007  0.1448149E+04  0.7818608E-02  0.8919685E-01
          2   -1    0    0  501    0  0.00000000000E+00  0.00000000000E+00  0.13969398029E+04  0.13969398029E+04  0.00000000000E+00 0. -1.
         -1   -1    0    0    0  501 -0.00000000000E+00 -0.00000000000E+00 -0.37530886122E+03  0.37530886122E+03  0.00000000000E+00 0.  1.
         24    2    1    2    0    0 -0.32592846204E+03 -0.14788604093E+02  0.67330127918E+03  0.75232454438E+03  0.78800649371E+02 0.  0.
        254    2    1    2    0    0  0.32592846204E+03  0.14788604093E+02  0.34832966252E+03  0.10199241198E+04  0.90136762262E+03 0.  0.
         23    2    4    4    0    0  0.22251804696E+03 -0.43014866731E+03  0.17579261744E+03  0.52290223351E+03  0.89339488766E+02 0.  0.
         23    2    4    4    0    0  0.10341041508E+03  0.44493727140E+03  0.17253704508E+03  0.49702188625E+03  0.92729898414E+02 0.  0.
          2    1    3    3  502    0 -0.32399189203E+03 -0.21626842399E+02  0.66989212569E+03  0.74444202358E+03  0.00000000000E+00 0. -1.
         -1    1    3    3    0  502 -0.19365700077E+01  0.68382383059E+01  0.34091534957E+01  0.78825207948E+01  0.00000000000E+00 0.  1.
         11    1    5    5    0    0  0.19381505194E+03 -0.41813590037E+03  0.15888488301E+03  0.48748980665E+03  0.00000000000E+00 0. -1.
        -11    1    5    5    0    0  0.28702995019E+02 -0.12012766938E+02  0.16907734433E+02  0.35412426862E+02  0.00000000000E+00 0.  1.
          3    1    6    6  503    0  0.11592418296E+03  0.43433374395E+03  0.16389856849E+03  0.47848402072E+03  0.00000000000E+00 0. -1.
         -3    1    6    6    0  503 -0.12513767874E+02  0.10603527447E+02  0.86384765888E+01  0.18537865532E+02  0.00000000000E+00 0.  1.
<mgrwt>
<rscale>  0 0.14481490E+04</rscale>
<asrwt>0</asrwt>
<pdfrwt beam="1">  1        2 0.21491381E+00 0.14481490E+04</pdfrwt>
<pdfrwt beam="2">  1       -1 0.57739826E-01 0.14481490E+04</pdfrwt>
<totfact> 0.48794341E+01</totfact>
</mgrwt>
</event>
<event>
12    6  0.1530720E-007  0.1937084E+04  0.7818608E-02  0.8636614E-01
         -1   -1    0    0    0  501 -0.00000000000E+00  0.00000000000E+00  0.54922263272E+03  0.54922263272E+03  0.00000000000E+00 0.  1.
          2   -1    0    0  501    0  0.00000000000E+00 -0.00000000000E+00 -0.17080028190E+04  0.17080028190E+04  0.00000000000E+00 0. -1.
         24    2    1    2    0    0 -0.25304805513E+03  0.95752903403E+02  0.36291680701E+03  0.45989495753E+03  0.81196221770E+02 0.  0.
        254    2    1    2    0    0  0.25304805513E+03 -0.95752903403E+02 -0.15216969933E+04  0.17973304942E+04  0.91740570593E+03 0.  0.
         23    2    4    4    0    0 -0.21792149868E+03 -0.46648897410E+02 -0.43138891436E+02  0.24191451717E+03  0.83640722435E+02 0.  0.
         23    2    4    4    0    0  0.47096955381E+03 -0.49104005993E+02 -0.14785581018E+04  0.15554159770E+04  0.94664021737E+02 0.  0.
          2    1    3    3  502    0 -0.90148638262E+02  0.51333318379E+02  0.19979813698E+03  0.22512481448E+03  0.00000000000E+00 0. -1.
         -1    1    3    3    0  502 -0.16289941687E+03  0.44419585024E+02  0.16311867003E+03  0.23477014304E+03  0.00000000000E+00 0.  1.
         11    1    5    5    0    0 -0.20783457038E+03 -0.27079634070E+02 -0.55298838166E+02  0.21676364254E+03  0.00000000000E+00 0.  1.
        -11    1    5    5    0    0 -0.10086928297E+02 -0.19569263340E+02  0.12159946730E+02  0.25150874629E+02  0.00000000000E+00 0. -1.
          2    1    6    6  503    0  0.23293310240E+03  0.19369155475E+02 -0.77851135701E+03  0.81284249851E+03  0.00000000000E+00 0. -1.
         -2    1    6    6    0  503  0.23803645141E+03 -0.68473161468E+02 -0.70004674483E+03  0.74257347851E+03  0.00000000000E+00 0.  1.
<mgrwt>
<rscale>  0 0.19370842E+04</rscale>
<asrwt>0</asrwt>
<pdfrwt beam="1">  1        2 0.26276967E+00 0.19370842E+04</pdfrwt>
<pdfrwt beam="2">  1       -1 0.84495788E-01 0.19370842E+04</pdfrwt>
<totfact> 0.14317409E+01</totfact>
</mgrwt>
</event>
<event>
12    6  0.1530720E-007  0.1515386E+04  0.7818608E-02  0.8874286E-01
          2   -1    0    0  501    0  0.00000000000E+00  0.00000000000E+00  0.13756778319E+04  0.13756778319E+04  0.00000000000E+00 0. -1.
         -1   -1    0    0    0  501 -0.00000000000E+00 -0.00000000000E+00 -0.41732040953E+03  0.41732040953E+03  0.00000000000E+00 0.  1.
         24    2    1    2    0    0  0.14383300027E+03  0.15578860554E+03 -0.20619904528E+03  0.30649881954E+03  0.80408074975E+02 0.  0.
        254    2    1    2    0    0 -0.14383300027E+03 -0.15578860554E+03  0.11645564676E+04  0.14864994218E+04  0.89918337581E+03 0.  0.
         23    2    4    4    0    0 -0.38051264277E+03 -0.21389400685E+03  0.11444254236E+04  0.12282514388E+04  0.91386701736E+02 0.  0.
         23    2    4    4    0    0  0.23667964250E+03  0.58105401308E+02  0.20131044046E+02  0.25824798309E+03  0.83025724933E+02 0.  0.
          2    1    3    3  502    0  0.85521853666E+02  0.83823185716E+02 -0.61309504751E+02  0.13453315313E+03  0.00000000000E+00 0. -1.
         -1    1    3    3    0  502  0.58311146605E+02  0.71965419825E+02 -0.14488954053E+03  0.17196566641E+03  0.00000000000E+00 0.  1.
         11    1    5    5    0    0 -0.26173325454E+03 -0.12403714187E+03  0.85544490559E+03  0.90314754918E+03  0.00000000000E+00 0. -1.
        -11    1    5    5    0    0 -0.11877938823E+03 -0.89856864980E+02  0.28898051796E+03  0.32510388957E+03  0.00000000000E+00 0.  1.
          4    1    6    6  503    0  0.17828021370E+03  0.13172858108E+02 -0.90507920924E+01  0.17899518325E+03  0.00000000000E+00 0. -1.
         -4    1    6    6    0  503  0.58399428795E+02  0.44932543200E+02  0.29181836138E+02  0.79252799839E+02  0.00000000000E+00 0.  1.
<mgrwt>
<rscale>  0 0.15153857E+04</rscale>
<asrwt>0</asrwt>
<pdfrwt beam="1">  1        2 0.21164274E+00 0.15153857E+04</pdfrwt>
<pdfrwt beam="2">  1       -1 0.64203141E-01 0.15153857E+04</pdfrwt>
<totfact> 0.40437708E+01</totfact>
</mgrwt>
</event>
<event>
12    6  0.1530720E-007  0.1350629E+04  0.7818608E-02  0.8990352E-01
         -1   -1    0    0    0  501 -0.00000000000E+00  0.00000000000E+00  0.38389251291E+03  0.38389251291E+03  0.00000000000E+00 0.  1.
          2   -1    0    0  501    0  0.00000000000E+00 -0.00000000000E+00 -0.11879611034E+04  0.11879611034E+04  0.00000000000E+00 0. -1.
         24    2    1    2    0    0 -0.12727777257E+03 -0.22703204251E+03  0.86841967701E+02  0.28564548859E+03  0.79426935482E+02 0.  0.
        254    2    1    2    0    0  0.12727777257E+03  0.22703204251E+03 -0.89091055821E+03  0.12862081277E+04  0.89043053935E+03 0.  0.
         23    2    4    4    0    0  0.22471324165E+02 -0.22004312071E+03 -0.76513749502E+03  0.80168875094E+03  0.91353881751E+02 0.  0.
         23    2    4    4    0    0  0.10480644841E+03  0.44707516322E+03 -0.12577306320E+03  0.48451937680E+03  0.89886427642E+02 0.  0.
          2    1    3    3  502    0 -0.11599823649E+03 -0.18067938084E+03  0.39266221678E+02  0.21827154119E+03  0.00000000000E+00 0. -1.
         -1    1    3    3    0  502 -0.11279536079E+02 -0.46352661672E+02  0.47575746023E+02  0.67373947397E+02  0.00000000000E+00 0.  1.
         11    1    5    5    0    0 -0.24595510798E+02 -0.15219566754E+02 -0.81759613376E+02  0.86724902669E+02  0.00000000000E+00 0. -1.
        -11    1    5    5    0    0  0.47066834964E+02 -0.20482355396E+03 -0.68337788164E+03  0.71496384827E+03  0.00000000000E+00 0.  1.
          1    1    6    6  503    0  0.11748154347E+03  0.39346531057E+03 -0.95217863635E+02  0.42152497581E+03  0.00000000000E+00 0. -1.
         -1    1    6    6    0  503 -0.12675095060E+02  0.53609852654E+02 -0.30555199560E+02  0.62994400994E+02  0.00000000000E+00 0.  1.
<mgrwt>
<rscale>  0 0.13506286E+04</rscale>
<asrwt>0</asrwt>
<pdfrwt beam="1">  1        2 0.18276325E+00 0.13506286E+04</pdfrwt>
<pdfrwt beam="2">  1       -1 0.59060387E-01 0.13506286E+04</pdfrwt>
<totfact> 0.62321455E+01</totfact>
</mgrwt>
</event>
<event>
12    6  0.1530720E-007  0.1330780E+04  0.7818608E-02  0.9005506E-01
         -1   -1    0    0    0  501 -0.00000000000E+00  0.00000000000E+00  0.39793140886E+03  0.39793140886E+03  0.00000000000E+00 0.  1.
          2   -1    0    0  501    0  0.00000000000E+00 -0.00000000000E+00 -0.11126133438E+04  0.11126133438E+04  0.00000000000E+00 0. -1.
         24    2    1    2    0    0  0.35220385456E+03 -0.60020202914E+02 -0.25590915802E+03  0.44675517000E+03  0.80316280060E+02 0.  0.
        254    2    1    2    0    0 -0.35220385456E+03  0.60020202914E+02 -0.45877277695E+03  0.10637895827E+04  0.89080067098E+03 0.  0.
         23    2    4    4    0    0 -0.63059845433E+02  0.27043927288E+03  0.16698652497E+03  0.33728390996E+03  0.93605512525E+02 0.  0.
         23    2    4    4    0    0 -0.28914400913E+03 -0.21041906996E+03 -0.62575930192E+03  0.72650567272E+03  0.91407579285E+02 0.  0.
          4    1    3    3  502    0  0.33564233285E+03 -0.49531904304E+02 -0.21574828161E+03  0.40206530087E+03  0.00000000000E+00 0. -1.
         -1    1    3    3    0  502  0.16561521704E+02 -0.10488298610E+02 -0.40160876411E+02  0.44689869131E+02  0.00000000000E+00 0.  1.
         11    1    5    5    0    0 -0.24969811867E+02  0.21880031567E+03  0.16108288290E+03  0.27284567947E+03  0.00000000000E+00 0.  1.
        -11    1    5    5    0    0 -0.38090033566E+02  0.51638957209E+02  0.59036420639E+01  0.64438230487E+02  0.00000000000E+00 0. -1.
          2    1    6    6  503    0 -0.12411280637E+02 -0.28062493074E+02 -0.21962046946E+02  0.37734267061E+02  0.00000000000E+00 0. -1.
         -2    1    6    6    0  503 -0.27673272849E+03 -0.18235657689E+03 -0.60379725497E+03  0.68877140566E+03  0.00000000000E+00 0.  1.
<mgrwt>
<rscale>  0 0.13307799E+04</rscale>
<asrwt>0</asrwt>
<pdfrwt beam="1">  1        2 0.17117128E+00 0.13307799E+04</pdfrwt>
<pdfrwt beam="2">  1       -1 0.61220218E-01 0.13307799E+04</pdfrwt>
<totfact> 0.64594259E+01</totfact>
</mgrwt>
</event>
<event>
12    6  0.1530720E-007  0.1274986E+04  0.7818608E-02  0.9049640E-01
         -1   -1    0    0    0  501 -0.00000000000E+00  0.00000000000E+00  0.20907206837E+03  0.20907206837E+03  0.00000000000E+00 0.  1.
          2   -1    0    0  501    0  0.00000000000E+00 -0.00000000000E+00 -0.19438142171E+04  0.19438142171E+04  0.00000000000E+00 0. -1.
         24    2    1    2    0    0  0.35798758418E+02 -0.18499912108E+03 -0.12774161755E+02  0.20552086647E+03  0.81051967536E+02 0.  0.
        254    2    1    2    0    0 -0.35798758418E+02  0.18499912108E+03 -0.17219679870E+04  0.19473654190E+04  0.88969213834E+03 0.  0.
         23    2    4    4    0    0 -0.95369715053E+02  0.34758425763E+03 -0.21806228266E+03  0.43073636711E+03  0.89846870424E+02 0.  0.
         23    2    4    4    0    0  0.59570956635E+02 -0.16258513655E+03 -0.15039057043E+04  0.15166290519E+04  0.91916745252E+02 0.  0.
          4    1    3    3  502    0 -0.10189397715E+01 -0.22912175198E+01 -0.18874632328E+02  0.19040474298E+02  0.00000000000E+00 0. -1.
         -3    1    3    3    0  502  0.36817698190E+02 -0.18270790356E+03  0.61004705723E+01  0.18648039218E+03  0.00000000000E+00 0.  1.
         11    1    5    5    0    0 -0.71153216083E+02  0.32143604645E+03 -0.16890039581E+03  0.37001521026E+03  0.00000000000E+00 0. -1.
        -11    1    5    5    0    0 -0.24216498970E+02  0.26148211184E+02 -0.49161886851E+02  0.60721156850E+02  0.00000000000E+00 0.  1.
          1    1    6    6  503    0  0.49331819291E+02 -0.17270186465E+03 -0.13204251900E+04  0.13325847983E+04  0.00000000000E+00 0. -1.
         -1    1    6    6    0  503  0.10239137344E+02  0.10116728104E+02 -0.18348051435E+03  0.18404425355E+03  0.00000000000E+00 0.  1.
<mgrwt>
<rscale>  0 0.12749859E+04</rscale>
<asrwt>0</asrwt>
<pdfrwt beam="1">  1        2 0.29904836E+00 0.12749859E+04</pdfrwt>
<pdfrwt beam="2">  1       -1 0.32164932E-01 0.12749859E+04</pdfrwt>
<totfact> 0.72502527E+01</totfact>
</mgrwt>
</event>
<event>
12    6  0.1530720E-007  0.1098936E+04  0.7818608E-02  0.9206230E-01
          2   -1    0    0  501    0  0.00000000000E+00  0.00000000000E+00  0.17566462674E+04  0.17566462674E+04  0.00000000000E+00 0. -1.
         -1   -1    0    0    0  501 -0.00000000000E+00 -0.00000000000E+00 -0.17187003321E+03  0.17187003321E+03  0.00000000000E+00 0.  1.
         24    2    1    2    0    0 -0.12492037479E+01  0.92542765997E+02  0.15613291803E+02  0.12322111831E+03  0.79836990598E+02 0.  0.
        254    2    1    2    0    0  0.12492037479E+01 -0.92542765997E+02  0.15691629424E+04  0.18052951823E+04  0.88783592597E+03 0.  0.
         23    2    4    4    0    0 -0.18483913029E+03  0.28490103433E+03  0.11576520525E+04  0.12097004027E+04  0.88784494043E+02 0.  0.
         23    2    4    4    0    0  0.18608833403E+03 -0.37744380033E+03  0.41151088992E+03  0.59559477956E+03  0.91100156112E+02 0.  0.
          4    1    3    3  502    0  0.28373075801E+02  0.33123065123E+02  0.32879110512E+02  0.54618721896E+02  0.00000000000E+00 0. -1.
         -1    1    3    3    0  502 -0.29622279549E+02  0.59419700874E+02 -0.17265818709E+02  0.68602396411E+02  0.00000000000E+00 0.  1.
         11    1    5    5    0    0 -0.94060339831E+02  0.18097021830E+03  0.81898118513E+03  0.84399511198E+03  0.00000000000E+00 0.  1.
        -11    1    5    5    0    0 -0.90778790456E+02  0.10393081603E+03  0.33867086733E+03  0.36570529076E+03  0.00000000000E+00 0. -1.
          3    1    6    6  503    0  0.53422608501E+02 -0.45516178595E+02  0.95247199133E+02  0.11831198822E+03  0.00000000000E+00 0. -1.
         -3    1    6    6    0  503  0.13266572553E+03 -0.33192762173E+03  0.31626369079E+03  0.47728279134E+03  0.00000000000E+00 0.  1.
<mgrwt>
<rscale>  0 0.10989356E+04</rscale>
<asrwt>0</asrwt>
<pdfrwt beam="1">  1        2 0.27025326E+00 0.10989356E+04</pdfrwt>
<pdfrwt beam="2">  1       -1 0.26441545E-01 0.10989356E+04</pdfrwt>
<totfact> 0.13124438E+02</totfact>
</mgrwt>
</event>
<event>
12    6  0.1530720E-007  0.1838272E+04  0.7818608E-02  0.8686208E-01
         -1   -1    0    0    0  501 -0.00000000000E+00  0.00000000000E+00  0.58777070889E+03  0.58777070889E+03  0.00000000000E+00 0.  1.
          2   -1    0    0  501    0  0.00000000000E+00 -0.00000000000E+00 -0.14373133816E+04  0.14373133816E+04  0.00000000000E+00 0. -1.
         24    2    1    2    0    0  0.20125219565E+03  0.28874871451E+03  0.33996792499E+03  0.49576367564E+03  0.79530910191E+02 0.  0.
        254    2    1    2    0    0 -0.20125219565E+03 -0.28874871451E+03 -0.11895105977E+04  0.15293204149E+04  0.89443121753E+03 0.  0.
         23    2    4    4    0    0 -0.21902914104E+03  0.27335630555E+03 -0.65371505441E+03  0.74712249121E+03  0.90284052240E+02 0.  0.
         23    2    4    4    0    0  0.17776945397E+02 -0.56210502006E+03 -0.53579554332E+03  0.78219792368E+03  0.92079608001E+02 0.  0.
          4    1    3    3  502    0  0.96185120323E+01  0.14290293142E+02 -0.18669317569E+01  0.17326675560E+02  0.00000000000E+00 0. -1.
         -3    1    3    3    0  502  0.19163368362E+03  0.27445842137E+03  0.34183485674E+03  0.47843700007E+03  0.00000000000E+00 0.  1.
         11    1    5    5    0    0 -0.89641487875E+02  0.16820304235E+03 -0.29018342830E+03  0.34718047448E+03  0.00000000000E+00 0.  1.
        -11    1    5    5    0    0 -0.12938765317E+03  0.10515326320E+03 -0.36353162612E+03  0.39994201672E+03  0.00000000000E+00 0. -1.
          1    1    6    6  503    0 -0.20330351492E+02 -0.17502689311E+03 -0.21532113553E+03  0.27822819395E+03  0.00000000000E+00 0. -1.
         -1    1    6    6    0  503  0.38107296889E+02 -0.38707812695E+03 -0.32047440779E+03  0.50396972973E+03  0.00000000000E+00 0.  1.
<mgrwt>
<rscale>  0 0.18382717E+04</rscale>
<asrwt>0</asrwt>
<pdfrwt beam="1">  1        2 0.22112513E+00 0.18382717E+04</pdfrwt>
<pdfrwt beam="2">  1       -1 0.90426264E-01 0.18382717E+04</pdfrwt>
<totfact> 0.17664825E+01</totfact>
</mgrwt>
</event>
<event>
12    6  0.1530720E-007  0.2276644E+04  0.7818608E-02  0.8487188E-01
          2   -1    0    0  501    0  0.00000000000E+00  0.00000000000E+00  0.42239270933E+04  0.42239270933E+04  0.00000000000E+00 0. -1.
         -1   -1    0    0    0  501 -0.00000000000E+00 -0.00000000000E+00 -0.30677057204E+03  0.30677057204E+03  0.00000000000E+00 0.  1.
         24    2    1    2    0    0  0.51808893030E+03 -0.44282961599E+02  0.32838423084E+04  0.33257031229E+04  0.79396691767E+02 0.  0.
        254    2    1    2    0    0 -0.51808893030E+03  0.44282961599E+02  0.63331421282E+03  0.12049945424E+04  0.88348618253E+03 0.  0.
         23    2    4    4    0    0 -0.36253753139E+03  0.43397119688E+03  0.48498823324E+03  0.75036131306E+03  0.89800068901E+02 0.  0.
         23    2    4    4    0    0 -0.15555139891E+03 -0.38968823529E+03  0.14832597958E+03  0.45463322936E+03  0.92938789497E+02 0.  0.
          4    1    3    3  502    0  0.39634142109E+03 -0.66326225497E+02  0.25661082393E+04  0.25973827570E+04  0.00000000000E+00 0. -1.
         -3    1    3    3    0  502  0.12174750922E+03  0.22043263898E+02  0.71773406910E+03  0.72832036593E+03  0.00000000000E+00 0.  1.
         11    1    5    5    0    0 -0.31081068512E+03  0.40001336980E+03  0.40119600376E+03  0.64619827564E+03  0.00000000000E+00 0. -1.
        -11    1    5    5    0    0 -0.51726846271E+02  0.33957827082E+02  0.83792229476E+02  0.10416303743E+03  0.00000000000E+00 0.  1.
          2    1    6    6  503    0 -0.12922434486E+03 -0.26188563014E+03  0.14006859147E+03  0.32388612952E+03  0.00000000000E+00 0. -1.
         -2    1    6    6    0  503 -0.26327054051E+02 -0.12780260514E+03  0.82573881047E+01  0.13074709983E+03  0.00000000000E+00 0.  1.
<mgrwt>
<rscale>  0 0.22766436E+04</rscale>
<asrwt>0</asrwt>
<pdfrwt beam="1">  1        2 0.64983490E+00 0.22766436E+04</pdfrwt>
<pdfrwt beam="2">  1       -1 0.47195476E-01 0.22766436E+04</pdfrwt>
<totfact> 0.10337145E+00</totfact>
</mgrwt>
</event>
<event>
12    6  0.1530720E-007  0.1551882E+04  0.7818608E-02  0.8850666E-01
         -1   -1    0    0    0  501 -0.00000000000E+00  0.00000000000E+00  0.54936892168E+03  0.54936892168E+03  0.00000000000E+00 0.  1.
          2   -1    0    0  501    0  0.00000000000E+00 -0.00000000000E+00 -0.10959567781E+04  0.10959567781E+04  0.00000000000E+00 0. -1.
         24    2    1    2    0    0 -0.22889791091E+03 -0.44983613175E+03 -0.82135013480E+02  0.51748220921E+03  0.79340263169E+02 0.  0.
        254    2    1    2    0    0  0.22889791091E+03  0.44983613175E+03 -0.46445284290E+03  0.11278434905E+04  0.89530313123E+03 0.  0.
         23    2    4    4    0    0  0.23968036944E+03  0.57076666576E+03 -0.64036827458E+03  0.89558012324E+03  0.93653423983E+02 0.  0.
         23    2    4    4    0    0 -0.10782458522E+02 -0.12093053402E+03  0.17591543168E+03  0.23226336728E+03  0.90882216124E+02 0.  0.
          2    1    3    3  502    0 -0.32114747059E+02 -0.29966869317E+02  0.91976152101E+01  0.44877236556E+02  0.00000000000E+00 0. -1.
         -1    1    3    3    0  502 -0.19678316385E+03 -0.41986926243E+03 -0.91332628691E+02  0.47260497265E+03  0.00000000000E+00 0.  1.
         11    1    5    5    0    0  0.15229303059E+03  0.30179487372E+03 -0.29061722939E+03  0.44579332317E+03  0.00000000000E+00 0. -1.
        -11    1    5    5    0    0  0.87387338847E+02  0.26897179205E+03 -0.34975104519E+03  0.44978680007E+03  0.00000000000E+00 0.  1.
          2    1    6    6  503    0 -0.36958539121E+02 -0.44583561701E+02  0.29299387278E+02  0.64900552254E+02  0.00000000000E+00 0. -1.
         -2    1    6    6    0  503  0.26176080600E+02 -0.76346972314E+02  0.14661604440E+03  0.16736281503E+03  0.00000000000E+00 0.  1.
<mgrwt>
<rscale>  0 0.15518822E+04</rscale>
<asrwt>0</asrwt>
<pdfrwt beam="1">  1        2 0.16860874E+00 0.15518822E+04</pdfrwt>
<pdfrwt beam="2">  1       -1 0.84518296E-01 0.15518822E+04</pdfrwt>
<totfact> 0.33346531E+01</totfact>
</mgrwt>
</event>
<event>
12    6  0.1530720E-007  0.1880470E+04  0.7818608E-02  0.8664639E-01
         -1   -1    0    0    0  501 -0.00000000000E+00  0.00000000000E+00  0.16670761218E+04  0.16670761218E+04  0.00000000000E+00 0.  1.
          2   -1    0    0  501    0  0.00000000000E+00 -0.00000000000E+00 -0.53029476209E+03  0.53029476209E+03  0.00000000000E+00 0. -1.
         24    2    1    2    0    0  0.25380626080E+03  0.52073316405E+03  0.93920174503E+03  0.11068247587E+04  0.85909734570E+02 0.  0.
        254    2    1    2    0    0 -0.25380626080E+03 -0.52073316405E+03  0.19757961472E+03  0.10905461252E+04  0.90259210105E+03 0.  0.
         23    2    4    4    0    0 -0.37642331174E+03 -0.49847466585E+03 -0.20150194215E+03  0.66274146579E+03  0.91933213123E+02 0.  0.
         23    2    4    4    0    0  0.12261705094E+03 -0.22258498196E+02  0.39908155687E+03  0.42780465941E+03  0.90666177065E+02 0.  0.
          4    1    3    3  502    0  0.78468742219E+02  0.23856829360E+03  0.35651437190E+03  0.43609021038E+03  0.00000000000E+00 0. -1.
         -3    1    3    3    0  502  0.17533751858E+03  0.28216487044E+03  0.58268737313E+03  0.67073454834E+03  0.00000000000E+00 0.  1.
         11    1    5    5    0    0  0.19196513443E+01 -0.68232012106E+00  0.40786127380E+01  0.45591341171E+01  0.00000000000E+00 0. -1.
        -11    1    5    5    0    0 -0.37834296308E+03 -0.49779234573E+03 -0.20558055489E+03  0.65818233167E+03  0.00000000000E+00 0.  1.
          3    1    6    6  503    0  0.10233993017E+03 -0.51465099115E+02  0.25756319500E+03  0.28188812879E+03  0.00000000000E+00 0. -1.
         -3    1    6    6    0  503  0.20277120761E+02  0.29206600919E+02  0.14151836187E+03  0.14591653062E+03  0.00000000000E+00 0.  1.
<mgrwt>
<rscale>  0 0.18804699E+04</rscale>
<asrwt>0</asrwt>
<pdfrwt beam="1">  1        2 0.81583811E-01 0.18804699E+04</pdfrwt>
<pdfrwt beam="2">  1       -1 0.25647325E+00 0.18804699E+04</pdfrwt>
<totfact> 0.38970656E+00</totfact>
</mgrwt>
</event>
<event>
12    6  0.1530720E-007  0.1675142E+04  0.7818608E-02  0.8775670E-01
         -1   -1    0    0    0  501 -0.00000000000E+00  0.00000000000E+00  0.89681462386E+03  0.89681462386E+03  0.00000000000E+00 0.  1.
          2   -1    0    0  501    0  0.00000000000E+00 -0.00000000000E+00 -0.78224059201E+03  0.78224059201E+03  0.00000000000E+00 0. -1.
         24    2    1    2    0    0  0.40646435557E+03 -0.55801189802E+02 -0.40000990857E+03  0.57830455078E+03  0.78110059333E+02 0.  0.
        254    2    1    2    0    0 -0.40646435557E+03  0.55801189802E+02  0.51458394042E+03  0.11007506651E+04  0.88234253542E+03 0.  0.
         23    2    4    4    0    0 -0.30781028715E+03  0.34097631930E+03 -0.32901133858E+02  0.46910424856E+03  0.89242860813E+02 0.  0.
         23    2    4    4    0    0 -0.98654068418E+02 -0.28517512950E+03  0.54748507428E+03  0.63164641653E+03  0.90442297924E+02 0.  0.
          2    1    3    3  502    0  0.34736309611E+03 -0.75253596818E+02 -0.34138473177E+03  0.49281615178E+03  0.00000000000E+00 0. -1.
         -1    1    3    3    0  502  0.59101259458E+02  0.19452407017E+02 -0.58625176801E+02  0.85488398998E+02  0.00000000000E+00 0.  1.
         11    1    5    5    0    0 -0.18435575137E+03  0.25733317921E+03 -0.43865281267E+02  0.31958030460E+03  0.00000000000E+00 0.  1.
        -11    1    5    5    0    0 -0.12345453578E+03  0.83643140091E+02  0.10964147409E+02  0.14952394396E+03  0.00000000000E+00 0. -1.
          3    1    6    6  503    0  0.11769439433E+02 -0.32190765781E+02  0.10169083811E+03  0.10731165669E+03  0.00000000000E+00 0. -1.
         -3    1    6    6    0  503 -0.11042350785E+03 -0.25298436372E+03  0.44579423617E+03  0.52433475984E+03  0.00000000000E+00 0.  1.
<mgrwt>
<rscale>  0 0.16751415E+04</rscale>
<asrwt>0</asrwt>
<pdfrwt beam="1">  1        2 0.12034471E+00 0.16751415E+04</pdfrwt>
<pdfrwt beam="2">  1       -1 0.13797148E+00 0.16751415E+04</pdfrwt>
<totfact> 0.16822441E+01</totfact>
</mgrwt>
</event>
<event>
12    6  0.1530720E-007  0.1625288E+04  0.7818608E-02  0.8805161E-01
          2   -1    0    0  501    0  0.00000000000E+00  0.00000000000E+00  0.20719037834E+04  0.20719037834E+04  0.00000000000E+00 0. -1.
         -1   -1    0    0    0  501 -0.00000000000E+00 -0.00000000000E+00 -0.31873608366E+03  0.31873608366E+03  0.00000000000E+00 0.  1.
         24    2    1    2    0    0  0.14202078293E+03 -0.21705587682E+03  0.13357252690E+04  0.13629904267E+04  0.79358380351E+02 0.  0.
        254    2    1    2    0    0 -0.14202078293E+03  0.21705587682E+03  0.41744243078E+03  0.10276494404E+04  0.90250874395E+03 0.  0.
         23    2    4    4    0    0 -0.26687773878E+03  0.40658172987E+03  0.55805464062E+03  0.74583013172E+03  0.91132721555E+02 0.  0.
         23    2    4    4    0    0  0.12485695584E+03 -0.18952585304E+03 -0.14061220985E+03  0.28181930869E+03  0.90227605516E+02 0.  0.
          4    1    3    3  502    0  0.77027662712E+02 -0.99784831503E+02  0.84200638951E+03  0.85139005949E+03  0.00000000000E+00 0. -1.
         -3    1    3    3    0  502  0.64993120220E+02 -0.11727104532E+03  0.49371887948E+03  0.51160036719E+03  0.00000000000E+00 0.  1.
         11    1    5    5    0    0 -0.71916748328E+01  0.62750254896E+02  0.58072434046E+02  0.85800479442E+02  0.00000000000E+00 0.  1.
        -11    1    5    5    0    0 -0.25968606394E+03  0.34383147497E+03  0.49998220658E+03  0.66002965227E+03  0.00000000000E+00 0. -1.
          1    1    6    6  503    0  0.13763894040E+03 -0.15490286402E+03 -0.11629443087E+03  0.23762106356E+03  0.00000000000E+00 0. -1.
         -1    1    6    6    0  503 -0.12781984556E+02 -0.34622989022E+02 -0.24317778977E+02  0.44198245128E+02  0.00000000000E+00 0.  1.
<mgrwt>
<rscale>  0 0.16252883E+04</rscale>
<asrwt>0</asrwt>
<pdfrwt beam="1">  1        2 0.31875442E+00 0.16252883E+04</pdfrwt>
<pdfrwt beam="2">  1       -1 0.49036322E-01 0.16252883E+04</pdfrwt>
<totfact> 0.27671531E+01</totfact>
</mgrwt>
</event>
<event>
12    6  0.1530720E-007  0.1116467E+04  0.7818608E-02  0.9189289E-01
         -1   -1    0    0    0  501 -0.00000000000E+00  0.00000000000E+00  0.10303452972E+04  0.10303452972E+04  0.00000000000E+00 0.  1.
          2   -1    0    0  501    0  0.00000000000E+00 -0.00000000000E+00 -0.30244682862E+03  0.30244682862E+03  0.00000000000E+00 0. -1.
         24    2    1    2    0    0 -0.17767130163E+03  0.32130945548E+02  0.14768557172E+03  0.24661370583E+03  0.80048752178E+02 0.  0.
        254    2    1    2    0    0  0.17767130163E+03 -0.32130945548E+02  0.58021289689E+03  0.10861784200E+04  0.90029832016E+03 0.  0.
         23    2    4    4    0    0  0.52060656319E+03  0.28650558669E+02  0.47306476124E+03  0.71009225398E+03  0.92675199949E+02 0.  0.
         23    2    4    4    0    0 -0.34293526155E+03 -0.60781504217E+02  0.10714813564E+03  0.37608616603E+03  0.93065011858E+02 0.  0.
          2    1    3    3  502    0 -0.48092534970E+02  0.22924992349E+02  0.89755999125E+02  0.10437713626E+03  0.00000000000E+00 0. -1.
         -1    1    3    3    0  502 -0.12957876666E+03  0.92059531990E+01  0.57929572591E+02  0.14223656957E+03  0.00000000000E+00 0.  1.
         11    1    5    5    0    0  0.82173361444E+02 -0.10346126952E+02  0.12008704123E+03  0.14587803517E+03  0.00000000000E+00 0. -1.
        -11    1    5    5    0    0  0.43843320174E+03  0.38996685621E+02  0.35297772001E+03  0.56421421881E+03  0.00000000000E+00 0.  1.
          2    1    6    6  503    0 -0.19893986371E+02 -0.29369599370E+02  0.16351083224E+02  0.39060235323E+02  0.00000000000E+00 0. -1.
         -2    1    6    6    0  503 -0.32304127518E+03 -0.31411904846E+02  0.90797052421E+02  0.33702593070E+03  0.00000000000E+00 0.  1.
<mgrwt>
<rscale>  0 0.11164670E+04</rscale>
<asrwt>0</asrwt>
<pdfrwt beam="1">  1        2 0.46530282E-01 0.11164670E+04</pdfrwt>
<pdfrwt beam="2">  1       -1 0.15851466E+00 0.11164670E+04</pdfrwt>
<totfact> 0.37095176E+01</totfact>
</mgrwt>
</event>
<event>
12    6  0.1530720E-007  0.3154049E+04  0.7818608E-02  0.8201059E-01
          2   -1    0    0  501    0  0.00000000000E+00  0.00000000000E+00  0.29784019144E+04  0.29784019144E+04  0.00000000000E+00 0. -1.
         -1   -1    0    0    0  501 -0.00000000000E+00 -0.00000000000E+00 -0.83501348057E+03  0.83501348057E+03  0.00000000000E+00 0.  1.
         24    2    1    2    0    0  0.14443392087E+04 -0.94604864370E+02  0.92726754495E+03  0.17208238060E+04  0.79646977989E+02 0.  0.
        254    2    1    2    0    0 -0.14443392087E+04  0.94604864370E+02  0.12161208889E+04  0.20925915890E+04  0.89717540760E+03 0.  0.
         23    2    4    4    0    0 -0.81011890695E+02 -0.21589927463E+03  0.17602455131E+02  0.24875500287E+03  0.91617584585E+02 0.  0.
         23    2    4    4    0    0 -0.13633273180E+04  0.31050413900E+03  0.11985184338E+04  0.18438365862E+04  0.90624081234E+02 0.  0.
          4    1    3    3  502    0  0.26366873317E+03  0.12565343920E+02  0.17786405365E+03  0.31829971772E+03  0.00000000000E+00 0. -1.
         -3    1    3    3    0  502  0.11806704755E+04 -0.10717020829E+03  0.74940349130E+03  0.14025240882E+04  0.00000000000E+00 0.  1.
         11    1    5    5    0    0 -0.40694491076E+01 -0.73170989401E+02 -0.30866640926E+02  0.79519202888E+02  0.00000000000E+00 0.  1.
        -11    1    5    5    0    0 -0.76942441587E+02 -0.14272828523E+03  0.48469096057E+02  0.16923579998E+03  0.00000000000E+00 0. -1.
          3    1    6    6  503    0 -0.43554449316E+03  0.10946005693E+03  0.33162517249E+03  0.55826137661E+03  0.00000000000E+00 0. -1.
         -3    1    6    6    0  503 -0.92778282484E+03  0.20104408207E+03  0.86689326127E+03  0.12855752096E+04  0.00000000000E+00 0.  1.
<mgrwt>
<rscale>  0 0.31540487E+04</rscale>
<asrwt>0</asrwt>
<pdfrwt beam="1">  1        2 0.45821568E+00 0.31540487E+04</pdfrwt>
<pdfrwt beam="2">  1       -1 0.12846361E+00 0.31540487E+04</pdfrwt>
<totfact> 0.90069084E-01</totfact>
</mgrwt>
</event>
<event>
12    6  0.1530720E-007  0.1292747E+04  0.7818608E-02  0.9035336E-01
         -1   -1    0    0    0  501 -0.00000000000E+00  0.00000000000E+00  0.47480679578E+03  0.47480679578E+03  0.00000000000E+00 0.  1.
          2   -1    0    0  501    0  0.00000000000E+00 -0.00000000000E+00 -0.87993468318E+03  0.87993468318E+03  0.00000000000E+00 0. -1.
         24    2    1    2    0    0  0.22721788702E+03 -0.23536000527E+03 -0.15290698510E+03  0.36977065432E+03  0.79545524337E+02 0.  0.
        254    2    1    2    0    0 -0.22721788702E+03  0.23536000527E+03 -0.25222090231E+03  0.98497082464E+03  0.89416432582E+03 0.  0.
         23    2    4    4    0    0 -0.30117810687E+03 -0.27772967804E+03 -0.17134661583E+03  0.45248927065E+03  0.86861102758E+02 0.  0.
         23    2    4    4    0    0  0.73960219853E+02  0.51308968331E+03 -0.80874286478E+02  0.53248155399E+03  0.90911043806E+02 0.  0.
          4    1    3    3  502    0  0.10955582901E+03 -0.93743651927E+02 -0.10828609696E+03  0.18032257413E+03  0.00000000000E+00 0. -1.
         -3    1    3    3    0  502  0.11766205800E+03 -0.14161635334E+03 -0.44620888141E+02  0.18944808019E+03  0.00000000000E+00 0.  1.
         11    1    5    5    0    0 -0.13362703798E+03 -0.11921861823E+03 -0.12181086036E+03  0.21658058527E+03  0.00000000000E+00 0.  1.
        -11    1    5    5    0    0 -0.16755106889E+03 -0.15851105981E+03 -0.49535755465E+02  0.23590868538E+03  0.00000000000E+00 0. -1.
          4    1    6    6  503    0  0.48595628307E+02  0.45477779458E+03 -0.95501958642E+02  0.46723120790E+03  0.00000000000E+00 0. -1.
         -4    1    6    6    0  503  0.25364591545E+02  0.58311888731E+02  0.14627672164E+02  0.65250346088E+02  0.00000000000E+00 0.  1.
<mgrwt>
<rscale>  0 0.12927474E+04</rscale>
<asrwt>0</asrwt>
<pdfrwt beam="1">  1        2 0.13537457E+00 0.12927474E+04</pdfrwt>
<pdfrwt beam="2">  1       -1 0.73047200E-01 0.12927474E+04</pdfrwt>
<totfact> 0.64000302E+01</totfact>
</mgrwt>
</event>
<event>
12    6  0.1530720E-007  0.2223631E+04  0.7818608E-02  0.8508656E-01
         -1   -1    0    0    0  501 -0.00000000000E+00  0.00000000000E+00  0.33384386895E+03  0.33384386895E+03  0.00000000000E+00 0.  1.
          2   -1    0    0  501    0  0.00000000000E+00 -0.00000000000E+00 -0.37027300705E+04  0.37027300705E+04  0.00000000000E+00 0. -1.
         24    2    1    2    0    0 -0.88367870448E+02  0.89119643249E+03 -0.97443979541E+03  0.13259406423E+04  0.80905562809E+02 0.  0.
        254    2    1    2    0    0  0.88367870448E+02 -0.89119643249E+03 -0.23944464061E+04  0.27106332972E+04  0.90117662988E+03 0.  0.
         23    2    4    4    0    0 -0.81963395661E+02 -0.69404753487E+03 -0.23203078996E+04  0.24250080202E+04  0.91734236242E+02 0.  0.
         23    2    4    4    0    0  0.17033126611E+03 -0.19714889761E+03 -0.74138506489E+02  0.28562527698E+03  0.90580641747E+02 0.  0.
          4    1    3    3  502    0  0.21113034021E+01  0.18511932949E+03 -0.24037142088E+03  0.30340079718E+03  0.00000000000E+00 0. -1.
         -3    1    3    3    0  502 -0.90479173851E+02  0.70607710300E+03 -0.73406837452E+03  0.10225398451E+04  0.00000000000E+00 0.  1.
         11    1    5    5    0    0 -0.26020225615E+02 -0.42998258655E+03 -0.15515497750E+04  0.16102387342E+04  0.00000000000E+00 0.  1.
        -11    1    5    5    0    0 -0.55943170046E+02 -0.26406494832E+03 -0.76875812465E+03  0.81476928601E+03  0.00000000000E+00 0. -1.
          1    1    6    6  503    0  0.15914838694E+02  0.50625981589E+01 -0.18988973882E+02  0.25288201199E+02  0.00000000000E+00 0. -1.
         -1    1    6    6    0  503  0.15441642741E+03 -0.20221149577E+03 -0.55149532607E+02  0.26033707578E+03  0.00000000000E+00 0.  1.
<mgrwt>
<rscale>  0 0.22236310E+04</rscale>
<asrwt>0</asrwt>
<pdfrwt beam="1">  1        2 0.56965078E+00 0.22236310E+04</pdfrwt>
<pdfrwt beam="2">  1       -1 0.51360595E-01 0.22236310E+04</pdfrwt>
<totfact> 0.23099968E+00</totfact>
</mgrwt>
</event>
<event>
12    6  0.1530720E-007  0.1346988E+04  0.7818608E-02  0.8993111E-01
         -1   -1    0    0    0  501 -0.00000000000E+00  0.00000000000E+00  0.13537941760E+04  0.13537941760E+04  0.00000000000E+00 0.  1.
          2   -1    0    0  501    0  0.00000000000E+00 -0.00000000000E+00 -0.33505397299E+03  0.33505397299E+03  0.00000000000E+00 0. -1.
         24    2    1    2    0    0  0.40349675938E+01  0.25406418407E+03 -0.38488649775E+02  0.27647105589E+03  0.10193124151E+03 0.  0.
        254    2    1    2    0    0 -0.40349675938E+01 -0.25406418407E+03  0.10572288528E+04  0.14123770931E+04  0.90139409548E+03 0.  0.
         23    2    4    4    0    0  0.51429982359E+02 -0.43761937747E+03  0.11073034062E+04  0.11952315873E+04  0.91115044054E+02 0.  0.
         23    2    4    4    0    0 -0.55464949953E+02  0.18355519340E+03 -0.50074553393E+02  0.21714550583E+03  0.88745930078E+02 0.  0.
          4    1    3    3  502    0  0.39043215403E+02  0.61496539619E+02 -0.34758528245E+02  0.80711537837E+02  0.00000000000E+00 0. -1.
         -3    1    3    3    0  502 -0.35008247809E+02  0.19256764445E+03 -0.37301215296E+01  0.19575951805E+03  0.00000000000E+00 0.  1.
         11    1    5    5    0    0  0.76598381584E+02 -0.35256008572E+03  0.90968274346E+03  0.97861566504E+03  0.00000000000E+00 0.  1.
        -11    1    5    5    0    0 -0.25168399225E+02 -0.85059291752E+02  0.19762066272E+03  0.21661592224E+03  0.00000000000E+00 0. -1.
          3    1    6    6  503    0 -0.36685684556E+02  0.17060420671E+03 -0.14790830846E+02  0.17512967617E+03  0.00000000000E+00 0. -1.
         -3    1    6    6    0  503 -0.18779265397E+02  0.12950986696E+02 -0.35283722547E+02  0.42015829660E+02  0.00000000000E+00 0.  1.
<mgrwt>
<rscale>  0 0.13469879E+04</rscale>
<asrwt>0</asrwt>
<pdfrwt beam="1">  1        2 0.51546766E-01 0.13469879E+04</pdfrwt>
<pdfrwt beam="2">  1       -1 0.20827602E+00 0.13469879E+04</pdfrwt>
<totfact> 0.14338801E+01</totfact>
</mgrwt>
</event>
<event>
12    6  0.1530720E-007  0.1711896E+04  0.7818608E-02  0.8754608E-01
         -1   -1    0    0    0  501 -0.00000000000E+00  0.00000000000E+00  0.57917540767E+03  0.57917540767E+03  0.00000000000E+00 0.  1.
          2   -1    0    0  501    0  0.00000000000E+00 -0.00000000000E+00 -0.12649832933E+04  0.12649832933E+04  0.00000000000E+00 0. -1.
         24    2    1    2    0    0 -0.13296383281E+03  0.54525303180E+03 -0.50738784165E+03  0.76069681905E+03  0.78974547371E+02 0.  0.
        254    2    1    2    0    0  0.13296383281E+03 -0.54525303180E+03 -0.17842004398E+03  0.10834618819E+04  0.90943701704E+03 0.  0.
         23    2    4    4    0    0 -0.70540328740E+02 -0.43178895747E+02 -0.45272218074E+03  0.46933659295E+03  0.92082080402E+02 0.  0.
         23    2    4    4    0    0  0.20350416156E+03 -0.50207413605E+03  0.27430213676E+03  0.61412528898E+03  0.91737813738E+02 0.  0.
          2    1    3    3  502    0 -0.18811596628E+02  0.93576739884E+02 -0.12923700836E+03  0.16066327130E+03  0.00000000000E+00 0. -1.
         -1    1    3    3    0  502 -0.11415223619E+03  0.45167629192E+03 -0.37815083329E+03  0.60003354775E+03  0.00000000000E+00 0.  1.
         11    1    5    5    0    0 -0.52915716822E+02 -0.51420017678E+02 -0.43987778307E+03  0.44602304351E+03  0.00000000000E+00 0.  1.
        -11    1    5    5    0    0 -0.17624611918E+02  0.82411219310E+01 -0.12844397672E+02  0.23313549440E+02  0.00000000000E+00 0. -1.
          2    1    6    6  503    0  0.12414235954E+03 -0.25774510741E+03  0.19131543482E+03  0.34415906414E+03  0.00000000000E+00 0.  1.
         -2    1    6    6    0  503  0.79361802010E+02 -0.24432902865E+03  0.82986701933E+02  0.26996622484E+03  0.00000000000E+00 0. -1.
<mgrwt>
<rscale>  0 0.17118963E+04</rscale>
<asrwt>0</asrwt>
<pdfrwt beam="1">  1        2 0.19461281E+00 0.17118963E+04</pdfrwt>
<pdfrwt beam="2">  1       -1 0.89103911E-01 0.17118963E+04</pdfrwt>
<totfact> 0.23199452E+01</totfact>
</mgrwt>
</event>
<event>
12    6  0.1530720E-007  0.1250979E+04  0.7818608E-02  0.9069369E-01
          2   -1    0    0  501    0  0.00000000000E+00  0.00000000000E+00  0.11211180605E+04  0.11211180605E+04  0.00000000000E+00 0. -1.
         -1   -1    0    0    0  501 -0.00000000000E+00 -0.00000000000E+00 -0.34897022587E+03  0.34897022587E+03  0.00000000000E+00 0.  1.
         24    2    1    2    0    0 -0.67440440404E+02 -0.21803450588E+03 -0.41172239324E+02  0.24616444602E+03  0.82550120767E+02 0.  0.
        254    2    1    2    0    0  0.67440440404E+02  0.21803450588E+03  0.81332007398E+03  0.12239238404E+04  0.88567079974E+03 0.  0.
         23    2    4    4    0    0 -0.22545475387E+02  0.50418914437E+03  0.73864086698E+03  0.89920056433E+03  0.90864364544E+02 0.  0.
         23    2    4    4    0    0  0.89985915790E+02 -0.28615463849E+03  0.74679206993E+02  0.32472327603E+03  0.99429773566E+02 0.  0.
          4    1    3    3  502    0 -0.73800232815E+02 -0.22255066591E+03 -0.37165387593E+02  0.23739532282E+03  0.00000000000E+00 0. -1.
         -3    1    3    3    0  502  0.63597924120E+01  0.45161600323E+01 -0.40068517313E+01  0.87691232035E+01  0.00000000000E+00 0.  1.
         11    1    5    5    0    0 -0.74938869235E+01  0.48623212538E+03  0.72186541257E+03  0.87038354301E+03  0.00000000000E+00 0. -1.
        -11    1    5    5    0    0 -0.15051588463E+02  0.17957018992E+02  0.16775454419E+02  0.28817021312E+02  0.00000000000E+00 0.  1.
          1    1    6    6  503    0  0.84326818319E+02 -0.24880841283E+03  0.27292511997E+02  0.26412406137E+03  0.00000000000E+00 0. -1.
         -1    1    6    6    0  503  0.56590974719E+01 -0.37346225655E+02  0.47386694996E+02  0.60599214661E+02  0.00000000000E+00 0.  1.
<mgrwt>
<rscale>  0 0.12509785E+04</rscale>
<asrwt>0</asrwt>
<pdfrwt beam="1">  1        2 0.17247970E+00 0.12509785E+04</pdfrwt>
<pdfrwt beam="2">  1       -1 0.53687727E-01 0.12509785E+04</pdfrwt>
<totfact> 0.83002864E+01</totfact>
</mgrwt>
</event>
<event>
12    6  0.1530720E-007  0.2655435E+04  0.7818608E-02  0.8349611E-01
         -1   -1    0    0    0  501 -0.00000000000E+00  0.00000000000E+00  0.69140690578E+03  0.69140690578E+03  0.00000000000E+00 0.  1.
          2   -1    0    0  501    0  0.00000000000E+00 -0.00000000000E+00 -0.25496326308E+04  0.25496326308E+04  0.00000000000E+00 0. -1.
         24    2    1    2    0    0 -0.67465215394E+03 -0.55774964778E+03  0.14976187795E+03  0.89142971999E+03  0.77318349613E+02 0.  0.
        254    2    1    2    0    0  0.67465215394E+03  0.55774964778E+03 -0.20079876029E+04  0.23496098165E+04  0.84994816198E+03 0.  0.
         23    2    4    4    0    0  0.35438147482E+03 -0.54543559378E+02 -0.13164773667E+04  0.13675102359E+04  0.91708007068E+02 0.  0.
         23    2    4    4    0    0  0.32027067911E+03  0.61229320716E+03 -0.69151023619E+03  0.98209958065E+03  0.94111105202E+02 0.  0.
          2    1    3    3  502    0 -0.25084968696E+03 -0.18368276322E+03  0.20627712127E+02  0.31159336556E+03  0.00000000000E+00 0. -1.
         -3    1    3    3    0  502 -0.42380246697E+03 -0.37406688456E+03  0.12913416582E+03  0.57983635443E+03  0.00000000000E+00 0.  1.
         11    1    5    5    0    0  0.14435827443E+03 -0.86582319581E+01 -0.37787184941E+03  0.40460031012E+03  0.00000000000E+00 0.  1.
        -11    1    5    5    0    0  0.21002320040E+03 -0.45885327420E+02 -0.93860551733E+03  0.96290992576E+03  0.00000000000E+00 0. -1.
          2    1    6    6  503    0  0.24897987902E+03  0.54392348049E+03 -0.60481708756E+03  0.85067469822E+03  0.00000000000E+00 0. -1.
         -2    1    6    6    0  503  0.71290800089E+02  0.68369726670E+02 -0.86693148636E+02  0.13142488243E+03  0.00000000000E+00 0.  1.
<mgrwt>
<rscale>  0 0.26554349E+04</rscale>
<asrwt>0</asrwt>
<pdfrwt beam="1">  1        2 0.39225118E+00 0.26554349E+04</pdfrwt>
<pdfrwt beam="2">  1       -1 0.10637029E+00 0.26554349E+04</pdfrwt>
<totfact> 0.26927051E+00</totfact>
</mgrwt>
</event>
<event>
12    6  0.1530720E-007  0.1626900E+04  0.7818608E-02  0.8804191E-01
         -1   -1    0    0    0  501 -0.00000000000E+00  0.00000000000E+00  0.17471965237E+03  0.17471965237E+03  0.00000000000E+00 0.  1.
          2   -1    0    0  501    0  0.00000000000E+00 -0.00000000000E+00 -0.37872138021E+04  0.37872138021E+04  0.00000000000E+00 0. -1.
         24    2    1    2    0    0  0.27529189689E+03  0.15008317028E+03 -0.12790166445E+03  0.34910695364E+03  0.84889591927E+02 0.  0.
        254    2    1    2    0    0 -0.27529189689E+03 -0.15008317028E+03 -0.34845924852E+04  0.36128265008E+04  0.90101051611E+03 0.  0.
         23    2    4    4    0    0 -0.42118991081E+03  0.90332283569E+02 -0.81007459849E+03  0.92199586298E+03  0.91074990028E+02 0.  0.
         23    2    4    4    0    0  0.14589801392E+03 -0.24041545385E+03 -0.26745178868E+04  0.26908306378E+04  0.91857356543E+02 0.  0.
          4    1    3    3  502    0  0.14455400025E+02  0.27966598159E+02 -0.33624505896E+02  0.46061877938E+02  0.00000000000E+00 0. -1.
         -1    1    3    3    0  502  0.26083649686E+03  0.12211657212E+03 -0.94277158557E+02  0.30304507570E+03  0.00000000000E+00 0.  1.
         11    1    5    5    0    0 -0.21245835016E+03  0.91333122025E+02 -0.44268683332E+03  0.49945162141E+03  0.00000000000E+00 0. -1.
        -11    1    5    5    0    0 -0.20873156064E+03 -0.10008384554E+01 -0.36738776517E+03  0.42254424157E+03  0.00000000000E+00 0.  1.
          3    1    6    6  503    0  0.40473255231E+02 -0.12044037956E+03 -0.86558562464E+03  0.87486138502E+03  0.00000000000E+00 0. -1.
         -3    1    6    6    0  503  0.10542475869E+03 -0.11997507428E+03 -0.18089322621E+04  0.18159692528E+04  0.00000000000E+00 0.  1.
<mgrwt>
<rscale>  0 0.16268997E+04</rscale>
<asrwt>0</asrwt>
<pdfrwt beam="1">  1        2 0.58264825E+00 0.16268997E+04</pdfrwt>
<pdfrwt beam="2">  1       -1 0.26879948E-01 0.16268997E+04</pdfrwt>
<totfact> 0.68704821E+00</totfact>
</mgrwt>
</event>
<event>
12    6  0.1530720E-007  0.1457832E+04  0.7818608E-02  0.8912989E-01
          2   -1    0    0  501    0  0.00000000000E+00  0.00000000000E+00  0.13423255473E+04  0.13423255473E+04  0.00000000000E+00 0. -1.
         -3   -1    0    0    0  501 -0.00000000000E+00 -0.00000000000E+00 -0.39581935482E+03  0.39581935482E+03  0.00000000000E+00 0.  1.
         24    2    1    2    0    0  0.32463953407E+01  0.24667463216E+03  0.74145006550E+03  0.78548102439E+03  0.79833118549E+02 0.  0.
        254    2    1    2    0    0 -0.32463953407E+01 -0.24667463216E+03  0.20505612696E+03  0.95266387771E+03  0.89702928350E+03 0.  0.
         23    2    4    4    0    0 -0.62424815220E+01 -0.45335012945E+03 -0.18816571248E+03  0.49952311906E+03  0.92475416599E+02 0.  0.
         23    2    4    4    0    0  0.29960861812E+01  0.20667549729E+03  0.39322183944E+03  0.45314075865E+03  0.89383412490E+02 0.  0.
          4    1    3    3  502    0  0.23987077559E+02  0.20206750210E+03  0.65652901859E+03  0.68734053245E+03  0.00000000000E+00 0. -1.
         -3    1    3    3    0  502 -0.20740682218E+02  0.44607130055E+02  0.84921046908E+02  0.98140491942E+02  0.00000000000E+00 0.  1.
         11    1    5    5    0    0 -0.29916164857E+02 -0.41410673692E+03 -0.18182858730E+03  0.45325600011E+03  0.00000000000E+00 0.  1.
        -11    1    5    5    0    0  0.23673683335E+02 -0.39243392535E+02 -0.63371251819E+01  0.46267118949E+02  0.00000000000E+00 0. -1.
          3    1    6    6  503    0  0.39141013373E+02  0.75916263983E+02  0.11148675907E+03  0.14044427903E+03  0.00000000000E+00 0. -1.
         -3    1    6    6    0  503 -0.36144927192E+02  0.13075923331E+03  0.28173508036E+03  0.31269647962E+03  0.00000000000E+00 0.  1.
<mgrwt>
<rscale>  0 0.14578319E+04</rscale>
<asrwt>0</asrwt>
<pdfrwt beam="1">  1        2 0.20651162E+00 0.14578319E+04</pdfrwt>
<pdfrwt beam="2">  1       -3 0.60895286E-01 0.14578319E+04</pdfrwt>
<totfact> 0.25434588E+01</totfact>
</mgrwt>
</event>
<event>
12    6  0.1530720E-007  0.1536919E+04  0.7818608E-02  0.8860267E-01
         -1   -1    0    0    0  501 -0.00000000000E+00  0.00000000000E+00  0.60571241484E+03  0.60571241484E+03  0.00000000000E+00 0.  1.
          2   -1    0    0  501    0  0.00000000000E+00 -0.00000000000E+00 -0.97493421512E+03  0.97493421512E+03  0.00000000000E+00 0. -1.
         24    2    1    2    0    0 -0.23623906322E+03 -0.33804021252E+03 -0.40840252906E+03  0.58583262559E+03  0.79543442169E+02 0.  0.
        254    2    1    2    0    0  0.23623906322E+03  0.33804021252E+03  0.39180728784E+02  0.99481400436E+03  0.90445546795E+03 0.  0.
         23    2    4    4    0    0  0.36206326835E+03  0.21248065876E+03 -0.35207661855E+03  0.55531706477E+03  0.90450298316E+02 0.  0.
         23    2    4    4    0    0 -0.12582420513E+03  0.12555955376E+03  0.39125734734E+03  0.43949693959E+03  0.92077771075E+02 0.  0.
          2    1    3    3  502    0 -0.21270075708E+03 -0.30763230791E+03 -0.39766238570E+03  0.54590715505E+03  0.00000000000E+00 0. -1.
         -1    1    3    3    0  502 -0.23538306134E+02 -0.30407904611E+02 -0.10740143361E+02  0.39925470541E+02  0.00000000000E+00 0.  1.
         11    1    5    5    0    0  0.13413184017E+02  0.24459932177E+02 -0.43599006908E+01  0.28234916710E+02  0.00000000000E+00 0. -1.
        -11    1    5    5    0    0  0.34865008433E+03  0.18802072658E+03 -0.34771671786E+03  0.52708214806E+03  0.00000000000E+00 0.  1.
          1    1    6    6  503    0 -0.49517706718E+02  0.33874201836E+02  0.23712916765E+03  0.24460111811E+03  0.00000000000E+00 0. -1.
         -1    1    6    6    0  503 -0.76306498414E+02  0.91685351927E+02  0.15412817968E+03  0.19489582148E+03  0.00000000000E+00 0.  1.
<mgrwt>
<rscale>  0 0.15369187E+04</rscale>
<asrwt>0</asrwt>
<pdfrwt beam="1">  1        2 0.14998988E+00 0.15369187E+04</pdfrwt>
<pdfrwt beam="2">  1       -1 0.93186527E-01 0.15369187E+04</pdfrwt>
<totfact> 0.32147937E+01</totfact>
</mgrwt>
</event>
<event>
12    6  0.1530720E-007  0.2937035E+04  0.7818608E-02  0.8261943E-01
         -1   -1    0    0    0  501 -0.00000000000E+00  0.00000000000E+00  0.50436489973E+03  0.50436489973E+03  0.00000000000E+00 0.  1.
          2   -1    0    0  501    0  0.00000000000E+00 -0.00000000000E+00 -0.42757619285E+04  0.42757619285E+04  0.00000000000E+00 0. -1.
         24    2    1    2    0    0  0.10510205607E+04 -0.75100347977E+03 -0.22207674723E+04  0.25704098606E+04  0.80921195784E+02 0.  0.
        254    2    1    2    0    0 -0.10510205607E+04  0.75100347977E+03 -0.15506295565E+04  0.22097169676E+04  0.89985921675E+03 0.  0.
         23    2    4    4    0    0  0.46452482539E+02  0.29696100890E+03 -0.63116856852E+03  0.70498646722E+03  0.91041106790E+02 0.  0.
         23    2    4    4    0    0 -0.10974730432E+04  0.45404247087E+03 -0.91946098796E+03  0.15047305004E+04  0.90574414405E+02 0.  0.
          2    1    3    3  502    0  0.91937805430E+03 -0.68207506864E+03 -0.19331955770E+04  0.22467148339E+04  0.00000000000E+00 0. -1.
         -1    1    3    3    0  502  0.13164250637E+03 -0.68928411134E+02 -0.28757189528E+03  0.32369502668E+03  0.00000000000E+00 0.  1.
         11    1    5    5    0    0 -0.48539298073E+01  0.16138075692E+02 -0.10519903158E+03  0.10654029457E+03  0.00000000000E+00 0.  1.
        -11    1    5    5    0    0  0.51306412346E+02  0.28082293321E+03 -0.52596953694E+03  0.59844617265E+03  0.00000000000E+00 0. -1.
          3    1    6    6  503    0 -0.10401347474E+04  0.44617825546E+03 -0.85755445954E+03  0.14199841476E+04  0.00000000000E+00 0. -1.
         -3    1    6    6    0  503 -0.57338295799E+02  0.78642154047E+01 -0.61906528421E+02  0.84746352784E+02  0.00000000000E+00 0.  1.
<mgrwt>
<rscale>  0 0.29370354E+04</rscale>
<asrwt>0</asrwt>
<pdfrwt beam="1">  1        2 0.65780948E+00 0.29370354E+04</pdfrwt>
<pdfrwt beam="2">  1       -1 0.77594606E-01 0.29370354E+04</pdfrwt>
<totfact> 0.32447581E-01</totfact>
</mgrwt>
</event>
<event>
12    6  0.1530720E-007  0.1912564E+04  0.7818608E-02  0.8648627E-01
         -1   -1    0    0    0  501 -0.00000000000E+00  0.00000000000E+00  0.33003459322E+03  0.33003459322E+03  0.00000000000E+00 0.  1.
          2   -1    0    0  501    0  0.00000000000E+00 -0.00000000000E+00 -0.27708480326E+04  0.27708480326E+04  0.00000000000E+00 0. -1.
         24    2    1    2    0    0 -0.45401697788E+03  0.25268751457E+03 -0.90394348007E+02  0.53364528442E+03  0.81386455920E+02 0.  0.
        254    2    1    2    0    0  0.45401697788E+03 -0.25268751457E+03 -0.23504190914E+04  0.25672373414E+04  0.89233136543E+03 0.  0.
         23    2    4    4    0    0  0.58427882308E+03 -0.43913714496E+03 -0.20591950410E+04  0.21870048312E+04  0.92101789646E+02 0.  0.
         23    2    4    4    0    0 -0.13026184520E+03  0.18644963039E+03 -0.29122405035E+03  0.38023251016E+03  0.89630917076E+02 0.  0.
          2    1    3    3  502    0 -0.47365346555E+02  0.58548997906E+00 -0.11252342036E+02  0.48687103571E+02  0.00000000000E+00 0. -1.
         -1    1    3    3    0  502 -0.40665163133E+03  0.25210202459E+03 -0.79142005971E+02  0.48495818085E+03  0.00000000000E+00 0.  1.
         11    1    5    5    0    0  0.21475353419E+03 -0.21798451367E+03 -0.84451783250E+03  0.89824645730E+03  0.00000000000E+00 0.  1.
        -11    1    5    5    0    0  0.36952528889E+03 -0.22115263129E+03 -0.12146772085E+04  0.12887583739E+04  0.00000000000E+00 0. -1.
          2    1    6    6  503    0 -0.51101680039E+02  0.14774733422E+03 -0.18392592481E+03  0.24139055965E+03  0.00000000000E+00 0.  1.
         -2    1    6    6    0  503 -0.79160165163E+02  0.38702296168E+02 -0.10729812554E+03  0.13884195051E+03  0.00000000000E+00 0. -1.
<mgrwt>
<rscale>  0 0.19125645E+04</rscale>
<asrwt>0</asrwt>
<pdfrwt beam="1">  1        2 0.42628430E+00 0.19125645E+04</pdfrwt>
<pdfrwt beam="2">  1       -1 0.50774554E-01 0.19125645E+04</pdfrwt>
<totfact> 0.10015339E+01</totfact>
</mgrwt>
</event>
<event>
12    6  0.1530720E-007  0.1239142E+04  0.7818608E-02  0.9079269E-01
         -1   -1    0    0    0  501 -0.00000000000E+00  0.00000000000E+00  0.65037862126E+03  0.65037862126E+03  0.00000000000E+00 0.  1.
          2   -1    0    0  501    0  0.00000000000E+00 -0.00000000000E+00 -0.59022243226E+03  0.59022243226E+03  0.00000000000E+00 0. -1.
         24    2    1    2    0    0  0.28919791192E+03  0.55992060442E+02 -0.47996633472E+01  0.30523819685E+03  0.79854724061E+02 0.  0.
        254    2    1    2    0    0 -0.28919791192E+03 -0.55992060442E+02  0.64955852342E+02  0.93536285667E+03  0.88538910531E+03 0.  0.
         23    2    4    4    0    0  0.91350961029E+02 -0.38653470103E+03 -0.51431355386E+02  0.41037505221E+03  0.89489809375E+02 0.  0.
         23    2    4    4    0    0 -0.38054887295E+03  0.33054264058E+03  0.11638720773E+03  0.52498780446E+03  0.89388650058E+02 0.  0.
          2    1    3    3  502    0  0.82709689098E+02  0.23478503658E+02 -0.37253667317E+02  0.93701486292E+02  0.00000000000E+00 0. -1.
         -3    1    3    3    0  502  0.20648822283E+03  0.32513556784E+02  0.32454003970E+02  0.21153671056E+03  0.00000000000E+00 0.  1.
         11    1    5    5    0    0  0.14590233362E+02 -0.24001418429E+03 -0.14510837549E+02  0.24089468233E+03  0.00000000000E+00 0. -1.
        -11    1    5    5    0    0  0.76760727667E+02 -0.14652051674E+03 -0.36920517838E+02  0.16948036988E+03  0.00000000000E+00 0.  1.
          1    1    6    6  503    0 -0.32381824745E+03  0.28866451341E+03  0.13064124618E+03  0.45304811432E+03  0.00000000000E+00 0. -1.
         -1    1    6    6    0  503 -0.56730625501E+02  0.41878127176E+02 -0.14254038452E+02  0.71939690142E+02  0.00000000000E+00 0.  1.
<mgrwt>
<rscale>  0 0.12391417E+04</rscale>
<asrwt>0</asrwt>
<pdfrwt beam="1">  1        2 0.90803452E-01 0.12391417E+04</pdfrwt>
<pdfrwt beam="2">  1       -1 0.10005825E+00 0.12391417E+04</pdfrwt>
<totfact> 0.54198236E+01</totfact>
</mgrwt>
</event>
<event>
12    6  0.1530720E-007  0.1735105E+04  0.7818608E-02  0.8741592E-01
          2   -1    0    0  501    0  0.00000000000E+00  0.00000000000E+00  0.50263214772E+04  0.50263214772E+04  0.00000000000E+00 0. -1.
         -1   -1    0    0    0  501 -0.00000000000E+00 -0.00000000000E+00 -0.14974121321E+03  0.14974121321E+03  0.00000000000E+00 0.  1.
         24    2    1    2    0    0  0.43454741798E+03  0.36173847029E+03  0.96813095897E+03  0.11238428435E+04  0.77839602511E+02 0.  0.
        254    2    1    2    0    0 -0.43454741798E+03 -0.36173847029E+03  0.39084493050E+04  0.40522198469E+04  0.90819796231E+03 0.  0.
         23    2    4    4    0    0  0.46076885879E+02 -0.47407705508E+03  0.11429770452E+04  0.12415272387E+04  0.90117839826E+02 0.  0.
         23    2    4    4    0    0 -0.48062430386E+03  0.11233858479E+03  0.27654722598E+04  0.28106926082E+04  0.92392851759E+02 0.  0.
          2    1    3    3  502    0  0.20321468377E+03  0.15243530801E+03  0.36342576678E+03  0.44340841082E+03  0.00000000000E+00 0. -1.
         -1    1    3    3    0  502  0.23133273420E+03  0.20930316229E+03  0.60470519219E+03  0.68043443263E+03  0.00000000000E+00 0.  1.
         11    1    5    5    0    0  0.53181297641E+02 -0.22162520251E+03  0.62502567348E+03  0.66528420493E+03  0.00000000000E+00 0.  1.
        -11    1    5    5    0    0 -0.71044117618E+01 -0.25245185257E+03  0.51795137171E+03  0.57624303378E+03  0.00000000000E+00 0. -1.
          3    1    6    6  503    0 -0.58174699362E+02  0.22354881614E+02  0.54911340845E+03  0.55263873526E+03  0.00000000000E+00 0. -1.
         -3    1    6    6    0  503 -0.42244960449E+03  0.89983703176E+02  0.22163588513E+04  0.22580538729E+04  0.00000000000E+00 0.  1.
<mgrwt>
<rscale>  0 0.17351052E+04</rscale>
<asrwt>0</asrwt>
<pdfrwt beam="1">  1        2 0.77328010E+00 0.17351052E+04</pdfrwt>
<pdfrwt beam="2">  1       -1 0.23037114E-01 0.17351052E+04</pdfrwt>
<totfact> 0.57445030E-01</totfact>
</mgrwt>
</event>
<event>
12    6  0.1530720E-007  0.1490152E+04  0.7818608E-02  0.8891028E-01
         -1   -1    0    0    0  501 -0.00000000000E+00  0.00000000000E+00  0.60421056246E+03  0.60421056246E+03  0.00000000000E+00 0.  1.
          2   -1    0    0  501    0  0.00000000000E+00 -0.00000000000E+00 -0.91878239298E+03  0.91878239298E+03  0.00000000000E+00 0. -1.
         24    2    1    2    0    0 -0.22697735600E+03 -0.38437567809E+03 -0.24722491508E+03  0.51670588720E+03  0.81249204239E+02 0.  0.
        254    2    1    2    0    0  0.22697735600E+03  0.38437567809E+03 -0.67346915449E+02  0.10062870682E+04  0.89934124483E+03 0.  0.
         23    2    4    4    0    0 -0.30016308878E+02  0.55739835828E+03 -0.26828893185E+03  0.62607126906E+03  0.91609903251E+02 0.  0.
         23    2    4    4    0    0  0.25699366488E+03 -0.17302268018E+03  0.20094201640E+03  0.38021579919E+03  0.90574656233E+02 0.  0.
          4    1    3    3  502    0 -0.12159462238E+03 -0.14296606234E+03 -0.13050167055E+03  0.22859403577E+03  0.00000000000E+00 0. -1.
         -3    1    3    3    0  502 -0.10538273362E+03 -0.24140961576E+03 -0.11672324452E+03  0.28811185143E+03  0.00000000000E+00 0.  1.
         11    1    5    5    0    0  0.23829492525E+02  0.15256962066E+03 -0.46129928946E+02  0.16116235356E+03  0.00000000000E+00 0. -1.
        -11    1    5    5    0    0 -0.53845801404E+02  0.40482873762E+03 -0.22215900291E+03  0.46490891549E+03  0.00000000000E+00 0.  1.
          4    1    6    6  503    0  0.77283357116E+02 -0.54575621148E+02  0.15011877162E+02  0.95794426595E+02  0.00000000000E+00 0. -1.
         -4    1    6    6    0  503  0.17971030776E+03 -0.11844705904E+03  0.18593013924E+03  0.28442137259E+03  0.00000000000E+00 0.  1.
<mgrwt>
<rscale>  0 0.14901517E+04</rscale>
<asrwt>0</asrwt>
<pdfrwt beam="1">  1        2 0.14135114E+00 0.14901517E+04</pdfrwt>
<pdfrwt beam="2">  1       -1 0.92955471E-01 0.14901517E+04</pdfrwt>
<totfact> 0.35341216E+01</totfact>
</mgrwt>
</event>
<event>
12    6  0.1530720E-007  0.2925136E+04  0.7818608E-02  0.8265438E-01
         -1   -1    0    0    0  501 -0.00000000000E+00  0.00000000000E+00  0.14730467373E+04  0.14730467373E+04  0.00000000000E+00 0.  1.
          2   -1    0    0  501    0  0.00000000000E+00 -0.00000000000E+00 -0.14521638012E+04  0.14521638012E+04  0.00000000000E+00 0. -1.
         24    2    1    2    0    0 -0.47268559218E+03  0.99723077860E+03  0.73761089082E+03  0.13301092876E+04  0.84970558434E+02 0.  0.
        254    2    1    2    0    0  0.47268559218E+03 -0.99723077860E+03 -0.71672795475E+03  0.15951012509E+04  0.90152545420E+03 0.  0.
         23    2    4    4    0    0  0.63092159213E+03 -0.10120942036E+04 -0.74461421483E+03  0.14090642442E+04  0.92816932868E+02 0.  0.
         23    2    4    4    0    0 -0.15823599995E+03  0.14863425029E+02  0.27886260077E+02  0.18603700664E+03  0.92588180962E+02 0.  0.
          2    1    3    3  502    0 -0.46874567838E+02  0.53648365059E+02  0.38952932001E+02  0.81195462281E+02  0.00000000000E+00 0. -1.
         -1    1    3    3    0  502 -0.42581102434E+03  0.94358241354E+03  0.69865795882E+03  0.12489138253E+04  0.00000000000E+00 0.  1.
         11    1    5    5    0    0  0.20799622562E+03 -0.33917092709E+03 -0.30059749595E+03  0.49865639696E+03  0.00000000000E+00 0. -1.
        -11    1    5    5    0    0  0.42292536651E+03 -0.67292327653E+03 -0.44401671889E+03  0.91040784728E+03  0.00000000000E+00 0.  1.
          3    1    6    6  503    0 -0.65475419028E+02 -0.24228162701E+02  0.46209283120E+02  0.83721754707E+02  0.00000000000E+00 0. -1.
         -3    1    6    6    0  503 -0.92760580920E+02  0.39091587729E+02 -0.18323023044E+02  0.10231525193E+03  0.00000000000E+00 0.  1.
<mgrwt>
<rscale>  0 0.29251360E+04</rscale>
<asrwt>0</asrwt>
<pdfrwt beam="1">  1        2 0.22340982E+00 0.29251360E+04</pdfrwt>
<pdfrwt beam="2">  1       -1 0.22662257E+00 0.29251360E+04</pdfrwt>
<totfact> 0.13172935E+00</totfact>
</mgrwt>
</event>
<event>
12    6  0.1530720E-007  0.1404316E+04  0.7818608E-02  0.8950701E-01
         -1   -1    0    0    0  501 -0.00000000000E+00  0.00000000000E+00  0.32822275273E+03  0.32822275273E+03  0.00000000000E+00 0.  1.
          2   -1    0    0  501    0  0.00000000000E+00 -0.00000000000E+00 -0.15021065903E+04  0.15021065903E+04  0.00000000000E+00 0. -1.
         24    2    1    2    0    0  0.17518686618E+03 -0.58245003220E+02 -0.81604451026E+03  0.84044572264E+03  0.79608112041E+02 0.  0.
        254    2    1    2    0    0 -0.17518686618E+03  0.58245003220E+02 -0.35783932732E+03  0.98988362039E+03  0.90428849338E+03 0.  0.
         23    2    4    4    0    0 -0.14569836638E+03  0.26465360451E+03  0.20966298535E+03  0.37836669294E+03  0.89068751859E+02 0.  0.
         23    2    4    4    0    0 -0.29488499807E+02 -0.20640860129E+03 -0.56750231268E+03  0.61151692745E+03  0.91760532700E+02 0.  0.
          2    1    3    3  502    0  0.59725394165E+02 -0.79702113415E+01 -0.43444533254E+03  0.43860391464E+03  0.00000000000E+00 0. -1.
         -1    1    3    3    0  502  0.11546147202E+03 -0.50274791879E+02 -0.38159917772E+03  0.40184180800E+03  0.00000000000E+00 0.  1.
         11    1    5    5    0    0 -0.40964442205E+02  0.15068358046E+03  0.75124742682E+02  0.17328402669E+03  0.00000000000E+00 0. -1.
        -11    1    5    5    0    0 -0.10473392417E+03  0.11397002405E+03  0.13453824267E+03  0.20508266625E+03  0.00000000000E+00 0.  1.
          1    1    6    6  503    0 -0.45503144501E+02 -0.12995149019E+03 -0.25952968406E+03  0.29379173383E+03  0.00000000000E+00 0. -1.
         -1    1    6    6    0  503  0.16014644694E+02 -0.76457111100E+02 -0.30797262862E+03  0.31772519362E+03  0.00000000000E+00 0.  1.
<mgrwt>
<rscale>  0 0.14043156E+04</rscale>
<asrwt>0</asrwt>
<pdfrwt beam="1">  1        2 0.23109332E+00 0.14043156E+04</pdfrwt>
<pdfrwt beam="2">  1       -1 0.50495809E-01 0.14043156E+04</pdfrwt>
<totfact> 0.55278421E+01</totfact>
</mgrwt>
</event>
<event>
12    6  0.1530720E-007  0.2358890E+04  0.7818608E-02  0.8455057E-01
         -1   -1    0    0    0  501 -0.00000000000E+00  0.00000000000E+00  0.41019954326E+03  0.41019954326E+03  0.00000000000E+00 0.  1.
          2   -1    0    0  501    0  0.00000000000E+00 -0.00000000000E+00 -0.33912540496E+04  0.33912540496E+04  0.00000000000E+00 0. -1.
         24    2    1    2    0    0  0.81639119095E+03  0.50601001715E+03 -0.17815810655E+04  0.20255466090E+04  0.79166017661E+02 0.  0.
        254    2    1    2    0    0 -0.81639119095E+03 -0.50601001715E+03 -0.11994734409E+04  0.17759069839E+04  0.89026308797E+03 0.  0.
         23    2    4    4    0    0 -0.74369779850E+03 -0.33483380164E+03 -0.33437663174E+03  0.88637247736E+03  0.92996486758E+02 0.  0.
         23    2    4    4    0    0 -0.72693392443E+02 -0.17117621551E+03 -0.86509680914E+03  0.88953450649E+03  0.91068781654E+02 0.  0.
          4    1    3    3  502    0  0.72016397636E+03  0.41796017052E+03 -0.15139015260E+04  0.17277802775E+04  0.00000000000E+00 0. -1.
         -1    1    3    3    0  502  0.96227214590E+02  0.88049846635E+02 -0.26767953947E+03  0.29776633149E+03  0.00000000000E+00 0.  1.
         11    1    5    5    0    0 -0.32692256895E+03 -0.12442589029E+03 -0.18781748473E+03  0.39703346941E+03  0.00000000000E+00 0. -1.
        -11    1    5    5    0    0 -0.41677522956E+03 -0.21040791135E+03 -0.14655914702E+03  0.48933900796E+03  0.00000000000E+00 0.  1.
          1    1    6    6  503    0 -0.80375545643E+02 -0.17349243258E+03 -0.74416396646E+03  0.76833577392E+03  0.00000000000E+00 0. -1.
         -1    1    6    6    0  503  0.76821531998E+01  0.23162170696E+01 -0.12093284268E+03  0.12119873258E+03  0.00000000000E+00 0.  1.
<mgrwt>
<rscale>  0 0.23588903E+04</rscale>
<asrwt>0</asrwt>
<pdfrwt beam="1">  1        2 0.52173138E+00 0.23588903E+04</pdfrwt>
<pdfrwt beam="2">  1       -1 0.63107624E-01 0.23588903E+04</pdfrwt>
<totfact> 0.25311060E+00</totfact>
</mgrwt>
</event>
<event>
12    6  0.1530720E-007  0.1603786E+04  0.7818608E-02  0.8818225E-01
         -1   -1    0    0    0  501 -0.00000000000E+00  0.00000000000E+00  0.12836125642E+04  0.12836125642E+04  0.00000000000E+00 0.  1.
          2   -1    0    0  501    0  0.00000000000E+00 -0.00000000000E+00 -0.50095544120E+03  0.50095544120E+03  0.00000000000E+00 0. -1.
         24    2    1    2    0    0 -0.13562406247E+03  0.52795468490E+03  0.24371609368E+03  0.60257317249E+03  0.81036154062E+02 0.  0.
        254    2    1    2    0    0  0.13562406247E+03 -0.52795468490E+03  0.53894102931E+03  0.11819948329E+04  0.89973569248E+03 0.  0.
         23    2    4    4    0    0  0.25943055754E+03 -0.38307977878E+03 -0.12330089031E+03  0.48719889504E+03  0.90029565576E+02 0.  0.
         23    2    4    4    0    0 -0.12380649507E+03 -0.14487490611E+03  0.66224191962E+03  0.69479593787E+03  0.88658042658E+02 0.  0.
          4    1    3    3  502    0 -0.20292488117E+02  0.21909988748E+02  0.26520606381E+02  0.39939645012E+02  0.00000000000E+00 0. -1.
         -3    1    3    3    0  502 -0.11533157435E+03  0.50604469615E+03  0.21719548730E+03  0.56263352748E+03  0.00000000000E+00 0.  1.
         11    1    5    5    0    0  0.25157017374E+03 -0.32865943808E+03 -0.92226155651E+02  0.42404037819E+03  0.00000000000E+00 0. -1.
        -11    1    5    5    0    0  0.78603838033E+01 -0.54420340704E+02 -0.31074734662E+02  0.63158516846E+02  0.00000000000E+00 0.  1.
          3    1    6    6  503    0 -0.81528533589E+02 -0.13712628349E+03  0.43065360635E+03  0.45925270612E+03  0.00000000000E+00 0. -1.
         -3    1    6    6    0  503 -0.42277961482E+02 -0.77486226279E+01  0.23158831327E+03  0.23554323175E+03  0.00000000000E+00 0.  1.
<mgrwt>
<rscale>  0 0.16037864E+04</rscale>
<asrwt>0</asrwt>
<pdfrwt beam="1">  1        2 0.77070069E-01 0.16037864E+04</pdfrwt>
<pdfrwt beam="2">  1       -1 0.19747885E+00 0.16037864E+04</pdfrwt>
<totfact> 0.10547319E+01</totfact>
</mgrwt>
</event>
<event>
12    6  0.1530720E-007  0.1610803E+04  0.7818608E-02  0.8813939E-01
         -1   -1    0    0    0  501 -0.00000000000E+00  0.00000000000E+00  0.18687412679E+04  0.18687412679E+04  0.00000000000E+00 0.  1.
          2   -1    0    0  501    0  0.00000000000E+00 -0.00000000000E+00 -0.34711696752E+03  0.34711696752E+03  0.00000000000E+00 0. -1.
         24    2    1    2    0    0 -0.13375134691E+03 -0.33656935552E+03 -0.52561168084E+02  0.37515256277E+03  0.82513120679E+02 0.  0.
        254    2    1    2    0    0  0.13375134691E+03  0.33656935552E+03  0.15741854685E+04  0.18407056727E+04  0.88259227867E+03 0.  0.
         23    2    4    4    0    0  0.17159109346E+03 -0.26955328121E+03  0.44788715916E+03  0.55768337958E+03  0.91133801383E+02 0.  0.
         23    2    4    4    0    0 -0.37839746553E+02  0.60612263673E+03  0.11262983093E+04  0.12830222931E+04  0.93711396468E+02 0.  0.
          4    1    3    3  502    0 -0.11769156633E+03 -0.18770022270E+03 -0.25738742791E+02  0.22303623308E+03  0.00000000000E+00 0. -1.
         -3    1    3    3    0  502 -0.16059780587E+02 -0.14886913282E+03 -0.26822425293E+02  0.15211632968E+03  0.00000000000E+00 0.  1.
         11    1    5    5    0    0  0.10147704507E+03 -0.86535303672E+02  0.21835806503E+03  0.25586362388E+03  0.00000000000E+00 0.  1.
        -11    1    5    5    0    0  0.70114048396E+02 -0.18301797754E+03  0.22952909413E+03  0.30181975571E+03  0.00000000000E+00 0. -1.
          3    1    6    6  503    0  0.20481629944E+02  0.29231189860E+03  0.59439861295E+03  0.66270314192E+03  0.00000000000E+00 0. -1.
         -3    1    6    6    0  503 -0.58321376497E+02  0.31381073812E+03  0.53189969636E+03  0.62031915116E+03  0.00000000000E+00 0.  1.
<mgrwt>
<rscale>  0 0.16108033E+04</rscale>
<asrwt>0</asrwt>
<pdfrwt beam="1">  1        2 0.53402611E-01 0.16108033E+04</pdfrwt>
<pdfrwt beam="2">  1       -1 0.28749865E+00 0.16108033E+04</pdfrwt>
<totfact> 0.40757339E+00</totfact>
</mgrwt>
</event>
<event>
12    6  0.1530720E-007  0.1315683E+04  0.7818608E-02  0.9017220E-01
          2   -1    0    0  501    0  0.00000000000E+00  0.00000000000E+00  0.33607386216E+03  0.33607386216E+03  0.00000000000E+00 0. -1.
         -1   -1    0    0    0  501 -0.00000000000E+00 -0.00000000000E+00 -0.12876798779E+04  0.12876798779E+04  0.00000000000E+00 0.  1.
         24    2    1    2    0    0  0.29639845370E+03  0.12329760684E+03 -0.10958062540E+03  0.34895732298E+03  0.81908220514E+02 0.  0.
        254    2    1    2    0    0 -0.29639845370E+03 -0.12329760684E+03 -0.84202539033E+03  0.12747964171E+04  0.90168997101E+03 0.  0.
         23    2    4    4    0    0 -0.11451631364E+03 -0.38502029477E+03 -0.48141979289E+02  0.41508671716E+03  0.92869365895E+02 0.  0.
         23    2    4    4    0    0 -0.18188214006E+03  0.26172268793E+03 -0.79388341104E+03  0.85970969991E+03  0.85264409644E+02 0.  0.
          4    1    3    3  502    0  0.11543070976E+03  0.89931542916E+02 -0.35393452347E+02  0.15054775866E+03  0.00000000000E+00 0. -1.
         -3    1    3    3    0  502  0.18096774394E+03  0.33366063921E+02 -0.74187173057E+02  0.19840956432E+03  0.00000000000E+00 0.  1.
         11    1    5    5    0    0 -0.12543493947E+03 -0.28662528907E+03 -0.28576423308E+02  0.31417287016E+03  0.00000000000E+00 0.  1.
        -11    1    5    5    0    0  0.10918625831E+02 -0.98395005692E+02 -0.19565555981E+02  0.10091384700E+03  0.00000000000E+00 0. -1.
          4    1    6    6  503    0 -0.14971089607E+03  0.15509988210E+03 -0.46642066469E+03  0.51382639313E+03  0.00000000000E+00 0. -1.
         -4    1    6    6    0  503 -0.32171243987E+02  0.10662280583E+03 -0.32746274635E+03  0.34588330678E+03  0.00000000000E+00 0.  1.
<mgrwt>
<rscale>  0 0.13156832E+04</rscale>
<asrwt>0</asrwt>
<pdfrwt beam="1">  1        2 0.51703671E-01 0.13156832E+04</pdfrwt>
<pdfrwt beam="2">  1       -1 0.19810460E+00 0.13156832E+04</pdfrwt>
<totfact> 0.16819162E+01</totfact>
</mgrwt>
</event>
<event>
12    6  0.1530720E-007  0.2419301E+04  0.7818608E-02  0.8432313E-01
         -1   -1    0    0    0  501 -0.00000000000E+00  0.00000000000E+00  0.47255490881E+03  0.47255490881E+03  0.00000000000E+00 0.  1.
          2   -1    0    0  501    0  0.00000000000E+00 -0.00000000000E+00 -0.30964749037E+04  0.30964749037E+04  0.00000000000E+00 0. -1.
         24    2    1    2    0    0  0.49071558576E+03  0.35210608438E+03 -0.23441552820E+04  0.24219516587E+04  0.77494324374E+02 0.  0.
        254    2    1    2    0    0 -0.49071558576E+03 -0.35210608438E+03 -0.27976471288E+03  0.11470781538E+04  0.93420528554E+03 0.  0.
         23    2    4    4    0    0 -0.65222470865E+03 -0.31431014737E+03  0.86184001311E+02  0.73485433212E+03  0.91625695269E+02 0.  0.
         23    2    4    4    0    0  0.16150912289E+03 -0.37795937003E+02 -0.36594871419E+03  0.41222382166E+03  0.92175311738E+02 0.  0.
          2    1    3    3  502    0  0.46488927608E+03  0.34544515955E+03 -0.21792027382E+04  0.22548567519E+04  0.00000000000E+00 0. -1.
         -1    1    3    3    0  502  0.25826309683E+02  0.66609248312E+01 -0.16495254383E+03  0.16709490688E+03  0.00000000000E+00 0.  1.
         11    1    5    5    0    0 -0.54139895738E+03 -0.24319717172E+03  0.38330312275E+02  0.59474944996E+03  0.00000000000E+00 0. -1.
        -11    1    5    5    0    0 -0.11082575127E+03 -0.71112975650E+02  0.47853689037E+02  0.14010488216E+03  0.00000000000E+00 0.  1.
          4    1    6    6  503    0  0.14795656410E+03 -0.59480235097E+01 -0.33299272774E+03  0.36443199718E+03  0.00000000000E+00 0. -1.
         -4    1    6    6    0  503  0.13552558790E+02 -0.31847913494E+02 -0.32955986453E+02  0.47791824476E+02  0.00000000000E+00 0.  1.
<mgrwt>
<rscale>  0 0.24193011E+04</rscale>
<asrwt>0</asrwt>
<pdfrwt beam="1">  1        2 0.47638076E+00 0.24193011E+04</pdfrwt>
<pdfrwt beam="2">  1       -1 0.72700754E-01 0.24193011E+04</pdfrwt>
<totfact> 0.29489454E+00</totfact>
</mgrwt>
</event>
<event>
12    6  0.1530720E-007  0.2525418E+04  0.7818608E-02  0.8393986E-01
         -1   -1    0    0    0  501 -0.00000000000E+00  0.00000000000E+00  0.66208888307E+03  0.66208888307E+03  0.00000000000E+00 0.  1.
          2   -1    0    0  501    0  0.00000000000E+00 -0.00000000000E+00 -0.24081873171E+04  0.24081873171E+04  0.00000000000E+00 0. -1.
         24    2    1    2    0    0 -0.54045753763E+03 -0.94755601573E+03 -0.94691145847E+03  0.14468972782E+04  0.83148484815E+02 0.  0.
        254    2    1    2    0    0  0.54045753763E+03  0.94755601573E+03 -0.79918697559E+03  0.16233789220E+04  0.89816621485E+03 0.  0.
         23    2    4    4    0    0  0.44073585391E+03  0.10204205704E+04 -0.38335628714E+03  0.11796015746E+04  0.94824039752E+02 0.  0.
         23    2    4    4    0    0  0.99721683727E+02 -0.72864554653E+02 -0.41583068844E+03  0.44377734740E+03  0.93645689068E+02 0.  0.
          2    1    3    3  502    0 -0.34806093171E+03 -0.62945670166E+03 -0.57285104909E+03  0.91952187352E+03  0.00000000000E+00 0. -1.
         -1    1    3    3    0  502 -0.19239660593E+03 -0.31809931408E+03 -0.37406040938E+03  0.52737540467E+03  0.00000000000E+00 0.  1.
         11    1    5    5    0    0  0.15708114564E+03  0.25846663697E+03 -0.11003668730E+03  0.32185021563E+03  0.00000000000E+00 0. -1.
        -11    1    5    5    0    0  0.28365470826E+03  0.76195393341E+03 -0.27331959984E+03  0.85775135897E+03  0.00000000000E+00 0.  1.
          3    1    6    6  503    0  0.60547544949E+01  0.18771947523E+02 -0.98510925400E+02  0.10046615594E+03  0.00000000000E+00 0. -1.
         -3    1    6    6    0  503  0.93666929232E+02 -0.91636502176E+02 -0.31731976304E+03  0.34331119146E+03  0.00000000000E+00 0.  1.
<mgrwt>
<rscale>  0 0.25254180E+04</rscale>
<asrwt>0</asrwt>
<pdfrwt beam="1">  1        2 0.37049035E+00 0.25254180E+04</pdfrwt>
<pdfrwt beam="2">  1       -1 0.10185983E+00 0.25254180E+04</pdfrwt>
<totfact> 0.36361242E+00</totfact>
</mgrwt>
</event>
<event>
12    6  0.1530720E-007  0.2173290E+04  0.7818608E-02  0.8529628E-01
         -1   -1    0    0    0  501 -0.00000000000E+00  0.00000000000E+00  0.23707633389E+04  0.23707633389E+04  0.00000000000E+00 0.  1.
          2   -1    0    0  501    0  0.00000000000E+00 -0.00000000000E+00 -0.49806634149E+03  0.49806634149E+03  0.00000000000E+00 0. -1.
         24    2    1    2    0    0 -0.11740172433E+03  0.75212004193E+03  0.13630499172E+04  0.15632356118E+04  0.79578757987E+02 0.  0.
        254    2    1    2    0    0  0.11740172433E+03 -0.75212004193E+03  0.50964708016E+03  0.13055940686E+04  0.93025158064E+03 0.  0.
         23    2    4    4    0    0  0.18999698832E+03 -0.53134243275E+03  0.76091889235E+03  0.95172463916E+03  0.91425333674E+02 0.  0.
         23    2    4    4    0    0 -0.72595263981E+02 -0.22077760918E+03 -0.25127181219E+03  0.35386942944E+03  0.89851123645E+02 0.  0.
          4    1    3    3  502    0 -0.58191580020E+01  0.92173214600E+00  0.12038765211E+02  0.13403136118E+02  0.00000000000E+00 0. -1.
         -3    1    3    3    0  502 -0.11158256633E+03  0.75119830979E+03  0.13510111520E+04  0.15498324757E+04  0.00000000000E+00 0.  1.
         11    1    5    5    0    0  0.19552280302E+03 -0.46550674897E+03  0.65730897231E+03  0.82884303998E+03  0.00000000000E+00 0. -1.
        -11    1    5    5    0    0 -0.55258147068E+01 -0.65835683781E+02  0.10360992004E+03  0.12288159918E+03  0.00000000000E+00 0.  1.
          3    1    6    6  503    0 -0.80539672384E+02 -0.21911569093E+03 -0.25430099442E+03  0.34520620012E+03  0.00000000000E+00 0. -1.
         -3    1    6    6    0  503  0.79444084024E+01 -0.16619182540E+01  0.30291822335E+01  0.86632293142E+01  0.00000000000E+00 0.  1.
<mgrwt>
<rscale>  0 0.21732901E+04</rscale>
<asrwt>0</asrwt>
<pdfrwt beam="1">  1        2 0.76625592E-01 0.21732901E+04</pdfrwt>
<pdfrwt beam="2">  1       -1 0.36473281E+00 0.21732901E+04</pdfrwt>
<totfact> 0.80291724E-01</totfact>
</mgrwt>
</event>
<event>
12    6  0.1530720E-007  0.2567325E+04  0.7818608E-02  0.8379386E-01
          2   -1    0    0  501    0  0.00000000000E+00  0.00000000000E+00  0.29405292998E+04  0.29405292998E+04  0.00000000000E+00 0. -1.
         -3   -1    0    0    0  501 -0.00000000000E+00 -0.00000000000E+00 -0.56037169884E+03  0.56037169884E+03  0.00000000000E+00 0.  1.
         24    2    1    2    0    0  0.72138684190E+03 -0.25875687512E+03 -0.76620092596E+02  0.77407498011E+03  0.77248560827E+02 0.  0.
        254    2    1    2    0    0 -0.72138684190E+03  0.25875687512E+03  0.24567776935E+04  0.27268260185E+04  0.90137084695E+03 0.  0.
         23    2    4    4    0    0 -0.13116196075E+03 -0.31614173298E+03  0.78557803861E+03  0.86132754160E+03  0.87196467225E+02 0.  0.
         23    2    4    4    0    0 -0.59022488114E+03  0.57489860810E+03  0.16711996549E+04  0.18654984769E+04  0.91117840376E+02 0.  0.
          4    1    3    3  502    0  0.87987945739E+02 -0.48660228399E+02  0.10433218889E+02  0.10108683633E+03  0.00000000000E+00 0. -1.
         -3    1    3    3    0  502  0.63339889616E+03 -0.21009664672E+03 -0.87053311485E+02  0.67298814378E+03  0.00000000000E+00 0.  1.
         11    1    5    5    0    0 -0.52511880372E+02 -0.62042782077E+02  0.25779498720E+03  0.27030549349E+03  0.00000000000E+00 0. -1.
        -11    1    5    5    0    0 -0.78650080383E+02 -0.25409895090E+03  0.52778305141E+03  0.59102204810E+03  0.00000000000E+00 0.  1.
          2    1    6    6  503    0 -0.23102884668E+02  0.39878245526E+01  0.62539948886E+02  0.66789903662E+02  0.00000000000E+00 0. -1.
         -2    1    6    6    0  503 -0.56712199648E+03  0.57091078355E+03  0.16086597060E+04  0.17987085732E+04  0.00000000000E+00 0.  1.
<mgrwt>
<rscale>  0 0.25673250E+04</rscale>
<asrwt>0</asrwt>
<pdfrwt beam="1">  1        2 0.45238911E+00 0.25673250E+04</pdfrwt>
<pdfrwt beam="2">  1       -3 0.86211032E-01 0.25673250E+04</pdfrwt>
<totfact> 0.13255314E+00</totfact>
</mgrwt>
</event>
<event>
12    6  0.1530720E-007  0.2488405E+04  0.7818608E-02  0.8407128E-01
          2   -1    0    0  501    0  0.00000000000E+00  0.00000000000E+00  0.13773673188E+04  0.13773673188E+04  0.00000000000E+00 0. -1.
         -1   -1    0    0    0  501 -0.00000000000E+00 -0.00000000000E+00 -0.11239123330E+04  0.11239123330E+04  0.00000000000E+00 0.  1.
         24    2    1    2    0    0 -0.80727922184E+02  0.10077551586E+04  0.49844593024E+03  0.11302279826E+04  0.82942692171E+02 0.  0.
        254    2    1    2    0    0  0.80727922184E+02 -0.10077551586E+04 -0.24499094445E+03  0.13710516693E+04  0.89312634034E+03 0.  0.
         23    2    4    4    0    0 -0.32391513650E+03 -0.21159600064E+03  0.10062513170E+03  0.40882686593E+03  0.85557618236E+02 0.  0.
         23    2    4    4    0    0  0.40464305868E+03 -0.79615915795E+03 -0.34561607615E+03  0.96222480332E+03  0.93918530131E+02 0.  0.
          4    1    3    3  502    0 -0.33848368539E+02  0.58854200993E+03  0.33341063344E+03  0.67726660924E+03  0.00000000000E+00 0. -1.
         -3    1    3    3    0  502 -0.46879553645E+02  0.41921314866E+03  0.16503529680E+03  0.45296137336E+03  0.00000000000E+00 0.  1.
         11    1    5    5    0    0 -0.32812777590E+03 -0.20537188201E+03  0.10363413450E+03  0.40073118305E+03  0.00000000000E+00 0.  1.
        -11    1    5    5    0    0  0.42126393996E+01 -0.62241186370E+01 -0.30090027990E+01  0.80956828843E+01  0.00000000000E+00 0. -1.
          4    1    6    6  503    0  0.11708833125E+03 -0.33152490511E+03 -0.13510553201E+03  0.37665892370E+03  0.00000000000E+00 0. -1.
         -4    1    6    6    0  503  0.28755472743E+03 -0.46463425284E+03 -0.21051054414E+03  0.58556587962E+03  0.00000000000E+00 0.  1.
<mgrwt>
<rscale>  0 0.24884052E+04</rscale>
<asrwt>0</asrwt>
<pdfrwt beam="1">  1        2 0.21190266E+00 0.24884052E+04</pdfrwt>
<pdfrwt beam="2">  1       -1 0.17290959E+00 0.24884052E+04</pdfrwt>
<totfact> 0.35528555E+00</totfact>
</mgrwt>
</event>
<event>
12    6  0.1530720E-007  0.2032278E+04  0.7818608E-02  0.8591677E-01
         -1   -1    0    0    0  501 -0.00000000000E+00  0.00000000000E+00  0.80829353255E+03  0.80829353255E+03  0.00000000000E+00 0.  1.
          2   -1    0    0  501    0  0.00000000000E+00 -0.00000000000E+00 -0.12774301207E+04  0.12774301207E+04  0.00000000000E+00 0. -1.
         24    2    1    2    0    0 -0.10967739872E+03  0.65420981470E+03  0.31752641767E+03  0.73949853646E+03  0.77559306736E+02 0.  0.
        254    2    1    2    0    0  0.10967739872E+03 -0.65420981470E+03 -0.78666300583E+03  0.13462251168E+04  0.86802290691E+03 0.  0.
         23    2    4    4    0    0  0.22236544497E+03 -0.81478709579E+03 -0.49514571325E+03  0.98339517794E+03  0.92587234930E+02 0.  0.
         23    2    4    4    0    0 -0.11268804625E+03  0.16057728108E+03 -0.29151729258E+03  0.36282993886E+03  0.90440995644E+02 0.  0.
          4    1    3    3  502    0 -0.61254513757E+02  0.44082616301E+03  0.25018779583E+03  0.51056219467E+03  0.00000000000E+00 0. -1.
         -3    1    3    3    0  502 -0.48422884960E+02  0.21338365169E+03  0.67338621847E+02  0.22893634178E+03  0.00000000000E+00 0.  1.
         11    1    5    5    0    0  0.85836617592E+02 -0.16957629345E+03 -0.11657137169E+03  0.22296396327E+03  0.00000000000E+00 0.  1.
        -11    1    5    5    0    0  0.13652882738E+03 -0.64521080234E+03 -0.37857434156E+03  0.76043121467E+03  0.00000000000E+00 0. -1.
          1    1    6    6  503    0 -0.88602624617E+02  0.16313752210E+03 -0.22301873867E+03  0.29017517813E+03  0.00000000000E+00 0. -1.
         -1    1    6    6    0  503 -0.24085421635E+02 -0.25602410114E+01 -0.68498553909E+02  0.72654760732E+02  0.00000000000E+00 0.  1.
<mgrwt>
<rscale>  0 0.20322780E+04</rscale>
<asrwt>0</asrwt>
<pdfrwt beam="1">  1        2 0.19652771E+00 0.20322780E+04</pdfrwt>
<pdfrwt beam="2">  1       -1 0.12435285E+00 0.20322780E+04</pdfrwt>
<totfact> 0.10205958E+01</totfact>
</mgrwt>
</event>
<event>
12    6  0.1530720E-007  0.3439587E+04  0.7818608E-02  0.8128258E-01
         -1   -1    0    0    0  501 -0.00000000000E+00  0.00000000000E+00  0.78348495494E+03  0.78348495494E+03  0.00000000000E+00 0.  1.
          2   -1    0    0  501    0  0.00000000000E+00 -0.00000000000E+00 -0.37750442509E+04  0.37750442509E+04  0.00000000000E+00 0. -1.
         24    2    1    2    0    0 -0.47369190672E+03  0.72483923243E+03  0.39188517496E+03  0.95383867794E+03  0.80363535310E+02 0.  0.
        254    2    1    2    0    0  0.47369190672E+03 -0.72483923243E+03 -0.33834444709E+04  0.36046905279E+04  0.89236840973E+03 0.  0.
         23    2    4    4    0    0 -0.49772964328E+02  0.17168165798E+03 -0.59073254126E+03  0.62386049599E+03  0.91022214288E+02 0.  0.
         23    2    4    4    0    0  0.52346487105E+03 -0.89652089041E+03 -0.27927119296E+04  0.29808300319E+04  0.91337718510E+02 0.  0.
          2    1    3    3  502    0 -0.29697494831E+03  0.51546541165E+03  0.24989225422E+03  0.64524789751E+03  0.00000000000E+00 0. -1.
         -1    1    3    3    0  502 -0.17671695842E+03  0.20937382079E+03  0.14199292075E+03  0.30859078043E+03  0.00000000000E+00 0.  1.
         11    1    5    5    0    0 -0.47495995269E+02  0.14240569922E+03 -0.56568457595E+03  0.58526429261E+03  0.00000000000E+00 0. -1.
        -11    1    5    5    0    0 -0.22769690590E+01  0.29275958760E+02 -0.25047965307E+02  0.38596203381E+02  0.00000000000E+00 0.  1.
          2    1    6    6  503    0  0.43243838808E+03 -0.70210192975E+03 -0.21211772462E+04  0.22758169937E+04  0.00000000000E+00 0. -1.
         -2    1    6    6    0  503  0.91026482966E+02 -0.19441896067E+03 -0.67153468346E+03  0.70501303815E+03  0.00000000000E+00 0.  1.
<mgrwt>
<rscale>  0 0.34395874E+04</rscale>
<asrwt>0</asrwt>
<pdfrwt beam="1">  1        2 0.58077604E+00 0.34395874E+04</pdfrwt>
<pdfrwt beam="2">  1       -1 0.12053615E+00 0.34395874E+04</pdfrwt>
<totfact> 0.29383702E-01</totfact>
</mgrwt>
</event>
<event>
12    6  0.1530720E-007  0.2899534E+04  0.7818608E-02  0.8273016E-01
          2   -1    0    0  501    0  0.00000000000E+00  0.00000000000E+00  0.23465494465E+04  0.23465494465E+04  0.00000000000E+00 0. -1.
         -1   -1    0    0    0  501 -0.00000000000E+00 -0.00000000000E+00 -0.89570870706E+03  0.89570870706E+03  0.00000000000E+00 0.  1.
         24    2    1    2    0    0 -0.87628171917E+03 -0.32024956831E+03 -0.37102216563E+03  0.10062394583E+04  0.66565477266E+02 0.  0.
        254    2    1    2    0    0  0.87628171917E+03  0.32024956831E+03  0.18218629051E+04  0.22360186952E+04  0.90009206370E+03 0.  0.
         23    2    4    4    0    0 -0.53357749581E+02  0.16644926511E+03  0.87583365567E+03  0.89773863276E+03  0.91091454316E+02 0.  0.
         23    2    4    4    0    0  0.92963946875E+03  0.15380030320E+03  0.94602924940E+03  0.13382800625E+04  0.90211472275E+02 0.  0.
          2    1    3    3  502    0 -0.49963658411E+03 -0.19042592061E+03 -0.24700901541E+03  0.58899253061E+03  0.00000000000E+00 0. -1.
         -1    1    3    3    0  502 -0.37664513506E+03 -0.12982364770E+03 -0.12401315022E+03  0.41724692773E+03  0.00000000000E+00 0.  1.
         11    1    5    5    0    0 -0.30734504689E+02  0.23826733703E+02  0.80494090078E+02  0.89395869899E+02  0.00000000000E+00 0.  1.
        -11    1    5    5    0    0 -0.22623244892E+02  0.14262253141E+03  0.79533956559E+03  0.80834276286E+03  0.00000000000E+00 0. -1.
          3    1    6    6  503    0  0.76596811188E+03  0.16085313080E+03  0.78904749472E+03  0.11113850939E+04  0.00000000000E+00 0. -1.
         -3    1    6    6    0  503  0.16367135687E+03 -0.70528276012E+01  0.15698175468E+03  0.22689496852E+03  0.00000000000E+00 0.  1.
<mgrwt>
<rscale>  0 0.28995343E+04</rscale>
<asrwt>0</asrwt>
<pdfrwt beam="1">  1        2 0.36100761E+00 0.28995343E+04</pdfrwt>
<pdfrwt beam="2">  1       -1 0.13780134E+00 0.28995343E+04</pdfrwt>
<totfact> 0.18281495E+00</totfact>
</mgrwt>
</event>
<event>
12    6  0.1530720E-007  0.1298569E+04  0.7818608E-02  0.9030701E-01
          2   -1    0    0  501    0  0.00000000000E+00  0.00000000000E+00  0.72725358063E+03  0.72725358063E+03  0.00000000000E+00 0. -1.
         -1   -1    0    0    0  501 -0.00000000000E+00 -0.00000000000E+00 -0.57967459878E+03  0.57967459878E+03  0.00000000000E+00 0.  1.
         24    2    1    2    0    0  0.18060377911E+03 -0.37609530585E+02 -0.22879113338E+03  0.30490701331E+03  0.81183140079E+02 0.  0.
        254    2    1    2    0    0 -0.18060377911E+03  0.37609530585E+02  0.37637011522E+03  0.10020211661E+04  0.91014270962E+03 0.  0.
         23    2    4    4    0    0  0.13840828728E+03  0.66902103007E+02  0.58316036868E+03  0.60985886770E+03  0.90659128222E+02 0.  0.
         23    2    4    4    0    0 -0.31901206639E+03 -0.29292572423E+02 -0.20679025346E+03  0.39216229841E+03  0.91664093678E+02 0.  0.
          4    1    3    3  502    0  0.22636257897E+02 -0.31887197375E+02 -0.73841344809E+02  0.83556793447E+02  0.00000000000E+00 0. -1.
         -3    1    3    3    0  502  0.15796752121E+03 -0.57223332094E+01 -0.15494978857E+03  0.22135021986E+03  0.00000000000E+00 0.  1.
         11    1    5    5    0    0  0.12462916708E+03  0.64962800451E+02  0.36297781439E+03  0.38923705947E+03  0.00000000000E+00 0. -1.
        -11    1    5    5    0    0  0.13779120205E+02  0.19393025564E+01  0.22018255430E+03  0.22062180823E+03  0.00000000000E+00 0.  1.
          4    1    6    6  503    0 -0.24808437292E+03 -0.50880012709E+01 -0.11451300117E+03  0.27328551239E+03  0.00000000000E+00 0. -1.
         -4    1    6    6    0  503 -0.70927693462E+02 -0.24204571152E+02 -0.92277252286E+02  0.11887678602E+03  0.00000000000E+00 0.  1.
<mgrwt>
<rscale>  0 0.12985691E+04</rscale>
<asrwt>0</asrwt>
<pdfrwt beam="1">  1        2 0.11188517E+00 0.12985691E+04</pdfrwt>
<pdfrwt beam="2">  1       -1 0.89180708E-01 0.12985691E+04</pdfrwt>
<totfact> 0.53874263E+01</totfact>
</mgrwt>
</event>
<event>
12    6  0.1530720E-007  0.2321909E+04  0.7818608E-02  0.8469332E-01
         -1   -1    0    0    0  501 -0.00000000000E+00  0.00000000000E+00  0.34624771494E+03  0.34624771494E+03  0.00000000000E+00 0.  1.
          2   -1    0    0  501    0  0.00000000000E+00 -0.00000000000E+00 -0.38926338656E+04  0.38926338656E+04  0.00000000000E+00 0. -1.
         24    2    1    2    0    0  0.55486966977E+03 -0.42076377984E+03 -0.27735830477E+04  0.28608447665E+04  0.82142232420E+02 0.  0.
        254    2    1    2    0    0 -0.55486966977E+03  0.42076377984E+03 -0.77280310291E+03  0.13780368140E+04  0.90379107990E+03 0.  0.
         23    2    4    4    0    0 -0.36052701831E+03  0.14511597345E+03  0.12202206093E+03  0.41750077873E+03  0.91537643622E+02 0.  0.
         23    2    4    4    0    0 -0.19434265147E+03  0.27564780638E+03 -0.89482516384E+03  0.96053603531E+03  0.90369363948E+02 0.  0.
          2    1    3    3  502    0  0.35842159535E+03 -0.27074599659E+03 -0.19439963803E+04  0.19952171214E+04  0.00000000000E+00 0. -1.
         -1    1    3    3    0  502  0.19644807442E+03 -0.15001778325E+03 -0.82958666740E+03  0.86562764510E+03  0.00000000000E+00 0.  1.
         11    1    5    5    0    0 -0.22850149288E+03  0.70371695191E+02  0.32361679552E+02  0.24127243115E+03  0.00000000000E+00 0. -1.
        -11    1    5    5    0    0 -0.13202552543E+03  0.74744278263E+02  0.89660381382E+02  0.17622834757E+03  0.00000000000E+00 0.  1.
          3    1    6    6  503    0 -0.90315196224E+02  0.17510314028E+03 -0.61074076291E+03  0.64173376402E+03  0.00000000000E+00 0. -1.
         -3    1    6    6    0  503 -0.10402745524E+03  0.10054466610E+03 -0.28408440094E+03  0.31880227129E+03  0.00000000000E+00 0.  1.
<mgrwt>
<rscale>  0 0.23219092E+04</rscale>
<asrwt>0</asrwt>
<pdfrwt beam="1">  1        2 0.59886666E+00 0.23219092E+04</pdfrwt>
<pdfrwt beam="2">  1       -1 0.53268887E-01 0.23219092E+04</pdfrwt>
<totfact> 0.15318423E+00</totfact>
</mgrwt>
</event>
<event>
12    6  0.1530720E-007  0.1591196E+04  0.7818608E-02  0.8825975E-01
          2   -1    0    0  501    0  0.00000000000E+00  0.00000000000E+00  0.62838823926E+03  0.62838823926E+03  0.00000000000E+00 0. -1.
         -1   -1    0    0    0  501 -0.00000000000E+00 -0.00000000000E+00 -0.10073009527E+04  0.10073009527E+04  0.00000000000E+00 0.  1.
         24    2    1    2    0    0 -0.17971152366E+03  0.32228621351E+03 -0.52825392981E+03  0.64927956424E+03  0.79668707919E+02 0.  0.
        254    2    1    2    0    0  0.17971152366E+03 -0.32228621351E+03  0.14934121632E+03  0.98640962776E+03  0.90251676976E+03 0.  0.
         23    2    4    4    0    0  0.11395673978E+03 -0.27706121011E+03  0.51407830088E+03  0.60269088179E+03  0.95972636036E+02 0.  0.
         23    2    4    4    0    0  0.65754783878E+02 -0.45225003400E+02 -0.36473708455E+03  0.38371874597E+03  0.88532155897E+02 0.  0.
          2    1    3    3  502    0 -0.12494900650E+03  0.18898321207E+03 -0.38079473720E+03  0.44309315110E+03  0.00000000000E+00 0. -1.
         -1    1    3    3    0  502 -0.54762517154E+02  0.13330300144E+03 -0.14745919261E+03  0.20618641314E+03  0.00000000000E+00 0.  1.
         11    1    5    5    0    0  0.94814769313E+02 -0.16288167908E+03  0.38902917073E+03  0.43227766255E+03  0.00000000000E+00 0. -1.
        -11    1    5    5    0    0  0.19141970466E+02 -0.11417953104E+03  0.12504913014E+03  0.17041321924E+03  0.00000000000E+00 0.  1.
          2    1    6    6  503    0  0.48396264568E+02 -0.72241631704E+02 -0.25835940849E+03  0.27259977206E+03  0.00000000000E+00 0. -1.
         -2    1    6    6    0  503  0.17358519311E+02  0.27016628304E+02 -0.10637767606E+03  0.11111897391E+03  0.00000000000E+00 0.  1.
<mgrwt>
<rscale>  0 0.15911959E+04</rscale>
<asrwt>0</asrwt>
<pdfrwt beam="1">  1        2 0.96675113E-01 0.15911959E+04</pdfrwt>
<pdfrwt beam="2">  1       -1 0.15496938E+00 0.15911959E+04</pdfrwt>
<totfact> 0.16408865E+01</totfact>
</mgrwt>
</event>
<event>
12    6  0.1530720E-007  0.2442650E+04  0.7818608E-02  0.8423706E-01
         -1   -1    0    0    0  501 -0.00000000000E+00  0.00000000000E+00  0.54408023412E+03  0.54408023412E+03  0.00000000000E+00 0.  1.
          2   -1    0    0  501    0  0.00000000000E+00 -0.00000000000E+00 -0.27415711253E+04  0.27415711253E+04  0.00000000000E+00 0. -1.
         24    2    1    2    0    0 -0.10529271834E+04  0.55120495218E+01 -0.63787267391E+03  0.12336882014E+04  0.80118624715E+02 0.  0.
        254    2    1    2    0    0  0.10529271834E+04 -0.55120495218E+01 -0.15596182173E+04  0.20519631580E+04  0.81820399767E+03 0.  0.
         23    2    4    4    0    0  0.43646415181E+03 -0.28757643954E+03 -0.27754069147E+03  0.59881703714E+03  0.91388424621E+02 0.  0.
         23    2    4    4    0    0  0.61646303159E+03  0.28206439002E+03 -0.12820775258E+04  0.14531461208E+04  0.91235283184E+02 0.  0.
          2    1    3    3  502    0 -0.48262479736E+03 -0.29839512941E+02 -0.31972973961E+03  0.57969319295E+03  0.00000000000E+00 0. -1.
         -1    1    3    3    0  502 -0.57030238603E+03  0.35351562463E+02 -0.31814293430E+03  0.65399500849E+03  0.00000000000E+00 0.  1.
         11    1    5    5    0    0  0.43197024904E+03 -0.27843027311E+03 -0.25421954789E+03  0.57336662928E+03  0.00000000000E+00 0. -1.
        -11    1    5    5    0    0  0.44939027661E+01 -0.91461664266E+01 -0.23321143576E+02  0.25450407857E+02  0.00000000000E+00 0.  1.
          4    1    6    6  503    0  0.60842417486E+03  0.27879239674E+03 -0.12797131647E+04  0.14441506019E+04  0.00000000000E+00 0. -1.
         -4    1    6    6    0  503  0.80388567338E+01  0.32719932807E+01 -0.23643610946E+01  0.89955189401E+01  0.00000000000E+00 0.  1.
<mgrwt>
<rscale>  0 0.24426499E+04</rscale>
<asrwt>0</asrwt>
<pdfrwt beam="1">  1        2 0.42178018E+00 0.24426499E+04</pdfrwt>
<pdfrwt beam="2">  1       -1 0.83704650E-01 0.24426499E+04</pdfrwt>
<totfact> 0.36177142E+00</totfact>
</mgrwt>
</event>
<event>
12    6  0.1530720E-007  0.1876294E+04  0.7818608E-02  0.8666747E-01
          2   -1    0    0  501    0  0.00000000000E+00  0.00000000000E+00  0.21554541395E+04  0.21554541395E+04  0.00000000000E+00 0. -1.
         -1   -1    0    0    0  501 -0.00000000000E+00 -0.00000000000E+00 -0.40832233959E+03  0.40832233959E+03  0.00000000000E+00 0.  1.
         24    2    1    2    0    0 -0.57566272476E+03  0.38473735902E+03  0.93602643659E+03  0.11669618469E+04  0.79019326836E+02 0.  0.
        254    2    1    2    0    0  0.57566272476E+03 -0.38473735902E+03  0.81110536328E+03  0.13968146322E+04  0.90210243219E+03 0.  0.
         23    2    4    4    0    0  0.35610413099E+02  0.12287119729E+03  0.60041468987E+03  0.62068864082E+03  0.91603255297E+02 0.  0.
         23    2    4    4    0    0  0.54005231167E+03 -0.50760855631E+03  0.21069067340E+03  0.77612599134E+03  0.93048636745E+02 0.  0.
          4    1    3    3  502    0 -0.23300723318E+01  0.84573625183E+01  0.35569854701E+01  0.94661694191E+01  0.00000000000E+00 0. -1.
         -3    1    3    3    0  502 -0.57333265243E+03  0.37627999650E+03  0.93246945112E+03  0.11574956775E+04  0.00000000000E+00 0.  1.
         11    1    5    5    0    0  0.44072857082E+02  0.93736620866E+02  0.27496162289E+03  0.29382454780E+03  0.00000000000E+00 0. -1.
        -11    1    5    5    0    0 -0.84624439836E+01  0.29134576424E+02  0.32545306698E+03  0.32686409302E+03  0.00000000000E+00 0.  1.
          4    1    6    6  503    0  0.19226312838E+03 -0.18400011069E+03  0.12245168234E+03  0.29294293946E+03  0.00000000000E+00 0. -1.
         -4    1    6    6    0  503  0.34778918328E+03 -0.32360844562E+03  0.88238991069E+02  0.48318305188E+03  0.00000000000E+00 0.  1.
<mgrwt>
<rscale>  0 0.18762943E+04</rscale>
<asrwt>0</asrwt>
<pdfrwt beam="1">  1        2 0.33160832E+00 0.18762943E+04</pdfrwt>
<pdfrwt beam="2">  1       -1 0.62818823E-01 0.18762943E+04</pdfrwt>
<totfact> 0.15023849E+01</totfact>
</mgrwt>
</event>
<event>
12    6  0.1530720E-007  0.4003321E+04  0.7818608E-02  0.8003877E-01
          2   -1    0    0  501    0  0.00000000000E+00  0.00000000000E+00  0.16994215175E+04  0.16994215175E+04  0.00000000000E+00 0. -1.
         -1   -1    0    0    0  501 -0.00000000000E+00 -0.00000000000E+00 -0.23576521006E+04  0.23576521006E+04  0.00000000000E+00 0.  1.
         24    2    1    2    0    0 -0.14283012842E+04  0.56246183925E+03 -0.14451667114E+04  0.21098043458E+04  0.79747568640E+02 0.  0.
        254    2    1    2    0    0  0.14283012842E+04 -0.56246183925E+03  0.78693612829E+03  0.19472692723E+04  0.90342751218E+03 0.  0.
         23    2    4    4    0    0  0.92865601396E+03 -0.79178379988E+03  0.52605441699E+03  0.13321263983E+04  0.92216665082E+02 0.  0.
         23    2    4    4    0    0  0.49964527020E+03  0.22932196063E+03  0.26088171130E+03  0.61514287400E+03  0.90041826284E+02 0.  0.
          2    1    3    3  502    0 -0.16582466360E+03  0.74944197439E+02 -0.20581474338E+03  0.27472560925E+03  0.00000000000E+00 0. -1.
         -1    1    3    3    0  502 -0.12624766206E+04  0.48751764181E+03 -0.12393519680E+04  0.18350787365E+04  0.00000000000E+00 0.  1.
         11    1    5    5    0    0  0.83546268964E+03 -0.67706826185E+03  0.44768829887E+03  0.11648365336E+04  0.00000000000E+00 0. -1.
        -11    1    5    5    0    0  0.93193324315E+02 -0.11471553803E+03  0.78366118121E+02  0.16728986470E+03  0.00000000000E+00 0.  1.
          4    1    6    6  503    0  0.44054490926E+03  0.22294619005E+03  0.20868620572E+03  0.53603614914E+03  0.00000000000E+00 0. -1.
         -4    1    6    6    0  503  0.59100360942E+02  0.63757705750E+01  0.52195505589E+02  0.79106724857E+02  0.00000000000E+00 0.  1.
<mgrwt>
<rscale>  0 0.40033210E+04</rscale>
<asrwt>0</asrwt>
<pdfrwt beam="1">  1        2 0.26144947E+00 0.40033210E+04</pdfrwt>
<pdfrwt beam="2">  1       -1 0.36271571E+00 0.40033210E+04</pdfrwt>
<totfact> 0.11261448E-01</totfact>
</mgrwt>
</event>
<event>
12    6  0.1530720E-007  0.2009415E+04  0.7818608E-02  0.8602232E-01
         -1   -1    0    0    0  501 -0.00000000000E+00  0.00000000000E+00  0.31790398393E+03  0.31790398393E+03  0.00000000000E+00 0.  1.
          2   -1    0    0  501    0  0.00000000000E+00 -0.00000000000E+00 -0.31752884026E+04  0.31752884026E+04  0.00000000000E+00 0. -1.
         24    2    1    2    0    0  0.76349199770E+03 -0.16222406007E+03 -0.12346121272E+04  0.14629374838E+04  0.81745341422E+02 0.  0.
        254    2    1    2    0    0 -0.76349199770E+03  0.16222406007E+03 -0.16227722915E+04  0.20302549027E+04  0.93771444672E+03 0.  0.
         23    2    4    4    0    0 -0.36148645598E+03  0.49851789944E+03 -0.54179734850E+03  0.82544129921E+03  0.92824660960E+02 0.  0.
         23    2    4    4    0    0 -0.40200554172E+03 -0.33629383937E+03 -0.10809749430E+04  0.12048136035E+04  0.91471250929E+02 0.  0.
          4    1    3    3  502    0  0.51335628920E+03 -0.10478397646E+03 -0.89762830654E+03  0.10393512102E+04  0.00000000000E+00 0. -1.
         -3    1    3    3    0  502  0.25013570850E+03 -0.57440083604E+02 -0.33698382063E+03  0.42358627367E+03  0.00000000000E+00 0.  1.
         11    1    5    5    0    0 -0.15774442472E+03  0.22891007395E+03 -0.30570263927E+03  0.41320361705E+03  0.00000000000E+00 0. -1.
        -11    1    5    5    0    0 -0.20374203126E+03  0.26960782549E+03 -0.23609470923E+03  0.41223768216E+03  0.00000000000E+00 0.  1.
          1    1    6    6  503    0 -0.31967717174E+03 -0.24437880217E+03 -0.74210973114E+03  0.84418087288E+03  0.00000000000E+00 0. -1.
         -1    1    6    6    0  503 -0.82328369979E+02 -0.91915037203E+02 -0.33886521184E+03  0.36063273058E+03  0.00000000000E+00 0.  1.
<mgrwt>
<rscale>  0 0.20094147E+04</rscale>
<asrwt>0</asrwt>
<pdfrwt beam="1">  1        2 0.48850588E+00 0.20094147E+04</pdfrwt>
<pdfrwt beam="2">  1       -1 0.48908308E-01 0.20094147E+04</pdfrwt>
<totfact> 0.59720228E+00</totfact>
</mgrwt>
</event>
<event>
12    6  0.1530720E-007  0.2336688E+04  0.7818608E-02  0.8463594E-01
         -1   -1    0    0    0  501 -0.00000000000E+00  0.00000000000E+00  0.39400064055E+03  0.39400064055E+03  0.00000000000E+00 0.  1.
          2   -1    0    0  501    0  0.00000000000E+00 -0.00000000000E+00 -0.34645313048E+04  0.34645313048E+04  0.00000000000E+00 0. -1.
         24    2    1    2    0    0 -0.12094862110E+03  0.64673315843E+03 -0.79854490844E+02  0.66749413253E+03  0.79242224177E+02 0.  0.
        254    2    1    2    0    0  0.12094862110E+03 -0.64673315843E+03 -0.29906761734E+04  0.31910378128E+04  0.89760013451E+03 0.  0.
         23    2    4    4    0    0  0.32013554032E+03  0.84745595990E+02 -0.10852652573E+04  0.11383080112E+04  0.90971805505E+02 0.  0.
         23    2    4    4    0    0 -0.19918691922E+03 -0.73147875442E+03 -0.19054109161E+04  0.20527298016E+04  0.91500176775E+02 0.  0.
          4    1    3    3  502    0 -0.68945375448E+02  0.17576810147E+03 -0.27021283018E+02  0.19073028084E+03  0.00000000000E+00 0. -1.
         -3    1    3    3    0  502 -0.52003245652E+02  0.47096505696E+03 -0.52833207825E+02  0.47676385169E+03  0.00000000000E+00 0.  1.
         11    1    5    5    0    0  0.41680074193E+02  0.12614250487E+02 -0.27661004069E+03  0.28001689683E+03  0.00000000000E+00 0. -1.
        -11    1    5    5    0    0  0.27845546612E+03  0.72131345503E+02 -0.80865521662E+03  0.85829111436E+03  0.00000000000E+00 0.  1.
          3    1    6    6  503    0 -0.14815942654E+03 -0.47906283673E+03 -0.11480929703E+04  0.12528247625E+04  0.00000000000E+00 0. -1.
         -3    1    6    6    0  503 -0.51027492674E+02 -0.25241591769E+03 -0.75731794578E+03  0.79990503906E+03  0.00000000000E+00 0.  1.
<mgrwt>
<rscale>  0 0.23366879E+04</rscale>
<asrwt>0</asrwt>
<pdfrwt beam="1">  1        2 0.53300481E+00 0.23366879E+04</pdfrwt>
<pdfrwt beam="2">  1       -1 0.60615484E-01 0.23366879E+04</pdfrwt>
<totfact> 0.24480432E+00</totfact>
</mgrwt>
</event>
<event>
12    6  0.1530720E-007  0.1635523E+04  0.7818608E-02  0.8799017E-01
          2   -1    0    0  501    0  0.00000000000E+00  0.00000000000E+00  0.27722099211E+04  0.27722099211E+04  0.00000000000E+00 0. -1.
         -1   -1    0    0    0  501 -0.00000000000E+00 -0.00000000000E+00 -0.24122762226E+03  0.24122762226E+03  0.00000000000E+00 0.  1.
         24    2    1    2    0    0  0.22958701463E+03 -0.29019454240E+03  0.16432099831E+04  0.16865827446E+04  0.86598130160E+02 0.  0.
        254    2    1    2    0    0 -0.22958701463E+03  0.29019454240E+03  0.88777231570E+03  0.13268547987E+04  0.91404644446E+03 0.  0.
         23    2    4    4    0    0 -0.49946497834E+03  0.29955572412E+02  0.21698775325E+03  0.55282467064E+03  0.90381582746E+02 0.  0.
         23    2    4    4    0    0  0.26987796371E+03  0.26023896998E+03  0.67078456245E+03  0.77403012807E+03  0.92802333778E+02 0.  0.
          4    1    3    3  502    0  0.13716247148E+03 -0.14888213575E+03  0.10716679192E+04  0.10906198068E+04  0.00000000000E+00 0. -1.
         -1    1    3    3    0  502  0.92424543147E+02 -0.14131240665E+03  0.57154206391E+03  0.59596293783E+03  0.00000000000E+00 0.  1.
         11    1    5    5    0    0 -0.21200872153E+03  0.27504903949E+02  0.13888183228E+03  0.25493603332E+03  0.00000000000E+00 0.  1.
        -11    1    5    5    0    0 -0.28745625681E+03  0.24506684637E+01  0.78105920974E+02  0.29788863732E+03  0.00000000000E+00 0. -1.
          1    1    6    6  503    0  0.20777309607E+03  0.24569328996E+03  0.57601801041E+03  0.65979663571E+03  0.00000000000E+00 0. -1.
         -1    1    6    6    0  503  0.62104867643E+02  0.14545680026E+02  0.94766552038E+02  0.11423349236E+03  0.00000000000E+00 0.  1.
<mgrwt>
<rscale>  0 0.16355227E+04</rscale>
<asrwt>0</asrwt>
<pdfrwt beam="1">  1        2 0.42649381E+00 0.16355227E+04</pdfrwt>
<pdfrwt beam="2">  1       -1 0.37111944E-01 0.16355227E+04</pdfrwt>
<totfact> 0.18341717E+01</totfact>
</mgrwt>
</event>
<event>
12    6  0.1530720E-007  0.1680724E+04  0.7818608E-02  0.8772435E-01
         -1   -1    0    0    0  501 -0.00000000000E+00  0.00000000000E+00  0.25436147062E+03  0.25436147062E+03  0.00000000000E+00 0.  1.
          2   -1    0    0  501    0  0.00000000000E+00 -0.00000000000E+00 -0.27763966498E+04  0.27763966498E+04  0.00000000000E+00 0. -1.
         24    2    1    2    0    0  0.31730976080E+03 -0.49116729194E+03 -0.11104048486E+04  0.12575075778E+04  0.79972418177E+02 0.  0.
        254    2    1    2    0    0 -0.31730976080E+03  0.49116729194E+03 -0.14116303307E+04  0.17732505426E+04  0.89988138298E+03 0.  0.
         23    2    4    4    0    0 -0.52633718627E+03  0.33577870601E+03 -0.13501942735E+04  0.14906288729E+04  0.95768927733E+02 0.  0.
         23    2    4    4    0    0  0.20902742547E+03  0.15538858594E+03 -0.61436057143E+02  0.28262166967E+03  0.90898524808E+02 0.  0.
          2    1    3    3  502    0  0.17095525225E+03 -0.20830230322E+03 -0.56374698727E+03  0.62484095053E+03  0.00000000000E+00 0. -1.
         -3    1    3    3    0  502  0.14635450855E+03 -0.28286498872E+03 -0.54665786128E+03  0.63266662731E+03  0.00000000000E+00 0.  1.
         11    1    5    5    0    0 -0.24624895140E+03  0.10471163293E+03 -0.61328976312E+03  0.66912435741E+03  0.00000000000E+00 0.  1.
        -11    1    5    5    0    0 -0.28008823487E+03  0.23106707307E+03 -0.73690451041E+03  0.82150451553E+03  0.00000000000E+00 0. -1.
          4    1    6    6  503    0  0.84832336710E+02  0.13729427371E+02 -0.33193297983E+02  0.92123925006E+02  0.00000000000E+00 0. -1.
         -4    1    6    6    0  503  0.12419508876E+03  0.14165915856E+03 -0.28242759161E+02  0.19049774467E+03  0.00000000000E+00 0.  1.
<mgrwt>
<rscale>  0 0.16807241E+04</rscale>
<asrwt>0</asrwt>
<pdfrwt beam="1">  1        2 0.42713795E+00 0.16807241E+04</pdfrwt>
<pdfrwt beam="2">  1       -1 0.39132533E-01 0.16807241E+04</pdfrwt>
<totfact> 0.16495603E+01</totfact>
</mgrwt>
</event>
<event>
12    6  0.1530720E-007  0.2119707E+04  0.7818608E-02  0.8552612E-01
          2   -1    0    0  501    0  0.00000000000E+00  0.00000000000E+00  0.28739951808E+04  0.28739951808E+04  0.00000000000E+00 0. -1.
         -1   -1    0    0    0  501 -0.00000000000E+00 -0.00000000000E+00 -0.39084581794E+03  0.39084581794E+03  0.00000000000E+00 0.  1.
         24    2    1    2    0    0 -0.32756045551E+03  0.55439424375E+03  0.19051208790E+04  0.20121918602E+04  0.69149758534E+02 0.  0.
        254    2    1    2    0    0  0.32756045551E+03 -0.55439424375E+03  0.57802848379E+03  0.12526491385E+04  0.90573953572E+03 0.  0.
         23    2    4    4    0    0  0.49461714799E+02  0.19447166188E+03 -0.56832225426E+02  0.22811382253E+03  0.92413882508E+02 0.  0.
         23    2    4    4    0    0  0.27809874071E+03 -0.74886590562E+03  0.63486070921E+03  0.10245353160E+04  0.92116444473E+02 0.  0.
          2    1    3    3  502    0 -0.30210549466E+03  0.52905549926E+03  0.18335173874E+04  0.19320852624E+04  0.00000000000E+00 0. -1.
         -1    1    3    3    0  502 -0.25454960856E+02  0.25338744492E+02  0.71603491638E+02  0.80106597851E+02  0.00000000000E+00 0.  1.
         11    1    5    5    0    0  0.50390913256E+02  0.55198192379E+02 -0.47431757590E+02  0.88520371716E+02  0.00000000000E+00 0. -1.
        -11    1    5    5    0    0 -0.92919845701E+00  0.13927346950E+03 -0.94004678361E+01  0.13959345082E+03  0.00000000000E+00 0.  1.
          1    1    6    6  503    0  0.24344829446E+03 -0.53989064622E+03  0.46205040713E+03  0.75115881189E+03  0.00000000000E+00 0. -1.
         -1    1    6    6    0  503  0.34650446257E+02 -0.20897525940E+03  0.17281030208E+03  0.27337650406E+03  0.00000000000E+00 0.  1.
<mgrwt>
<rscale>  0 0.21197066E+04</rscale>
<asrwt>0</asrwt>
<pdfrwt beam="1">  1        2 0.44215309E+00 0.21197066E+04</pdfrwt>
<pdfrwt beam="2">  1       -1 0.60130128E-01 0.21197066E+04</pdfrwt>
<totfact> 0.61280918E+00</totfact>
</mgrwt>
</event>
<event>
12    6  0.1530720E-007  0.1097222E+04  0.7818608E-02  0.9207904E-01
         -1   -1    0    0    0  501 -0.00000000000E+00  0.00000000000E+00  0.33786942777E+03  0.33786942777E+03  0.00000000000E+00 0.  1.
          2   -1    0    0  501    0  0.00000000000E+00 -0.00000000000E+00 -0.89079935854E+03  0.89079935854E+03  0.00000000000E+00 0. -1.
         24    2    1    2    0    0 -0.74012793656E+01  0.10639429470E+02  0.53736645499E+02  0.97423147999E+02  0.80222604675E+02 0.  0.
        254    2    1    2    0    0  0.74012793656E+01 -0.10639429470E+02 -0.60666657627E+03  0.11312456383E+04  0.95472738676E+03 0.  0.
         23    2    4    4    0    0 -0.20736277768E+03 -0.39324654233E+03 -0.11940464571E+03  0.46921240578E+03  0.90888105384E+02 0.  0.
         23    2    4    4    0    0  0.21476405704E+03  0.38260711286E+03 -0.48726193056E+03  0.66203323253E+03  0.91389326439E+02 0.  0.
          2    1    3    3  502    0 -0.30848770908E+01 -0.33852725997E+02  0.11394959695E+02  0.35852038025E+02  0.00000000000E+00 0. -1.
         -1    1    3    3    0  502 -0.43164022748E+01  0.44492155467E+02  0.42341685804E+02  0.61571109974E+02  0.00000000000E+00 0.  1.
         11    1    5    5    0    0 -0.15450123626E+03 -0.34677844937E+03 -0.78047428761E+02  0.38757879984E+03  0.00000000000E+00 0. -1.
        -11    1    5    5    0    0 -0.52861541420E+02 -0.46468092961E+02 -0.41357216944E+02  0.81633605936E+02  0.00000000000E+00 0.  1.
          2    1    6    6  503    0  0.95876283447E+02  0.25839023159E+03 -0.31699494157E+03  0.42005186167E+03  0.00000000000E+00 0. -1.
         -2    1    6    6    0  503  0.11888777360E+03  0.12421688126E+03 -0.17026698900E+03  0.24198137086E+03  0.00000000000E+00 0.  1.
<mgrwt>
<rscale>  0 0.10972217E+04</rscale>
<asrwt>0</asrwt>
<pdfrwt beam="1">  1        2 0.13704605E+00 0.10972217E+04</pdfrwt>
<pdfrwt beam="2">  1       -1 0.51979913E-01 0.10972217E+04</pdfrwt>
<totfact> 0.12556226E+02</totfact>
</mgrwt>
</event>
<event>
12    6  0.1530720E-007  0.1625977E+04  0.7818608E-02  0.8804747E-01
         -1   -1    0    0    0  501 -0.00000000000E+00  0.00000000000E+00  0.30085795460E+03  0.30085795460E+03  0.00000000000E+00 0.  1.
          2   -1    0    0  501    0  0.00000000000E+00 -0.00000000000E+00 -0.21968840907E+04  0.21968840907E+04  0.00000000000E+00 0. -1.
         24    2    1    2    0    0  0.52600716485E+03  0.20380208082E+02 -0.49107252350E+03  0.72429336315E+03  0.79685395255E+02 0.  0.
        254    2    1    2    0    0 -0.52600716485E+03 -0.20380208082E+02 -0.14049536126E+04  0.17734486822E+04  0.94558272209E+03 0.  0.
         23    2    4    4    0    0 -0.99778504581E+02 -0.41372327576E+03 -0.89986553863E+03  0.99901121240E+03  0.84514590449E+02 0.  0.
         23    2    4    4    0    0 -0.42622866027E+03  0.39334306768E+03 -0.50508807399E+03  0.77443746978E+03  0.90828367697E+02 0.  0.
          2    1    3    3  502    0  0.93084704476E+02 -0.25531809343E+02 -0.10184229321E+03  0.14031567333E+03  0.00000000000E+00 0. -1.
         -1    1    3    3    0  502  0.43292246038E+03  0.45912017425E+02 -0.38923023028E+03  0.58397768982E+03  0.00000000000E+00 0.  1.
         11    1    5    5    0    0 -0.18099242901E+02 -0.10386115879E+02 -0.64321596441E+02  0.67621903001E+02  0.00000000000E+00 0.  1.
        -11    1    5    5    0    0 -0.81679261680E+02 -0.40333715988E+03 -0.83554394219E+03  0.93138930940E+03  0.00000000000E+00 0. -1.
          3    1    6    6  503    0 -0.26039916262E+03  0.27996580426E+03 -0.37210057382E+03  0.53352358194E+03  0.00000000000E+00 0. -1.
         -3    1    6    6    0  503 -0.16582949765E+03  0.11337726342E+03 -0.13298750018E+03  0.24091388784E+03  0.00000000000E+00 0.  1.
<mgrwt>
<rscale>  0 0.16259767E+04</rscale>
<asrwt>0</asrwt>
<pdfrwt beam="1">  1        2 0.33798217E+00 0.16259767E+04</pdfrwt>
<pdfrwt beam="2">  1       -1 0.46285838E-01 0.16259767E+04</pdfrwt>
<totfact> 0.26269975E+01</totfact>
</mgrwt>
</event>
<event>
12    6  0.1530720E-007  0.1398940E+04  0.7818608E-02  0.8954586E-01
         -1   -1    0    0    0  501 -0.00000000000E+00  0.00000000000E+00  0.78693448507E+03  0.78693448507E+03  0.00000000000E+00 0.  1.
          2   -1    0    0  501    0  0.00000000000E+00 -0.00000000000E+00 -0.62172677575E+03  0.62172677575E+03  0.00000000000E+00 0. -1.
         24    2    1    2    0    0 -0.35783107290E+03  0.94934889969E+02 -0.13267354565E+03  0.40166400468E+03  0.81706749270E+02 0.  0.
        254    2    1    2    0    0  0.35783107290E+03 -0.94934889969E+02  0.29788125497E+03  0.10069972561E+04  0.88783699052E+03 0.  0.
         23    2    4    4    0    0  0.32541348026E+03 -0.45583156140E+03  0.27845934976E+03  0.63197734801E+03  0.90440109580E+02 0.  0.
         23    2    4    4    0    0  0.32417592635E+02  0.36089667143E+03  0.19421905206E+02  0.37501990812E+03  0.94685866533E+02 0.  0.
          4    1    3    3  502    0 -0.29347511639E+03  0.45221836906E+02 -0.11509928042E+03  0.31846585818E+03  0.00000000000E+00 0. -1.
         -3    1    3    3    0  502 -0.64355956511E+02  0.49713053062E+02 -0.17574265229E+02  0.83198146503E+02  0.00000000000E+00 0.  1.
         11    1    5    5    0    0  0.16550679215E+02 -0.75807292472E+02  0.39988356990E+02  0.87291117928E+02  0.00000000000E+00 0.  1.
        -11    1    5    5    0    0  0.30886280105E+03 -0.38002426893E+03  0.23847099277E+03  0.54468623008E+03  0.00000000000E+00 0. -1.
          4    1    6    6  503    0  0.30707255827E+01  0.33425623377E+03  0.23947996448E+02  0.33512708889E+03  0.00000000000E+00 0. -1.
         -4    1    6    6    0  503  0.29346867052E+02  0.26640437660E+02 -0.45260912420E+01  0.39892819234E+02  0.00000000000E+00 0.  1.
<mgrwt>
<rscale>  0 0.13989399E+04</rscale>
<asrwt>0</asrwt>
<pdfrwt beam="1">  1        2 0.95650272E-01 0.13989399E+04</pdfrwt>
<pdfrwt beam="2">  1       -1 0.12106684E+00 0.13989399E+04</pdfrwt>
<totfact> 0.32009415E+01</totfact>
</mgrwt>
</event>
<event>
12    6  0.1530720E-007  0.1980976E+04  0.7818608E-02  0.8615567E-01
         -1   -1    0    0    0  501 -0.00000000000E+00  0.00000000000E+00  0.30899680310E+03  0.30899680310E+03  0.00000000000E+00 0.  1.
          2   -1    0    0  501    0  0.00000000000E+00 -0.00000000000E+00 -0.31750064388E+04  0.31750064388E+04  0.00000000000E+00 0. -1.
         24    2    1    2    0    0 -0.58856140529E+01 -0.22504200642E+03 -0.24633454011E+04  0.24749102656E+04  0.80197958477E+02 0.  0.
        254    2    1    2    0    0  0.58856140529E+01  0.22504200642E+03 -0.40266423464E+03  0.10090929763E+04  0.89746955599E+03 0.  0.
         23    2    4    4    0    0 -0.23472261223E+03  0.16775872827E+03  0.19387172409E+03  0.35679766986E+03  0.80502398786E+02 0.  0.
         23    2    4    4    0    0  0.24060822628E+03  0.57283278155E+02 -0.59653595874E+03  0.65229530648E+03  0.91980021087E+02 0.  0.
          2    1    3    3  502    0 -0.16722570158E+02 -0.12772301227E+03 -0.99500126840E+03  0.10033047076E+04  0.00000000000E+00 0. -1.
         -1    1    3    3    0  502  0.10836956105E+02 -0.97318994150E+02 -0.14683441327E+04  0.14716055580E+04  0.00000000000E+00 0.  1.
         11    1    5    5    0    0 -0.62374542471E+02  0.69225951093E+02  0.25816850474E+02  0.96691910838E+02  0.00000000000E+00 0. -1.
        -11    1    5    5    0    0 -0.17234806976E+03  0.98532777177E+02  0.16805487362E+03  0.26010575902E+03  0.00000000000E+00 0.  1.
          3    1    6    6  503    0  0.33763031120E+02 -0.14876619829E+02 -0.15589389673E+03  0.16020038429E+03  0.00000000000E+00 0. -1.
         -3    1    6    6    0  503  0.20684519516E+03  0.72159897984E+02 -0.44064206201E+03  0.49209492219E+03  0.00000000000E+00 0.  1.
<mgrwt>
<rscale>  0 0.19809764E+04</rscale>
<asrwt>0</asrwt>
<pdfrwt beam="1">  1        2 0.48846256E+00 0.19809764E+04</pdfrwt>
<pdfrwt beam="2">  1       -1 0.47537967E-01 0.19809764E+04</pdfrwt>
<totfact> 0.63210849E+00</totfact>
</mgrwt>
</event>
<event>
12    6  0.1530720E-007  0.1972429E+04  0.7818608E-02  0.8619621E-01
          2   -1    0    0  501    0  0.00000000000E+00  0.00000000000E+00  0.17981409689E+04  0.17981409689E+04  0.00000000000E+00 0. -1.
         -1   -1    0    0    0  501 -0.00000000000E+00 -0.00000000000E+00 -0.54090249117E+03  0.54090249117E+03  0.00000000000E+00 0.  1.
         24    2    1    2    0    0 -0.39006290892E+03  0.45186111975E+03 -0.11273475175E+03  0.61268766173E+03  0.79683763289E+02 0.  0.
        254    2    1    2    0    0  0.39006290892E+03 -0.45186111975E+03  0.13699732295E+04  0.17263557983E+04  0.86437847527E+03 0.  0.
         23    2    4    4    0    0  0.68485744150E+02 -0.21459854345E+03  0.12845352209E+04  0.13076223170E+04  0.95407328707E+02 0.  0.
         23    2    4    4    0    0  0.32157716477E+03 -0.23726257630E+03  0.85438008591E+02  0.41873348128E+03  0.91283470681E+02 0.  0.
          4    1    3    3  502    0 -0.45265374290E+02  0.23753930260E+02  0.19622891110E+01  0.51157148973E+02  0.00000000000E+00 0. -1.
         -3    1    3    3    0  502 -0.34479753463E+03  0.42810718949E+03 -0.11469704086E+03  0.56153051276E+03  0.00000000000E+00 0.  1.
         11    1    5    5    0    0  0.42138845972E+02 -0.19898997035E+03  0.94140396136E+03  0.96312725489E+03  0.00000000000E+00 0.  1.
        -11    1    5    5    0    0  0.26346898178E+02 -0.15608573099E+02  0.34313125950E+03  0.34449506215E+03  0.00000000000E+00 0. -1.
          2    1    6    6  503    0 -0.35903545104E+01 -0.13929753528E+01  0.90403177107E+01  0.98264118657E+01  0.00000000000E+00 0. -1.
         -2    1    6    6    0  503  0.32516751928E+03 -0.23586960095E+03  0.76397690880E+02  0.40890706941E+03  0.00000000000E+00 0.  1.
<mgrwt>
<rscale>  0 0.19724289E+04</rscale>
<asrwt>0</asrwt>
<pdfrwt beam="1">  1        2 0.27663707E+00 0.19724289E+04</pdfrwt>
<pdfrwt beam="2">  1       -1 0.83215769E-01 0.19724289E+04</pdfrwt>
<totfact> 0.13146306E+01</totfact>
</mgrwt>
</event>
<event>
12    6  0.1530720E-007  0.2628206E+04  0.7818608E-02  0.8358683E-01
          2   -1    0    0  501    0  0.00000000000E+00  0.00000000000E+00  0.29703869333E+04  0.29703869333E+04  0.00000000000E+00 0. -1.
         -1   -1    0    0    0  501 -0.00000000000E+00 -0.00000000000E+00 -0.58136083829E+03  0.58136083829E+03  0.00000000000E+00 0.  1.
         24    2    1    2    0    0 -0.10936145027E+04 -0.33985558502E+03  0.78971945553E+03  0.13934053963E+04  0.80170323395E+02 0.  0.
        254    2    1    2    0    0  0.10936145027E+04  0.33985558502E+03  0.15993066395E+04  0.21583423754E+04  0.88834992146E+03 0.  0.
         23    2    4    4    0    0  0.73140201105E+03  0.63281183796E+03  0.11409920868E+04  0.14985013050E+04  0.90793693830E+02 0.  0.
         23    2    4    4    0    0  0.36221249163E+03 -0.29295625294E+03  0.45831455273E+03  0.65984107040E+03  0.91196237399E+02 0.  0.
          4    1    3    3  502    0 -0.37502559667E+02 -0.27084908881E+02  0.25800470302E+02  0.52968844980E+02  0.00000000000E+00 0. -1.
         -3    1    3    3    0  502 -0.10561119430E+04 -0.31277067614E+03  0.76391898523E+03  0.13404365513E+04  0.00000000000E+00 0.  1.
         11    1    5    5    0    0  0.70905683491E+03  0.62595759117E+03  0.10951492915E+04  0.14470440462E+04  0.00000000000E+00 0.  1.
        -11    1    5    5    0    0  0.22345176139E+02  0.68542467862E+01  0.45842795298E+02  0.51457258734E+02  0.00000000000E+00 0. -1.
          4    1    6    6  503    0  0.14955824451E+03 -0.16994201953E+03  0.25465714012E+03  0.34073188509E+03  0.00000000000E+00 0. -1.
         -4    1    6    6    0  503  0.21265424712E+03 -0.12301423341E+03  0.20365741261E+03  0.31910918531E+03  0.00000000000E+00 0.  1.
<mgrwt>
<rscale>  0 0.26282060E+04</rscale>
<asrwt>0</asrwt>
<pdfrwt beam="1">  1        2 0.45698260E+00 0.26282060E+04</pdfrwt>
<pdfrwt beam="2">  1       -1 0.89440130E-01 0.26282060E+04</pdfrwt>
<totfact> 0.22324155E+00</totfact>
</mgrwt>
</event>
<event>
12    6  0.1530720E-007  0.1474909E+04  0.7818608E-02  0.8901311E-01
          2   -1    0    0  501    0  0.00000000000E+00  0.00000000000E+00  0.62097258852E+03  0.62097258852E+03  0.00000000000E+00 0. -1.
         -1   -1    0    0    0  501 -0.00000000000E+00 -0.00000000000E+00 -0.87578645731E+03  0.87578645731E+03  0.00000000000E+00 0.  1.
         24    2    1    2    0    0 -0.30378064796E+03  0.25586492019E+03 -0.31567807372E+03  0.51377221325E+03  0.80991983727E+02 0.  0.
        254    2    1    2    0    0  0.30378064796E+03 -0.25586492019E+03  0.60864204929E+02  0.98298683258E+03  0.89711154386E+03 0.  0.
         23    2    4    4    0    0  0.49068724926E+03 -0.23274992250E+03 -0.25308806425E+03  0.60599776693E+03  0.90737105138E+02 0.  0.
         23    2    4    4    0    0 -0.18690660130E+03 -0.23114997686E+02  0.31395226918E+03  0.37698906565E+03  0.89924121145E+02 0.  0.
          2    1    3    3  502    0 -0.14441921711E+03  0.81261054798E+02 -0.16247569554E+03  0.23207460210E+03  0.00000000000E+00 0. -1.
         -1    1    3    3    0  502 -0.15936143085E+03  0.17460386539E+03 -0.15320237817E+03  0.28169761115E+03  0.00000000000E+00 0.  1.
         11    1    5    5    0    0  0.10175519228E+03 -0.70496217744E+02 -0.94456203470E+02  0.15571066195E+03  0.00000000000E+00 0.  1.
        -11    1    5    5    0    0  0.38893205698E+03 -0.16225370476E+03 -0.15863186078E+03  0.45028710498E+03  0.00000000000E+00 0. -1.
          4    1    6    6  503    0 -0.18638081437E+03 -0.37907241807E+02  0.30571275231E+03  0.36004868264E+03  0.00000000000E+00 0. -1.
         -4    1    6    6    0  503 -0.52578693108E+00  0.14792244121E+02  0.82395168703E+01  0.16940383003E+02  0.00000000000E+00 0.  1.
<mgrwt>
<rscale>  0 0.14749093E+04</rscale>
<asrwt>0</asrwt>
<pdfrwt beam="1">  1        2 0.95534245E-01 0.14749093E+04</pdfrwt>
<pdfrwt beam="2">  1       -1 0.13473638E+00 0.14749093E+04</pdfrwt>
<totfact> 0.24359900E+01</totfact>
</mgrwt>
</event>
<event>
12    6  0.1530720E-007  0.1303801E+04  0.7818608E-02  0.9026556E-01
          2   -1    0    0  501    0  0.00000000000E+00  0.00000000000E+00  0.21327760901E+04  0.21327760901E+04  0.00000000000E+00 0. -1.
         -1   -1    0    0    0  501 -0.00000000000E+00 -0.00000000000E+00 -0.19925883053E+03  0.19925883053E+03  0.00000000000E+00 0.  1.
         24    2    1    2    0    0 -0.34610816611E+03  0.21636100092E+03  0.90231463609E+03  0.99366460220E+03  0.81207720066E+02 0.  0.
        254    2    1    2    0    0  0.34610816611E+03 -0.21636100092E+03  0.10312026234E+04  0.13383703184E+04  0.74916841442E+03 0.  0.
         23    2    4    4    0    0  0.17917854049E+03 -0.15148691388E+03  0.10974882120E+04  0.11259091816E+04  0.90210173676E+02 0.  0.
         23    2    4    4    0    0  0.16692962562E+03 -0.64874087034E+02 -0.66285588512E+02  0.21246113676E+03  0.93122544583E+02 0.  0.
          2    1    3    3  502    0 -0.26097966156E+03  0.18211857845E+03  0.76455705380E+03  0.82814554813E+03  0.00000000000E+00 0. -1.
         -1    1    3    3    0  502 -0.85128504552E+02  0.34242422463E+02  0.13775758229E+03  0.16551905407E+03  0.00000000000E+00 0.  1.
         11    1    5    5    0    0  0.11705037370E+03 -0.14759311632E+03  0.86095078613E+03  0.88131763519E+03  0.00000000000E+00 0. -1.
        -11    1    5    5    0    0  0.62128166790E+02 -0.38937975596E+01  0.23653742584E+03  0.24459154644E+03  0.00000000000E+00 0.  1.
          4    1    6    6  503    0  0.13686079717E+03 -0.29477860431E+02 -0.11254392954E+02  0.14045100007E+03  0.00000000000E+00 0. -1.
         -4    1    6    6    0  503  0.30068828449E+02 -0.35396226603E+02 -0.55031195559E+02  0.72010136694E+02  0.00000000000E+00 0.  1.
<mgrwt>
<rscale>  0 0.13038013E+04</rscale>
<asrwt>0</asrwt>
<pdfrwt beam="1">  1        2 0.32811938E+00 0.13038013E+04</pdfrwt>
<pdfrwt beam="2">  1       -1 0.30655206E-01 0.13038013E+04</pdfrwt>
<totfact> 0.61861632E+01</totfact>
</mgrwt>
</event>
<event>
12    6  0.1530720E-007  0.2389470E+04  0.7818608E-02  0.8443456E-01
          2   -1    0    0  501    0  0.00000000000E+00  0.00000000000E+00  0.13404102610E+04  0.13404102610E+04  0.00000000000E+00 0. -1.
         -1   -1    0    0    0  501 -0.00000000000E+00 -0.00000000000E+00 -0.10648915824E+04  0.10648915824E+04  0.00000000000E+00 0.  1.
         24    2    1    2    0    0 -0.47328933222E+02  0.93245978225E+03  0.53874860602E+03  0.10802637765E+04  0.70700020287E+02 0.  0.
        254    2    1    2    0    0  0.47328933222E+02 -0.93245978225E+03 -0.26322992747E+03  0.13250380669E+04  0.90261542787E+03 0.  0.
         23    2    4    4    0    0  0.35054191896E+03 -0.87959920783E+03 -0.30973336256E+03  0.10006902528E+04  0.94190353657E+02 0.  0.
         23    2    4    4    0    0 -0.30321298573E+03 -0.52860574421E+02  0.46503435097E+02  0.32434781416E+03  0.91140441233E+02 0.  0.
          4    1    3    3  502    0 -0.54535584124E+02  0.60280437251E+03  0.37606203933E+03  0.71257974914E+03  0.00000000000E+00 0. -1.
         -3    1    3    3    0  502  0.72066509019E+01  0.32965540974E+03  0.16268656668E+03  0.36768402735E+03  0.00000000000E+00 0.  1.
         11    1    5    5    0    0  0.13823869913E+03 -0.25600010809E+03 -0.66269316218E+02  0.29839171495E+03  0.00000000000E+00 0. -1.
        -11    1    5    5    0    0  0.21230321983E+03 -0.62359909974E+03 -0.24346404634E+03  0.70229853781E+03  0.00000000000E+00 0.  1.
          2    1    6    6  503    0 -0.14234637499E+02 -0.10419215421E+02 -0.18030990353E+02  0.25225018688E+02  0.00000000000E+00 0. -1.
         -2    1    6    6    0  503 -0.28897834823E+03 -0.42441358999E+02  0.64534425450E+02  0.29912279547E+03  0.00000000000E+00 0.  1.
<mgrwt>
<rscale>  0 0.23894699E+04</rscale>
<asrwt>0</asrwt>
<pdfrwt beam="1">  1        2 0.20621696E+00 0.23894699E+04</pdfrwt>
<pdfrwt beam="2">  1       -1 0.16382947E+00 0.23894699E+04</pdfrwt>
<totfact> 0.43918882E+00</totfact>
</mgrwt>
</event>
<event>
12    6  0.1530720E-007  0.2441426E+04  0.7818608E-02  0.8424155E-01
         -1   -1    0    0    0  501 -0.00000000000E+00  0.00000000000E+00  0.65271501080E+03  0.65271501080E+03  0.00000000000E+00 0.  1.
          2   -1    0    0  501    0  0.00000000000E+00 -0.00000000000E+00 -0.22829878966E+04  0.22829878966E+04  0.00000000000E+00 0. -1.
         24    2    1    2    0    0 -0.90777771579E+02 -0.80856496746E+03 -0.15098164978E+04  0.17169311638E+04  0.79302293746E+02 0.  0.
        254    2    1    2    0    0  0.90777771579E+02  0.80856496746E+03 -0.12045638796E+03  0.12187717436E+04  0.89937584528E+03 0.  0.
         23    2    4    4    0    0 -0.13092253730E+03 -0.92631480195E+02  0.16083244905E+03  0.24477003565E+03  0.91235912821E+02 0.  0.
         23    2    4    4    0    0  0.22170030888E+03  0.90119644765E+03 -0.28128883701E+03  0.97400170790E+03  0.90828701115E+02 0.  0.
          2    1    3    3  502    0 -0.38374164752E+02 -0.63508619079E+03 -0.11684846497E+04  0.13304748862E+04  0.00000000000E+00 0. -1.
         -1    1    3    3    0  502 -0.52403606828E+02 -0.17347877667E+03 -0.34133184811E+03  0.38645627760E+03  0.00000000000E+00 0.  1.
         11    1    5    5    0    0 -0.20117578188E+02 -0.48956990529E+02  0.12221132318E+02  0.54321818351E+02  0.00000000000E+00 0. -1.
        -11    1    5    5    0    0 -0.11080495912E+03 -0.43674489666E+02  0.14861131673E+03  0.19044821730E+03  0.00000000000E+00 0.  1.
          1    1    6    6  503    0  0.83797138808E+02  0.18566262498E+03 -0.67393582992E+02  0.21455643969E+03  0.00000000000E+00 0. -1.
         -1    1    6    6    0  503  0.13790317008E+03  0.71553382268E+03 -0.21389525402E+03  0.75944526821E+03  0.00000000000E+00 0.  1.
<mgrwt>
<rscale>  0 0.24414262E+04</rscale>
<asrwt>0</asrwt>
<pdfrwt beam="1">  1        2 0.35122890E+00 0.24414262E+04</pdfrwt>
<pdfrwt beam="2">  1       -1 0.10041769E+00 0.24414262E+04</pdfrwt>
<totfact> 0.44608235E+00</totfact>
</mgrwt>
</event>
<event>
12    6  0.1530720E-007  0.1954969E+04  0.7818608E-02  0.8627969E-01
         -1   -1    0    0    0  501 -0.00000000000E+00  0.00000000000E+00  0.55285906629E+03  0.55285906629E+03  0.00000000000E+00 0.  1.
          2   -1    0    0  501    0  0.00000000000E+00 -0.00000000000E+00 -0.17282445155E+04  0.17282445155E+04  0.00000000000E+00 0. -1.
         24    2    1    2    0    0 -0.15048218555E+03  0.41842676040E+03  0.27674829196E+03  0.52991443452E+03  0.80584420500E+02 0.  0.
        254    2    1    2    0    0  0.15048218555E+03 -0.41842676040E+03 -0.14521337412E+04  0.17511891473E+04  0.87192040077E+03 0.  0.
         23    2    4    4    0    0  0.20824527127E+03 -0.64285475469E+03 -0.78817295950E+03  0.10420839075E+04  0.89966257930E+02 0.  0.
         23    2    4    4    0    0 -0.57763085720E+02  0.22442799429E+03 -0.66396078172E+03  0.70910523980E+03  0.91004520545E+02 0.  0.
          2    1    3    3  502    0 -0.10019926639E+02  0.61871518611E-01  0.10456467758E+02  0.14482419546E+02  0.00000000000E+00 0. -1.
         -1    1    3    3    0  502 -0.14046225891E+03  0.41836488888E+03  0.26629182420E+03  0.51543201498E+03  0.00000000000E+00 0.  1.
         11    1    5    5    0    0  0.15035240769E+03 -0.38004565829E+03 -0.52872636292E+03  0.66827547893E+03  0.00000000000E+00 0. -1.
        -11    1    5    5    0    0  0.57892863576E+02 -0.26280909639E+03 -0.25944659657E+03  0.37380842858E+03  0.00000000000E+00 0.  1.
          1    1    6    6  503    0 -0.15431436658E+02 -0.11384879181E+01 -0.18857253827E+02  0.24393060775E+02  0.00000000000E+00 0. -1.
         -1    1    6    6    0  503 -0.42331649062E+02  0.22556648221E+03 -0.64510352789E+03  0.68471217903E+03  0.00000000000E+00 0.  1.
<mgrwt>
<rscale>  0 0.19549687E+04</rscale>
<asrwt>0</asrwt>
<pdfrwt beam="1">  1        2 0.26588377E+00 0.19549687E+04</pdfrwt>
<pdfrwt beam="2">  1       -1 0.85055242E-01 0.19549687E+04</pdfrwt>
<totfact> 0.13732202E+01</totfact>
</mgrwt>
</event>
<event>
12    6  0.1530720E-007  0.1417855E+04  0.7818608E-02  0.8940995E-01
          4   -1    0    0  501    0  0.00000000000E+00  0.00000000000E+00  0.22731910345E+03  0.22731910345E+03  0.00000000000E+00 0. -1.
         -3   -1    0    0    0  501 -0.00000000000E+00 -0.00000000000E+00 -0.22108933559E+04  0.22108933559E+04  0.00000000000E+00 0.  1.
         24    2    1    2    0    0  0.40010615427E+03 -0.56674584884E+02 -0.40613141386E+03  0.57837788887E+03  0.79254739613E+02 0.  0.
        254    2    1    2    0    0 -0.40010615427E+03  0.56674584884E+02 -0.15774428385E+04  0.18598345704E+04  0.89853312531E+03 0.  0.
         23    2    4    4    0    0  0.12322168226E+03  0.67200639538E+00  0.38431697614E+02  0.15780031607E+03  0.90773948903E+02 0.  0.
         23    2    4    4    0    0 -0.52332783653E+03  0.56002578489E+02 -0.16158745362E+04  0.17020342544E+04  0.94136991464E+02 0.  0.
          4    1    3    3  502    0  0.33372185283E+03 -0.75459263794E+02 -0.32528886968E+03  0.47209874421E+03  0.00000000000E+00 0. -1.
         -3    1    3    3    0  502  0.66384301442E+02  0.18784678910E+02 -0.80842544182E+02  0.10627914466E+03  0.00000000000E+00 0.  1.
         11    1    5    5    0    0 -0.33165333547E+01 -0.93440389957E+01  0.28848746340E+02  0.30505091766E+02  0.00000000000E+00 0. -1.
        -11    1    5    5    0    0  0.12653821561E+03  0.10016045391E+02  0.95829512739E+01  0.12729522430E+03  0.00000000000E+00 0.  1.
          1    1    6    6  503    0 -0.33295398155E+03  0.78246164855E+02 -0.10840151031E+04  0.11366923770E+04  0.00000000000E+00 0. -1.
         -1    1    6    6    0  503 -0.19037385498E+03 -0.22243586366E+02 -0.53185943308E+03  0.56534187740E+03  0.00000000000E+00 0.  1.
<mgrwt>
<rscale>  0 0.14178551E+04</rscale>
<asrwt>0</asrwt>
<pdfrwt beam="1">  1        4 0.34972171E-01 0.14178551E+04</pdfrwt>
<pdfrwt beam="2">  1       -3 0.34013742E+00 0.14178551E+04</pdfrwt>
<totfact> 0.40691703E-01</totfact>
</mgrwt>
</event>
<event>
12    6  0.1530720E-007  0.1716682E+04  0.7818608E-02  0.8751907E-01
         -1   -1    0    0    0  501 -0.00000000000E+00  0.00000000000E+00  0.23313824308E+04  0.23313824308E+04  0.00000000000E+00 0.  1.
          2   -1    0    0  501    0  0.00000000000E+00 -0.00000000000E+00 -0.31601386866E+03  0.31601386866E+03  0.00000000000E+00 0. -1.
         24    2    1    2    0    0 -0.55046770719E+03  0.23158276728E+03  0.10127452507E+04  0.11785358762E+04  0.81538911142E+02 0.  0.
        254    2    1    2    0    0  0.55046770719E+03 -0.23158276728E+03  0.10026233115E+04  0.14688604233E+04  0.89199336518E+03 0.  0.
         23    2    4    4    0    0  0.43344545430E+03  0.28560992221E+03  0.58583026738E+03  0.78785490251E+03  0.89834602022E+02 0.  0.
         23    2    4    4    0    0  0.11702225289E+03 -0.51719268949E+03  0.41679304412E+03  0.68100552076E+03  0.94178511052E+02 0.  0.
          4    1    3    3  502    0 -0.76606138372E+02  0.60889237286E+02  0.13849065663E+03  0.16957494399E+03  0.00000000000E+00 0. -1.
         -3    1    3    3    0  502 -0.47386156881E+03  0.17069353000E+03  0.87425459402E+03  0.10089609322E+04  0.00000000000E+00 0.  1.
         11    1    5    5    0    0  0.22264920783E+03  0.10895239120E+03  0.32564671326E+03  0.40925429155E+03  0.00000000000E+00 0.  1.
        -11    1    5    5    0    0  0.21079624647E+03  0.17665753100E+03  0.26018355411E+03  0.37860061095E+03  0.00000000000E+00 0. -1.
          2    1    6    6  503    0  0.46553027341E+02 -0.10017241985E+03  0.50308085070E+02  0.12137792829E+03  0.00000000000E+00 0.  1.
         -2    1    6    6    0  503  0.70469225550E+02 -0.41702026965E+03  0.36648495905E+03  0.55962759247E+03  0.00000000000E+00 0. -1.
<mgrwt>
<rscale>  0 0.17166819E+04</rscale>
<asrwt>0</asrwt>
<pdfrwt beam="1">  1        2 0.48617520E-01 0.17166819E+04</pdfrwt>
<pdfrwt beam="2">  1       -1 0.35867421E+00 0.17166819E+04</pdfrwt>
<totfact> 0.15377560E+00</totfact>
</mgrwt>
</event>
<event>
12    6  0.1530720E-007  0.1707325E+04  0.7818608E-02  0.8757198E-01
          2   -1    0    0  501    0  0.00000000000E+00  0.00000000000E+00  0.21854740241E+04  0.21854740241E+04  0.00000000000E+00 0. -1.
         -1   -1    0    0    0  501 -0.00000000000E+00 -0.00000000000E+00 -0.33344686499E+03  0.33344686499E+03  0.00000000000E+00 0.  1.
         24    2    1    2    0    0  0.34007849511E+03  0.46631331798E+03  0.34926995146E+03  0.67928570599E+03  0.79612046900E+02 0.  0.
        254    2    1    2    0    0 -0.34007849511E+03 -0.46631331798E+03  0.15027572076E+04  0.18396351830E+04  0.89043634717E+03 0.  0.
         23    2    4    4    0    0  0.12793716702E+03  0.42477633514E+02 -0.19000424447E+02  0.16574150992E+03  0.94535516745E+02 0.  0.
         23    2    4    4    0    0 -0.46801566213E+03 -0.50879095149E+03  0.15217576320E+04  0.16738936731E+04  0.90922197108E+02 0.  0.
          2    1    3    3  502    0  0.15588528657E+03  0.23849129765E+03  0.21542300136E+03  0.35719097293E+03  0.00000000000E+00 0. -1.
         -1    1    3    3    0  502  0.18419320853E+03  0.22782202032E+03  0.13384695010E+03  0.32209473306E+03  0.00000000000E+00 0.  1.
         11    1    5    5    0    0  0.77700951510E+02  0.72358736404E+02 -0.13551338113E+02  0.10703673839E+03  0.00000000000E+00 0. -1.
        -11    1    5    5    0    0  0.50236215513E+02 -0.29881102889E+02 -0.54490863339E+01  0.58704771534E+02  0.00000000000E+00 0.  1.
          4    1    6    6  503    0 -0.40428066044E+03 -0.47614644343E+03  0.13911122431E+04  0.15249103452E+04  0.00000000000E+00 0. -1.
         -4    1    6    6    0  503 -0.63735001690E+02 -0.32644508062E+02  0.13064538892E+03  0.14898332790E+03  0.00000000000E+00 0.  1.
<mgrwt>
<rscale>  0 0.17073248E+04</rscale>
<asrwt>0</asrwt>
<pdfrwt beam="1">  1        2 0.33622676E+00 0.17073248E+04</pdfrwt>
<pdfrwt beam="2">  1       -1 0.51299519E-01 0.17073248E+04</pdfrwt>
<totfact> 0.21789689E+01</totfact>
</mgrwt>
</event>
<event>
12    6  0.1530720E-007  0.1912732E+04  0.7818608E-02  0.8648545E-01
          2   -1    0    0  501    0  0.00000000000E+00  0.00000000000E+00  0.21807608387E+04  0.21807608387E+04  0.00000000000E+00 0. -1.
         -1   -1    0    0    0  501 -0.00000000000E+00 -0.00000000000E+00 -0.41941118620E+03  0.41941118620E+03  0.00000000000E+00 0.  1.
         24    2    1    2    0    0  0.14001017636E+03  0.48535887230E+03  0.14294382167E+04  0.15182257438E+04  0.80868469348E+02 0.  0.
        254    2    1    2    0    0 -0.14001017636E+03 -0.48535887230E+03  0.33191143580E+03  0.10819462811E+04  0.89736640767E+03 0.  0.
         23    2    4    4    0    0 -0.15688448669E+03 -0.71318304105E+03  0.38466589080E+03  0.83048180606E+03  0.92137888185E+02 0.  0.
         23    2    4    4    0    0  0.16874310333E+02  0.22782416875E+03 -0.52754455004E+02  0.25146447506E+03  0.90899700097E+02 0.  0.
          4    1    3    3  502    0  0.38304686458E+02  0.18766280474E+03  0.65198906853E+03  0.67953978748E+03  0.00000000000E+00 0. -1.
         -3    1    3    3    0  502  0.10170548990E+03  0.29769606755E+03  0.77744914815E+03  0.83868595629E+03  0.00000000000E+00 0.  1.
         11    1    5    5    0    0 -0.87335204950E+02 -0.46321021314E+03  0.20019672145E+03  0.51212290211E+03  0.00000000000E+00 0. -1.
        -11    1    5    5    0    0 -0.69549281742E+02 -0.24997282791E+03  0.18446916935E+03  0.31835890395E+03  0.00000000000E+00 0.  1.
          1    1    6    6  503    0  0.38063124174E+02  0.15013484334E+03  0.56398509309E+00  0.15488573428E+03  0.00000000000E+00 0. -1.
         -1    1    6    6    0  503 -0.21188813842E+02  0.77689325418E+02 -0.53318440097E+02  0.96578740778E+02  0.00000000000E+00 0.  1.
<mgrwt>
<rscale>  0 0.19127315E+04</rscale>
<asrwt>0</asrwt>
<pdfrwt beam="1">  1        2 0.33550166E+00 0.19127315E+04</pdfrwt>
<pdfrwt beam="2">  1       -1 0.64524799E-01 0.19127315E+04</pdfrwt>
<totfact> 0.13736825E+01</totfact>
</mgrwt>
</event>
<event>
12    6  0.1530720E-007  0.2028687E+04  0.7818608E-02  0.8593325E-01
          2   -1    0    0  501    0  0.00000000000E+00  0.00000000000E+00  0.18916041651E+04  0.18916041651E+04  0.00000000000E+00 0. -1.
         -1   -1    0    0    0  501 -0.00000000000E+00 -0.00000000000E+00 -0.54392603424E+03  0.54392603424E+03  0.00000000000E+00 0.  1.
         24    2    1    2    0    0  0.17485053042E+03  0.21743501602E+03  0.14631623169E+04  0.14916214312E+04  0.78992620230E+02 0.  0.
        254    2    1    2    0    0 -0.17485053042E+03 -0.21743501602E+03 -0.11548418611E+03  0.94390876814E+03  0.89430222584E+03 0.  0.
         23    2    4    4    0    0 -0.41805441418E+03  0.89840740304E+02 -0.26544413470E+03  0.51383516565E+03  0.10356223723E+03 0.  0.
         23    2    4    4    0    0  0.24320388376E+03 -0.30727575632E+03  0.14995994858E+03  0.43007360249E+03  0.94386428450E+02 0.  0.
          2    1    3    3  502    0  0.16258697503E+03  0.18840867811E+03  0.13878010909E+04  0.14099376662E+04  0.00000000000E+00 0. -1.
         -1    1    3    3    0  502  0.12263555389E+02  0.29026337910E+02  0.75361225994E+02  0.81683765012E+02  0.00000000000E+00 0.  1.
         11    1    5    5    0    0 -0.38943945867E+03  0.10990021484E+03 -0.24983892705E+03  0.47556349593E+03  0.00000000000E+00 0. -1.
        -11    1    5    5    0    0 -0.28614955518E+02 -0.20059474537E+02 -0.15605207649E+02  0.38271669728E+02  0.00000000000E+00 0.  1.
          3    1    6    6  503    0  0.10437783407E+03 -0.13710736028E+03  0.16540183930E+02  0.17310903550E+03  0.00000000000E+00 0. -1.
         -3    1    6    6    0  503  0.13882604969E+03 -0.17016839604E+03  0.13341976466E+03  0.25696456698E+03  0.00000000000E+00 0.  1.
<mgrwt>
<rscale>  0 0.20286870E+04</rscale>
<asrwt>0</asrwt>
<pdfrwt beam="1">  1        2 0.29101602E+00 0.20286870E+04</pdfrwt>
<pdfrwt beam="2">  1       -1 0.83680929E-01 0.20286870E+04</pdfrwt>
<totfact> 0.11472122E+01</totfact>
</mgrwt>
</event>
<event>
12    6  0.1530720E-007  0.2065987E+04  0.7818608E-02  0.8576376E-01
         -1   -1    0    0    0  501 -0.00000000000E+00  0.00000000000E+00  0.68359044199E+03  0.68359044199E+03  0.00000000000E+00 0.  1.
          2   -1    0    0  501    0  0.00000000000E+00 -0.00000000000E+00 -0.15609867533E+04  0.15609867533E+04  0.00000000000E+00 0. -1.
         24    2    1    2    0    0 -0.39421619884E+03  0.59906610884E+02 -0.11534769186E+04  0.12231235441E+04  0.80789782825E+02 0.  0.
        254    2    1    2    0    0  0.39421619884E+03 -0.59906610884E+02  0.27608060727E+03  0.10214536512E+04  0.89897266162E+03 0.  0.
         23    2    4    4    0    0  0.58491605434E+03  0.22056939932E+03  0.18466814052E+03  0.65852464409E+03  0.93673551279E+02 0.  0.
         23    2    4    4    0    0 -0.19069985550E+03 -0.28047601020E+03  0.91412466754E+02  0.36292900710E+03  0.91257865014E+02 0.  0.
          4    1    3    3  502    0 -0.27017165651E+03  0.33942668076E+02 -0.89052493779E+03  0.93122472772E+03  0.00000000000E+00 0. -1.
         -3    1    3    3    0  502 -0.12404454233E+03  0.25963942807E+02 -0.26295198079E+03  0.29189881638E+03  0.00000000000E+00 0.  1.
         11    1    5    5    0    0  0.41085082094E+03  0.19510103646E+03  0.15236832346E+03  0.47966542245E+03  0.00000000000E+00 0.  1.
        -11    1    5    5    0    0  0.17406523339E+03  0.25468362858E+02  0.32299817056E+02  0.17885922164E+03  0.00000000000E+00 0. -1.
          1    1    6    6  503    0  0.83205393109E+00 -0.23727086003E+02 -0.11639011215E+02  0.26441132842E+02  0.00000000000E+00 0. -1.
         -1    1    6    6    0  503 -0.19153190943E+03 -0.25674892420E+03  0.10305147797E+03  0.33648787425E+03  0.00000000000E+00 0.  1.
<mgrwt>
<rscale>  0 0.20659871E+04</rscale>
<asrwt>0</asrwt>
<pdfrwt beam="1">  1        2 0.24015181E+00 0.20659871E+04</pdfrwt>
<pdfrwt beam="2">  1       -1 0.10516776E+00 0.20659871E+04</pdfrwt>
<totfact> 0.10472318E+01</totfact>
</mgrwt>
</event>
<event>
12    6  0.1530720E-007  0.1381905E+04  0.7818608E-02  0.8967021E-01
         -3   -1    0    0    0  501 -0.00000000000E+00  0.00000000000E+00  0.26218489020E+03  0.26218489020E+03  0.00000000000E+00 0.  1.
          2   -1    0    0  501    0  0.00000000000E+00 -0.00000000000E+00 -0.18209120344E+04  0.18209120344E+04  0.00000000000E+00 0. -1.
         24    2    1    2    0    0 -0.14376547925E+03  0.22427713844E+03 -0.16091891146E+02  0.27863277187E+03  0.80053261924E+02 0.  0.
        254    2    1    2    0    0  0.14376547925E+03 -0.22427713844E+03 -0.15426352530E+04  0.18044641527E+04  0.89744002958E+03 0.  0.
         23    2    4    4    0    0 -0.36914265873E+03 -0.71680491741E+02 -0.53489477391E+03  0.66037013043E+03  0.92584526890E+02 0.  0.
         23    2    4    4    0    0  0.51290813798E+03 -0.15259664670E+03 -0.10077404791E+04  0.11440940223E+04  0.83962872678E+02 0.  0.
          2    1    3    3  502    0 -0.88998173588E+01  0.16731957002E+02 -0.24500514783E+02  0.30974834282E+02  0.00000000000E+00 0. -1.
         -1    1    3    3    0  502 -0.13486566189E+03  0.20754518144E+03  0.84086236377E+01  0.24765793759E+03  0.00000000000E+00 0.  1.
         11    1    5    5    0    0 -0.28415164415E+02 -0.10576195966E+02 -0.10017685716E+03  0.10466460816E+03  0.00000000000E+00 0. -1.
        -11    1    5    5    0    0 -0.34072749431E+03 -0.61104295775E+02 -0.43471791674E+03  0.55570552227E+03  0.00000000000E+00 0.  1.
          3    1    6    6  503    0  0.38903050928E+03 -0.91935075314E+02 -0.80632269842E+03  0.89997393808E+03  0.00000000000E+00 0.  1.
         -3    1    6    6    0  503  0.12387762870E+03 -0.60661571388E+02 -0.20141778072E+03  0.24412008423E+03  0.00000000000E+00 0. -1.
<mgrwt>
<rscale>  0 0.13819054E+04</rscale>
<asrwt>0</asrwt>
<pdfrwt beam="1">  1        2 0.28014031E+00 0.13819054E+04</pdfrwt>
<pdfrwt beam="2">  1       -3 0.40336137E-01 0.13819054E+04</pdfrwt>
<totfact> 0.32213075E+01</totfact>
</mgrwt>
</event>
<event>
12    6  0.1530720E-007  0.1447973E+04  0.7818608E-02  0.8919807E-01
          2   -1    0    0  501    0  0.00000000000E+00  0.00000000000E+00  0.24433253858E+04  0.24433253858E+04  0.00000000000E+00 0. -1.
         -1   -1    0    0    0  501 -0.00000000000E+00 -0.00000000000E+00 -0.21452596813E+03  0.21452596813E+03  0.00000000000E+00 0.  1.
         24    2    1    2    0    0  0.19267682040E+03 -0.10597746798E+03  0.13100920467E+04  0.13309883344E+04  0.82663139215E+02 0.  0.
        254    2    1    2    0    0 -0.19267682040E+03  0.10597746798E+03  0.91870737093E+03  0.13268630195E+04  0.93176534508E+03 0.  0.
         23    2    4    4    0    0 -0.35318883955E+03 -0.43147858585E+02 -0.10708112339E+02  0.36770112016E+03  0.92115992177E+02 0.  0.
         23    2    4    4    0    0  0.16051201914E+03  0.14912532657E+03  0.92941548327E+03  0.95916189935E+03  0.90420889761E+02 0.  0.
          2    1    3    3  502    0  0.19365924288E+03 -0.81116570753E+02  0.11601630327E+04  0.11790089324E+04  0.00000000000E+00 0. -1.
         -1    1    3    3    0  502 -0.98242247891E+00 -0.24860897227E+02  0.14992901409E+03  0.15197940199E+03  0.00000000000E+00 0.  1.
         11    1    5    5    0    0 -0.22328469289E+03 -0.45852720905E+01  0.32023721214E+02  0.22561604003E+03  0.00000000000E+00 0.  1.
        -11    1    5    5    0    0 -0.12990414666E+03 -0.38562586495E+02 -0.42731833553E+02  0.14208508013E+03  0.00000000000E+00 0. -1.
          4    1    6    6  503    0  0.92409499317E+02  0.13985172376E+03  0.69066366906E+03  0.71071395368E+03  0.00000000000E+00 0. -1.
         -4    1    6    6    0  503  0.68102519827E+02  0.92736028082E+01  0.23875181421E+03  0.24844794566E+03  0.00000000000E+00 0.  1.
<mgrwt>
<rscale>  0 0.14479734E+04</rscale>
<asrwt>0</asrwt>
<pdfrwt beam="1">  1        2 0.37589619E+00 0.14479734E+04</pdfrwt>
<pdfrwt beam="2">  1       -1 0.33003997E-01 0.14479734E+04</pdfrwt>
<totfact> 0.35840298E+01</totfact>
</mgrwt>
</event>
<event>
12    6  0.1530720E-007  0.2616672E+04  0.7818608E-02  0.8362560E-01
          2   -1    0    0  501    0  0.00000000000E+00  0.00000000000E+00  0.23641560589E+04  0.23641560589E+04  0.00000000000E+00 0. -1.
         -1   -1    0    0    0  501 -0.00000000000E+00 -0.00000000000E+00 -0.72403955736E+03  0.72403955736E+03  0.00000000000E+00 0.  1.
         24    2    1    2    0    0 -0.98853611265E+03 -0.47899241192E+03  0.11377658742E+04  0.15835285483E+04  0.80088088675E+02 0.  0.
        254    2    1    2    0    0  0.98853611265E+03  0.47899241192E+03  0.50235062735E+03  0.15046670680E+04  0.89723433733E+03 0.  0.
         23    2    4    4    0    0  0.21008124542E+03 -0.24788787203E+03  0.20708228659E+03  0.39570742307E+03  0.90104186763E+02 0.  0.
         23    2    4    4    0    0  0.77845486723E+03  0.72688028395E+03  0.29526834075E+03  0.11089596450E+04  0.90890998243E+02 0.  0.
          2    1    3    3  502    0 -0.59236959326E+03 -0.32796826232E+03  0.71784429190E+03  0.98679549225E+03  0.00000000000E+00 0. -1.
         -1    1    3    3    0  502 -0.39616651939E+03 -0.15102414960E+03  0.41992158234E+03  0.59673305603E+03  0.00000000000E+00 0.  1.
         11    1    5    5    0    0  0.45335689642E+02 -0.11761743399E+03  0.93421782692E+02  0.15689746657E+03  0.00000000000E+00 0. -1.
        -11    1    5    5    0    0  0.16474555578E+03 -0.13027043804E+03  0.11366050390E+03  0.23880995650E+03  0.00000000000E+00 0.  1.
          3    1    6    6  503    0  0.22584928653E+03  0.25408154474E+03  0.64951394695E+02  0.34609827401E+03  0.00000000000E+00 0. -1.
         -3    1    6    6    0  503  0.55260558071E+03  0.47279873922E+03  0.23031694606E+03  0.76286137094E+03  0.00000000000E+00 0.  1.
<mgrwt>
<rscale>  0 0.26166716E+04</rscale>
<asrwt>0</asrwt>
<pdfrwt beam="1">  1        2 0.36371631E+00 0.26166716E+04</pdfrwt>
<pdfrwt beam="2">  1       -1 0.11139070E+00 0.26166716E+04</pdfrwt>
<totfact> 0.31009264E+00</totfact>
</mgrwt>
</event>
<event>
12    6  0.1530720E-007  0.1773863E+04  0.7818608E-02  0.8720323E-01
          2   -1    0    0  501    0  0.00000000000E+00  0.00000000000E+00  0.14806973623E+04  0.14806973623E+04  0.00000000000E+00 0. -1.
         -1   -1    0    0    0  501 -0.00000000000E+00 -0.00000000000E+00 -0.53126839920E+03  0.53126839920E+03  0.00000000000E+00 0.  1.
         24    2    1    2    0    0 -0.52534342343E+03  0.38390473655E+03  0.39305637632E+03  0.76439482709E+03  0.80234515203E+02 0.  0.
        254    2    1    2    0    0  0.52534342343E+03 -0.38390473655E+03  0.55637258674E+03  0.12475709344E+04  0.90747684363E+03 0.  0.
         23    2    4    4    0    0 -0.18610211330E+03 -0.16645095919E+03  0.40323247104E+03  0.48269518219E+03  0.89768005559E+02 0.  0.
         23    2    4    4    0    0  0.71144553673E+03 -0.21745377736E+03  0.15314011571E+03  0.76487575218E+03  0.90233719936E+02 0.  0.
          4    1    3    3  502    0 -0.26829166838E+03  0.18661837093E+03  0.24327785301E+03  0.40741986876E+03  0.00000000000E+00 0. -1.
         -3    1    3    3    0  502 -0.25705175505E+03  0.19728636562E+03  0.14977852331E+03  0.35697495833E+03  0.00000000000E+00 0.  1.
         11    1    5    5    0    0 -0.80497317440E+02 -0.25301850132E+02  0.90743605052E+02  0.12391288711E+03  0.00000000000E+00 0. -1.
        -11    1    5    5    0    0 -0.10560479586E+03 -0.14114910906E+03  0.31248886599E+03  0.35878229508E+03  0.00000000000E+00 0.  1.
          4    1    6    6  503    0  0.16747500832E+03 -0.69766526790E+02  0.72928077942E+02  0.19553452694E+03  0.00000000000E+00 0. -1.
         -4    1    6    6    0  503  0.54397052841E+03 -0.14768725057E+03  0.80212037764E+02  0.56934122524E+03  0.00000000000E+00 0.  1.
<mgrwt>
<rscale>  0 0.17738633E+04</rscale>
<asrwt>0</asrwt>
<pdfrwt beam="1">  1        2 0.22779959E+00 0.17738633E+04</pdfrwt>
<pdfrwt beam="2">  1       -1 0.81733601E-01 0.17738633E+04</pdfrwt>
<totfact> 0.20908378E+01</totfact>
</mgrwt>
</event>
<event>
12    6  0.1530720E-007  0.2240162E+04  0.7818608E-02  0.8501895E-01
          2   -1    0    0  501    0  0.00000000000E+00  0.00000000000E+00  0.29203293650E+04  0.29203293650E+04  0.00000000000E+00 0. -1.
         -1   -1    0    0    0  501 -0.00000000000E+00 -0.00000000000E+00 -0.42960259691E+03  0.42960259691E+03  0.00000000000E+00 0.  1.
         24    2    1    2    0    0 -0.32239682556E+03 -0.86385548495E+03  0.13061762065E+04  0.16008484465E+04  0.80208816636E+02 0.  0.
        254    2    1    2    0    0  0.32239682556E+03  0.86385548495E+03  0.11845505616E+04  0.17490835154E+04  0.89774556469E+03 0.  0.
         23    2    4    4    0    0 -0.19175849322E+03  0.19296237122E+03  0.72960153758E+03  0.78414001254E+03  0.92473559473E+02 0.  0.
         23    2    4    4    0    0  0.51415531879E+03  0.67089311372E+03  0.45494902404E+03  0.96494350289E+03  0.98407760938E+02 0.  0.
          2    1    3    3  502    0 -0.24400788517E+03 -0.68451401539E+03  0.10801900303E+04  0.13018870100E+04  0.00000000000E+00 0. -1.
         -1    1    3    3    0  502 -0.78388940397E+02 -0.17934146955E+03  0.22598617623E+03  0.29896143652E+03  0.00000000000E+00 0.  1.
         11    1    5    5    0    0 -0.10421001903E+03  0.48942831486E+02  0.23660171045E+03  0.26312639208E+03  0.00000000000E+00 0. -1.
        -11    1    5    5    0    0 -0.87548474189E+02  0.14401953974E+03  0.49299982712E+03  0.52101362046E+03  0.00000000000E+00 0.  1.
          1    1    6    6  503    0  0.49641202854E+03  0.66617275104E+03  0.45355009900E+03  0.94652983503E+03  0.00000000000E+00 0.  1.
         -1    1    6    6    0  503  0.17743290247E+02  0.47203626881E+01  0.13989250406E+01  0.18413667857E+02  0.00000000000E+00 0. -1.
<mgrwt>
<rscale>  0 0.22401617E+04</rscale>
<asrwt>0</asrwt>
<pdfrwt beam="1">  1        2 0.44928143E+00 0.22401617E+04</pdfrwt>
<pdfrwt beam="2">  1       -1 0.66092709E-01 0.22401617E+04</pdfrwt>
<totfact> 0.46979347E+00</totfact>
</mgrwt>
</event>
<event>
12    6  0.1530720E-007  0.1396164E+04  0.7818608E-02  0.8956600E-01
         -1   -1    0    0    0  501 -0.00000000000E+00  0.00000000000E+00  0.34176574284E+03  0.34176574284E+03  0.00000000000E+00 0.  1.
          2   -1    0    0  501    0  0.00000000000E+00 -0.00000000000E+00 -0.14258849580E+04  0.14258849580E+04  0.00000000000E+00 0. -1.
         24    2    1    2    0    0  0.12666673388E+03 -0.22852956678E+03 -0.84187211248E+03  0.88521019063E+03  0.81106124646E+02 0.  0.
        254    2    1    2    0    0 -0.12666673388E+03  0.22852956678E+03 -0.24224710268E+03  0.88244051020E+03  0.80730872095E+03 0.  0.
         23    2    4    4    0    0 -0.27161091168E+03  0.42471989069E+03  0.21355050892E+02  0.51263512824E+03  0.90439281344E+02 0.  0.
         23    2    4    4    0    0  0.14494417780E+03 -0.19619032391E+03 -0.26360215357E+03  0.36980538197E+03  0.88150254071E+02 0.  0.
          4    1    3    3  502    0  0.11481101799E+03 -0.13467031722E+03 -0.59781377569E+03  0.62345727568E+03  0.00000000000E+00 0. -1.
         -3    1    3    3    0  502  0.11855715885E+02 -0.93859249561E+02 -0.24405833679E+03  0.26175291495E+03  0.00000000000E+00 0.  1.
         11    1    5    5    0    0 -0.66495460867E+02  0.93016002981E+02  0.42696974839E+02  0.12205185286E+03  0.00000000000E+00 0. -1.
        -11    1    5    5    0    0 -0.20511545081E+03  0.33170388771E+03 -0.21341923947E+02  0.39058327537E+03  0.00000000000E+00 0.  1.
          3    1    6    6  503    0  0.18964404052E+02  0.13924216965E+01 -0.47008166037E+02  0.50708531170E+02  0.00000000000E+00 0. -1.
         -3    1    6    6    0  503  0.12597977375E+03 -0.19758274560E+03 -0.21659398753E+03  0.31909685080E+03  0.00000000000E+00 0.  1.
<mgrwt>
<rscale>  0 0.13961642E+04</rscale>
<asrwt>0</asrwt>
<pdfrwt beam="1">  1        2 0.21936692E+00 0.13961642E+04</pdfrwt>
<pdfrwt beam="2">  1       -1 0.52579345E-01 0.13961642E+04</pdfrwt>
<totfact> 0.56553978E+01</totfact>
</mgrwt>
</event>
<event>
12    6  0.1530720E-007  0.2265993E+04  0.7818608E-02  0.8491451E-01
          2   -1    0    0  501    0  0.00000000000E+00  0.00000000000E+00  0.10587217295E+04  0.10587217295E+04  0.00000000000E+00 0. -1.
         -1   -1    0    0    0  501 -0.00000000000E+00 -0.00000000000E+00 -0.12124822334E+04  0.12124822334E+04  0.00000000000E+00 0.  1.
         24    2    1    2    0    0  0.58433136147E+03 -0.72213595631E+03 -0.17752242172E+03  0.94913909078E+03  0.80170593261E+02 0.  0.
        254    2    1    2    0    0 -0.58433136147E+03  0.72213595631E+03  0.23761917780E+02  0.13220648721E+04  0.94040811238E+03 0.  0.
         23    2    4    4    0    0  0.14520451320E+03  0.18288026288E+03 -0.26679503388E+03  0.36558260477E+03  0.89115148016E+02 0.  0.
         23    2    4    4    0    0 -0.72953587467E+03  0.53925569344E+03  0.29055695166E+03  0.95648226730E+03  0.86114401679E+02 0.  0.
          2    1    3    3  502    0  0.13851087050E+03 -0.13164895215E+03 -0.15499882946E+02  0.19172103228E+03  0.00000000000E+00 0. -1.
         -1    1    3    3    0  502  0.44582049097E+03 -0.59048700417E+03 -0.16202253878E+03  0.75741805849E+03  0.00000000000E+00 0.  1.
         11    1    5    5    0    0  0.63053789022E+01 -0.38758825755E+01  0.40783809038E+01  0.84506484743E+01  0.00000000000E+00 0.  1.
        -11    1    5    5    0    0  0.13889913429E+03  0.18675614545E+03 -0.27087341478E+03  0.35713195630E+03  0.00000000000E+00 0. -1.
          3    1    6    6  503    0 -0.50131471705E+03  0.38976456697E+03  0.16463447499E+03  0.65600104691E+03  0.00000000000E+00 0. -1.
         -3    1    6    6    0  503 -0.22822115762E+03  0.14949112647E+03  0.12592247667E+03  0.30048122039E+03  0.00000000000E+00 0.  1.
<mgrwt>
<rscale>  0 0.22659932E+04</rscale>
<asrwt>0</asrwt>
<pdfrwt beam="1">  1        2 0.16288027E+00 0.22659932E+04</pdfrwt>
<pdfrwt beam="2">  1       -1 0.18653573E+00 0.22659932E+04</pdfrwt>
<totfact> 0.44789692E+00</totfact>
</mgrwt>
</event>
<event>
12    6  0.1530720E-007  0.1396928E+04  0.7818608E-02  0.8956046E-01
          2   -1    0    0  501    0  0.00000000000E+00  0.00000000000E+00  0.10013494010E+04  0.10013494010E+04  0.00000000000E+00 0. -1.
         -1   -1    0    0    0  501 -0.00000000000E+00 -0.00000000000E+00 -0.48719424607E+03  0.48719424607E+03  0.00000000000E+00 0.  1.
         24    2    1    2    0    0 -0.38440080621E+02  0.16403365259E+02 -0.26438874296E+03  0.27926842046E+03  0.79641277419E+02 0.  0.
        254    2    1    2    0    0  0.38440080621E+02 -0.16403365259E+02  0.77854389788E+03  0.12092752266E+04  0.92437506595E+03 0.  0.
         23    2    4    4    0    0  0.38155946092E+03  0.24342782015E+03  0.53759822747E+03  0.70834800090E+03  0.88883690068E+02 0.  0.
         23    2    4    4    0    0 -0.34311938030E+03 -0.25983118541E+03  0.24094567041E+03  0.50092722570E+03  0.87350531241E+02 0.  0.
          4    1    3    3  502    0  0.52716673683E+01  0.34499822226E+02 -0.59425470792E+02  0.68915998065E+02  0.00000000000E+00 0. -1.
         -3    1    3    3    0  502 -0.43711747990E+02 -0.18096456967E+02 -0.20496327217E+03  0.21035242239E+03  0.00000000000E+00 0.  1.
         11    1    5    5    0    0  0.15401389277E+03  0.12504829017E+03  0.29354274390E+03  0.35429464649E+03  0.00000000000E+00 0. -1.
        -11    1    5    5    0    0  0.22754556815E+03  0.11837952998E+03  0.24405548358E+03  0.35405335441E+03  0.00000000000E+00 0.  1.
          1    1    6    6  503    0 -0.18309994438E+03 -0.17105610810E+03  0.99352580647E+02  0.26954909948E+03  0.00000000000E+00 0. -1.
         -1    1    6    6    0  503 -0.16001943592E+03 -0.88775077313E+02  0.14159308976E+03  0.23137812622E+03  0.00000000000E+00 0.  1.
<mgrwt>
<rscale>  0 0.13969276E+04</rscale>
<asrwt>0</asrwt>
<pdfrwt beam="1">  1        2 0.15405375E+00 0.13969276E+04</pdfrwt>
<pdfrwt beam="2">  1       -1 0.74952961E-01 0.13969276E+04</pdfrwt>
<totfact> 0.49995235E+01</totfact>
</mgrwt>
</event>
<event>
12    6  0.1530720E-007  0.2429488E+04  0.7818608E-02  0.8428546E-01
          2   -1    0    0  501    0  0.00000000000E+00  0.00000000000E+00  0.19736485507E+04  0.19736485507E+04  0.00000000000E+00 0. -1.
         -1   -1    0    0    0  501 -0.00000000000E+00 -0.00000000000E+00 -0.74765219290E+03  0.74765219290E+03  0.00000000000E+00 0.  1.
         24    2    1    2    0    0 -0.99662918802E+03 -0.10775682709E+03  0.19086634797E+03  0.10236006572E+04  0.80293651610E+02 0.  0.
        254    2    1    2    0    0  0.99662918802E+03  0.10775682709E+03  0.10351300099E+04  0.16977000864E+04  0.89766930098E+03 0.  0.
         23    2    4    4    0    0  0.89909545751E+03 -0.26451541297E+03  0.81068088608E+03  0.12428887060E+04  0.96061391905E+02 0.  0.
         23    2    4    4    0    0  0.97533730504E+02  0.37227224006E+03  0.22444912378E+03  0.45481138042E+03  0.91523402973E+02 0.  0.
          4    1    3    3  502    0 -0.78364250470E+03 -0.80136437574E+02  0.18289369835E+03  0.80868258834E+03  0.00000000000E+00 0. -1.
         -3    1    3    3    0  502 -0.21298668332E+03 -0.27620389515E+02  0.79726496176E+01  0.21491806888E+03  0.00000000000E+00 0.  1.
         11    1    5    5    0    0  0.12164517302E+03 -0.71182964551E+02  0.11728323710E+03  0.18335735673E+03  0.00000000000E+00 0.  1.
        -11    1    5    5    0    0  0.77745028449E+03 -0.19333244842E+03  0.69339764899E+03  0.10595313493E+04  0.00000000000E+00 0. -1.
          1    1    6    6  503    0 -0.10214886224E+02  0.30511793257E+01  0.90350864255E+01  0.13974490422E+02  0.00000000000E+00 0. -1.
         -1    1    6    6    0  503  0.10774861673E+03  0.36922106073E+03  0.21541403736E+03  0.44083689000E+03  0.00000000000E+00 0.  1.
<mgrwt>
<rscale>  0 0.24294877E+04</rscale>
<asrwt>0</asrwt>
<pdfrwt beam="1">  1        2 0.30363824E+00 0.24294877E+04</pdfrwt>
<pdfrwt beam="2">  1       -1 0.11502342E+00 0.24294877E+04</pdfrwt>
<totfact> 0.48397813E+00</totfact>
</mgrwt>
</event>
<event>
12    6  0.1530720E-007  0.1886228E+04  0.7818608E-02  0.8661742E-01
          2   -1    0    0  501    0  0.00000000000E+00  0.00000000000E+00  0.20743938341E+04  0.20743938341E+04  0.00000000000E+00 0. -1.
         -1   -1    0    0    0  501 -0.00000000000E+00 -0.00000000000E+00 -0.42878274034E+03  0.42878274034E+03  0.00000000000E+00 0.  1.
         24    2    1    2    0    0 -0.47240984905E+03 -0.50239922139E+03  0.33822545302E+03  0.77217767099E+03  0.79283386433E+02 0.  0.
        254    2    1    2    0    0  0.47240984905E+03  0.50239922139E+03  0.13073856407E+04  0.17309989034E+04  0.90084623936E+03 0.  0.
         23    2    4    4    0    0 -0.15298041585E+03 -0.14118887277E+03  0.19581788474E+03  0.29948289327E+03  0.89487730732E+02 0.  0.
         23    2    4    4    0    0  0.62539026490E+03  0.64358809416E+03  0.11115677560E+04  0.14315160102E+04  0.91304944074E+02 0.  0.
          2    1    3    3  502    0 -0.52161002335E+02 -0.25519142207E+02  0.36341524122E+02  0.68503307650E+02  0.00000000000E+00 0. -1.
         -1    1    3    3    0  502 -0.42024884672E+03 -0.47688007919E+03  0.30188392890E+03  0.70367436334E+03  0.00000000000E+00 0.  1.
         11    1    5    5    0    0 -0.27189079101E+01 -0.15606188689E+02  0.57726875068E+02  0.59860986383E+02  0.00000000000E+00 0. -1.
        -11    1    5    5    0    0 -0.15026150794E+03 -0.12558268408E+03  0.13809100967E+03  0.23962190689E+03  0.00000000000E+00 0.  1.
          3    1    6    6  503    0  0.15926896737E+03  0.13269090499E+03  0.20804288553E+03  0.29369256452E+03  0.00000000000E+00 0. -1.
         -3    1    6    6    0  503  0.46612129754E+03  0.51089718918E+03  0.90352487045E+03  0.11378234456E+04  0.00000000000E+00 0.  1.
<mgrwt>
<rscale>  0 0.18862283E+04</rscale>
<asrwt>0</asrwt>
<pdfrwt beam="1">  1        2 0.31913751E+00 0.18862283E+04</pdfrwt>
<pdfrwt beam="2">  1       -1 0.65966576E-01 0.18862283E+04</pdfrwt>
<totfact> 0.15100395E+01</totfact>
</mgrwt>
</event>
<event>
12    6  0.1530720E-007  0.1533286E+04  0.7818608E-02  0.8862615E-01
         -1   -1    0    0    0  501 -0.00000000000E+00  0.00000000000E+00  0.52953324463E+03  0.52953324463E+03  0.00000000000E+00 0.  1.
          2   -1    0    0  501    0  0.00000000000E+00 -0.00000000000E+00 -0.11099236201E+04  0.11099236201E+04  0.00000000000E+00 0. -1.
         24    2    1    2    0    0  0.79941412564E+02  0.46521535318E+03 -0.35579215906E+03  0.59657060006E+03  0.80575840802E+02 0.  0.
        254    2    1    2    0    0 -0.79941412564E+02 -0.46521535318E+03 -0.22459821643E+03  0.10428862647E+04  0.90241423304E+03 0.  0.
         23    2    4    4    0    0 -0.30702681401E+03  0.89031210246E+02 -0.27974474023E+03  0.43487176010E+03  0.93082259997E+02 0.  0.
         23    2    4    4    0    0  0.22708540145E+03 -0.55424656343E+03  0.55146523793E+02  0.60801450460E+03  0.88788884966E+02 0.  0.
          2    1    3    3  502    0  0.50805226288E+02  0.18511454523E+03 -0.10152673832E+03  0.21715488590E+03  0.00000000000E+00 0. -1.
         -3    1    3    3    0  502  0.29136186276E+02  0.28010080795E+03 -0.25426542075E+03  0.37941571416E+03  0.00000000000E+00 0.  1.
         11    1    5    5    0    0 -0.26254702397E+02  0.35181093283E+02 -0.59716333169E+02  0.74115175030E+02  0.00000000000E+00 0. -1.
        -11    1    5    5    0    0 -0.28077211162E+03  0.53850116962E+02 -0.22002840706E+03  0.36075658507E+03  0.00000000000E+00 0.  1.
          2    1    6    6  503    0  0.15203348218E+03 -0.26939066218E+03  0.61599684284E+01  0.30939207130E+03  0.00000000000E+00 0. -1.
         -2    1    6    6    0  503  0.75051919271E+02 -0.28485590125E+03  0.48986555365E+02  0.29862243330E+03  0.00000000000E+00 0.  1.
<mgrwt>
<rscale>  0 0.15332860E+04</rscale>
<asrwt>0</asrwt>
<pdfrwt beam="1">  1        2 0.17075748E+00 0.15332860E+04</pdfrwt>
<pdfrwt beam="2">  1       -1 0.81466654E-01 0.15332860E+04</pdfrwt>
<totfact> 0.35436038E+01</totfact>
</mgrwt>
</event>
<event>
12    6  0.1530720E-007  0.3261546E+04  0.7818608E-02  0.8172750E-01
         -1   -1    0    0    0  501 -0.00000000000E+00  0.00000000000E+00  0.14618772099E+04  0.14618772099E+04  0.00000000000E+00 0.  1.
          2   -1    0    0  501    0  0.00000000000E+00 -0.00000000000E+00 -0.18191814911E+04  0.18191814911E+04  0.00000000000E+00 0. -1.
         24    2    1    2    0    0  0.32471130867E+03 -0.63249512748E+03  0.11804202502E+04  0.13801032596E+04  0.76193962839E+02 0.  0.
        254    2    1    2    0    0 -0.32471130867E+03  0.63249512748E+03 -0.15377245314E+04  0.19009554414E+04  0.86229190861E+03 0.  0.
         23    2    4    4    0    0  0.11862341968E+03  0.26947924101E+03 -0.11782822934E+04  0.12182963394E+04  0.95949104451E+02 0.  0.
         23    2    4    4    0    0 -0.44333472835E+03  0.36301588647E+03 -0.35944223796E+03  0.68265910200E+03  0.92187374022E+02 0.  0.
          2    1    3    3  502    0  0.10353558989E+03 -0.14671036571E+03  0.25703076031E+03  0.31354164241E+03  0.00000000000E+00 0. -1.
         -1    1    3    3    0  502  0.22117571878E+03 -0.48578476177E+03  0.92338948985E+03  0.10665616172E+04  0.00000000000E+00 0.  1.
         11    1    5    5    0    0 -0.10912661408E+02  0.46645901117E+02 -0.12317078214E+03  0.13215887349E+03  0.00000000000E+00 0.  1.
        -11    1    5    5    0    0  0.12953608109E+03  0.22283333989E+03 -0.10551115113E+04  0.10861374659E+04  0.00000000000E+00 0. -1.
          1    1    6    6  503    0 -0.36882689539E+03  0.25819122828E+03 -0.29974648344E+03  0.54087331554E+03  0.00000000000E+00 0. -1.
         -1    1    6    6    0  503 -0.74507832959E+02  0.10482465818E+03 -0.59695754516E+02  0.14178578646E+03  0.00000000000E+00 0.  1.
<mgrwt>
<rscale>  0 0.32615456E+04</rscale>
<asrwt>0</asrwt>
<pdfrwt beam="1">  1        2 0.27987408E+00 0.32615456E+04</pdfrwt>
<pdfrwt beam="2">  1       -1 0.22490419E+00 0.32615456E+04</pdfrwt>
<totfact> 0.81915200E-01</totfact>
</mgrwt>
</event>
<event>
12    6  0.1530720E-007  0.1400150E+04  0.7818608E-02  0.8953710E-01
         -1   -1    0    0    0  501 -0.00000000000E+00  0.00000000000E+00  0.22103967212E+03  0.22103967212E+03  0.00000000000E+00 0.  1.
          2   -1    0    0  501    0  0.00000000000E+00 -0.00000000000E+00 -0.22172719066E+04  0.22172719066E+04  0.00000000000E+00 0. -1.
         24    2    1    2    0    0 -0.54317051252E+02 -0.23762234425E+03 -0.11550958710E+04  0.11831845934E+04  0.79149165351E+02 0.  0.
        254    2    1    2    0    0  0.54317051252E+02  0.23762234425E+03 -0.84113636346E+03  0.12551269853E+04  0.89912104116E+03 0.  0.
         23    2    4    4    0    0  0.85451192167E+02 -0.17340291648E+03  0.90597830744E+02  0.23236991199E+03  0.91746015574E+02 0.  0.
         23    2    4    4    0    0 -0.31134140916E+02  0.41102526074E+03 -0.93173419421E+03  0.10227570733E+04  0.89399790802E+02 0.  0.
          2    1    3    3  502    0 -0.70816768939E+02 -0.21963097373E+03 -0.10730889041E+04  0.10976213261E+04  0.00000000000E+00 0. -1.
         -1    1    3    3    0  502  0.16499717687E+02 -0.17991370522E+02 -0.82006966851E+02  0.85563267289E+02  0.00000000000E+00 0.  1.
         11    1    5    5    0    0  0.73120060133E+02 -0.78439222722E+02  0.84298577482E+02  0.13640199786E+03  0.00000000000E+00 0. -1.
        -11    1    5    5    0    0  0.12331132034E+02 -0.94963693760E+02  0.62992532622E+01  0.95967914125E+02  0.00000000000E+00 0.  1.
          3    1    6    6  503    0 -0.63847942378E+01  0.36824737518E+02 -0.16556323611E+03  0.16972923155E+03  0.00000000000E+00 0. -1.
         -3    1    6    6    0  503 -0.24749346678E+02  0.37420052322E+03 -0.76617095810E+03  0.85302784173E+03  0.00000000000E+00 0.  1.
<mgrwt>
<rscale>  0 0.14001501E+04</rscale>
<asrwt>0</asrwt>
<pdfrwt beam="1">  1        2 0.34111876E+00 0.14001501E+04</pdfrwt>
<pdfrwt beam="2">  1       -1 0.34006103E-01 0.14001501E+04</pdfrwt>
<totfact> 0.45813289E+01</totfact>
</mgrwt>
</event>
<event>
12    6  0.1530720E-007  0.1512735E+04  0.7818608E-02  0.8876028E-01
         -1   -1    0    0    0  501 -0.00000000000E+00  0.00000000000E+00  0.44979572761E+03  0.44979572761E+03  0.00000000000E+00 0.  1.
          2   -1    0    0  501    0  0.00000000000E+00 -0.00000000000E+00 -0.12718925171E+04  0.12718925171E+04  0.00000000000E+00 0. -1.
         24    2    1    2    0    0  0.20461301551E+03  0.39039849116E+03 -0.37688774866E+02  0.44951539370E+03  0.79788328795E+02 0.  0.
        254    2    1    2    0    0 -0.20461301551E+03 -0.39039849116E+03 -0.78440801463E+03  0.12721728510E+04  0.89936108512E+03 0.  0.
         23    2    4    4    0    0 -0.21085020018E+03 -0.27704344759E+03  0.10152997260E+03  0.37446747655E+03  0.93309575542E+02 0.  0.
         23    2    4    4    0    0  0.62371846756E+01 -0.11335504357E+03 -0.88593798723E+03  0.89770537446E+03  0.90003076321E+02 0.  0.
          2    1    3    3  502    0  0.19383466296E+03  0.34922622055E+03 -0.55743887712E+02  0.40328428025E+03  0.00000000000E+00 0. -1.
         -1    1    3    3    0  502  0.10778352546E+02  0.41172270614E+02  0.18055112846E+02  0.46231113452E+02  0.00000000000E+00 0.  1.
         11    1    5    5    0    0 -0.42807152312E+02 -0.24027949731E+02 -0.11437154821E+02  0.50404396313E+02  0.00000000000E+00 0.  1.
        -11    1    5    5    0    0 -0.16804304787E+03 -0.25301549786E+03  0.11296712742E+03  0.32406308024E+03  0.00000000000E+00 0. -1.
          3    1    6    6  503    0 -0.33726562272E+02 -0.93622588718E+02 -0.65344113920E+03  0.66097503169E+03  0.00000000000E+00 0. -1.
         -3    1    6    6    0  503  0.39963746948E+02 -0.19732454849E+02 -0.23249684803E+03  0.23673034277E+03  0.00000000000E+00 0.  1.
<mgrwt>
<rscale>  0 0.15127350E+04</rscale>
<asrwt>0</asrwt>
<pdfrwt beam="1">  1        2 0.19567577E+00 0.15127350E+04</pdfrwt>
<pdfrwt beam="2">  1       -1 0.69199342E-01 0.15127350E+04</pdfrwt>
<totfact> 0.39918491E+01</totfact>
</mgrwt>
</event>
<event>
12    6  0.1530720E-007  0.1352097E+04  0.7818608E-02  0.8989242E-01
         -1   -1    0    0    0  501 -0.00000000000E+00  0.00000000000E+00  0.42332523868E+03  0.42332523868E+03  0.00000000000E+00 0.  1.
          2   -1    0    0  501    0  0.00000000000E+00 -0.00000000000E+00 -0.10796463277E+04  0.10796463277E+04  0.00000000000E+00 0. -1.
         24    2    1    2    0    0 -0.28575284760E+03 -0.13984764883E+03  0.49697393248E+01  0.32935179459E+03  0.85063808349E+02 0.  0.
        254    2    1    2    0    0  0.28575284760E+03  0.13984764883E+03 -0.66129082840E+03  0.11736197718E+04  0.91589614822E+03 0.  0.
         23    2    4    4    0    0 -0.15311405506E+03 -0.26762067302E+03 -0.74926316580E+02  0.33050219463E+03  0.92482480813E+02 0.  0.
         23    2    4    4    0    0  0.43886690266E+03  0.40746832185E+03 -0.58636451182E+03  0.84311757721E+03  0.91593213264E+02 0.  0.
          4    1    3    3  502    0 -0.20078093471E+03 -0.13085347212E+03 -0.19559340605E+02  0.24045411769E+03  0.00000000000E+00 0. -1.
         -1    1    3    3    0  502 -0.84971912893E+02 -0.89941767134E+01  0.24529079930E+02  0.88897676897E+02  0.00000000000E+00 0.  1.
         11    1    5    5    0    0  0.49449980042E+01  0.41550890137E+01 -0.56115719995E+01  0.85561387482E+01  0.00000000000E+00 0.  1.
        -11    1    5    5    0    0 -0.15805905306E+03 -0.27177576203E+03 -0.69314744580E+02  0.32194605588E+03  0.00000000000E+00 0. -1.
          3    1    6    6  503    0  0.40437536143E+03  0.34981025543E+03 -0.48736187078E+03  0.72346958528E+03  0.00000000000E+00 0. -1.
         -3    1    6    6    0  503  0.34491541227E+02  0.57658066425E+02 -0.99002641036E+02  0.11964799193E+03  0.00000000000E+00 0.  1.
<mgrwt>
<rscale>  0 0.13520969E+04</rscale>
<asrwt>0</asrwt>
<pdfrwt beam="1">  1        2 0.16609944E+00 0.13520969E+04</pdfrwt>
<pdfrwt beam="2">  1       -1 0.65126960E-01 0.13520969E+04</pdfrwt>
<totfact> 0.59721788E+01</totfact>
</mgrwt>
</event>
<event>
12    6  0.1530720E-007  0.1451298E+04  0.7818608E-02  0.8917501E-01
          2   -1    0    0  501    0  0.00000000000E+00  0.00000000000E+00  0.17069483584E+04  0.17069483584E+04  0.00000000000E+00 0. -1.
         -1   -1    0    0    0  501 -0.00000000000E+00 -0.00000000000E+00 -0.30848425722E+03  0.30848425722E+03  0.00000000000E+00 0.  1.
         24    2    1    2    0    0  0.38279978859E+03  0.19257258161E+03  0.34569845908E+03  0.55618830307E+03  0.78855098281E+02 0.  0.
        254    2    1    2    0    0 -0.38279978859E+03 -0.19257258161E+03  0.10527656421E+04  0.14592443126E+04  0.91512763548E+03 0.  0.
         23    2    4    4    0    0 -0.53902811643E+03 -0.43522047852E+03  0.64445906385E+03  0.95116367548E+03  0.97039565855E+02 0.  0.
         23    2    4    4    0    0  0.15622832784E+03  0.24264789691E+03  0.40830657827E+03  0.50808063710E+03  0.90257296885E+02 0.  0.
          4    1    3    3  502    0  0.29967103388E+03  0.14908806629E+03  0.22494536373E+03  0.40327459221E+03  0.00000000000E+00 0. -1.
         -3    1    3    3    0  502  0.83128754715E+02  0.43484515323E+02  0.12075309535E+03  0.15291371086E+03  0.00000000000E+00 0.  1.
         11    1    5    5    0    0 -0.50012266948E+03 -0.40562617661E+03  0.55905055808E+03  0.85275600623E+03  0.00000000000E+00 0. -1.
        -11    1    5    5    0    0 -0.38905446950E+02 -0.29594301917E+02  0.85408505771E+02  0.98407669245E+02  0.00000000000E+00 0.  1.
          3    1    6    6  503    0  0.12280381754E+03  0.16606278441E+03  0.21834754195E+03  0.30055494513E+03  0.00000000000E+00 0. -1.
         -3    1    6    6    0  503  0.33424510292E+02  0.76585112503E+02  0.18995903632E+03  0.20752569196E+03  0.00000000000E+00 0.  1.
<mgrwt>
<rscale>  0 0.14512983E+04</rscale>
<asrwt>0</asrwt>
<pdfrwt beam="1">  1        2 0.26260743E+00 0.14512983E+04</pdfrwt>
<pdfrwt beam="2">  1       -1 0.47459118E-01 0.14512983E+04</pdfrwt>
<totfact> 0.47582143E+01</totfact>
</mgrwt>
</event>
<event>
12    6  0.1530720E-007  0.1451058E+04  0.7818608E-02  0.8917667E-01
         -1   -1    0    0    0  501 -0.00000000000E+00  0.00000000000E+00  0.30701115710E+03  0.30701115710E+03  0.00000000000E+00 0.  1.
          2   -1    0    0  501    0  0.00000000000E+00 -0.00000000000E+00 -0.17145713916E+04  0.17145713916E+04  0.00000000000E+00 0. -1.
         24    2    1    2    0    0  0.12933483831E+03  0.38365340093E+03 -0.69145496443E+03  0.80505092311E+03  0.77971716186E+02 0.  0.
        254    2    1    2    0    0 -0.12933483831E+03 -0.38365340093E+03 -0.71610527006E+03  0.12165316256E+04  0.89622821077E+03 0.  0.
         23    2    4    4    0    0 -0.13583866528E+03 -0.16212490427E+03  0.17814915104E+03  0.29077651752E+03  0.89873441907E+02 0.  0.
         23    2    4    4    0    0  0.65038269655E+01 -0.22152849666E+03 -0.89425442110E+03  0.92575510805E+03  0.90633193898E+02 0.  0.
          4    1    3    3  502    0  0.91350806372E+02  0.27813666975E+03 -0.56273365485E+03  0.63432968020E+03  0.00000000000E+00 0. -1.
         -3    1    3    3    0  502  0.37984031939E+02  0.10551673118E+03 -0.12872130958E+03  0.17072124291E+03  0.00000000000E+00 0.  1.
         11    1    5    5    0    0 -0.14118959222E+03 -0.14542042699E+03  0.18245931259E+03  0.27271414024E+03  0.00000000000E+00 0.  1.
        -11    1    5    5    0    0  0.53509269445E+01 -0.16704477283E+02 -0.43101615553E+01  0.18062377283E+02  0.00000000000E+00 0. -1.
          3    1    6    6  503    0 -0.26486609597E+02 -0.37070669525E+02 -0.27574252288E+03  0.27948115134E+03  0.00000000000E+00 0. -1.
         -3    1    6    6    0  503  0.32990436563E+02 -0.18445782713E+03 -0.61851189821E+03  0.64627395671E+03  0.00000000000E+00 0.  1.
<mgrwt>
<rscale>  0 0.14510583E+04</rscale>
<asrwt>0</asrwt>
<pdfrwt beam="1">  1        2 0.26378022E+00 0.14510583E+04</pdfrwt>
<pdfrwt beam="2">  1       -1 0.47232485E-01 0.14510583E+04</pdfrwt>
<totfact> 0.47548154E+01</totfact>
</mgrwt>
</event>
<event>
12    6  0.1530720E-007  0.2563878E+04  0.7818608E-02  0.8380576E-01
          2   -1    0    0  501    0  0.00000000000E+00  0.00000000000E+00  0.75663430225E+03  0.75663430225E+03  0.00000000000E+00 0. -1.
         -1   -1    0    0    0  501 -0.00000000000E+00 -0.00000000000E+00 -0.21719443436E+04  0.21719443436E+04  0.00000000000E+00 0.  1.
         24    2    1    2    0    0  0.13917822776E+03  0.39769602607E+03 -0.17996338535E+04  0.18499758242E+04  0.78713627802E+02 0.  0.
        254    2    1    2    0    0 -0.13917822776E+03 -0.39769602607E+03  0.38432381222E+03  0.10786028216E+04  0.91550343848E+03 0.  0.
         23    2    4    4    0    0  0.24045725793E+03  0.35062924336E+02 -0.13933930541E+03  0.29500997204E+03  0.92554524571E+02 0.  0.
         23    2    4    4    0    0 -0.37963548569E+03 -0.43275895041E+03  0.52366311763E+03  0.78359284955E+03  0.91603940630E+02 0.  0.
          4    1    3    3  502    0  0.50125189302E+02  0.63325900224E+02 -0.27798914365E+03  0.28948345070E+03  0.00000000000E+00 0. -1.
         -3    1    3    3    0  502  0.89053038460E+02  0.33437012585E+03 -0.15216447099E+04  0.15604923735E+04  0.00000000000E+00 0.  1.
         11    1    5    5    0    0  0.84247745245E+02  0.44745470213E+02 -0.18241543947E+02  0.97121540396E+02  0.00000000000E+00 0. -1.
        -11    1    5    5    0    0  0.15620951268E+03 -0.96825458766E+01 -0.12109776147E+03  0.19788843165E+03  0.00000000000E+00 0.  1.
          1    1    6    6  503    0 -0.18029228620E+03 -0.24683127757E+03  0.22719759352E+03  0.38085395436E+03  0.00000000000E+00 0. -1.
         -1    1    6    6    0  503 -0.19934319949E+03 -0.18592767284E+03  0.29646552411E+03  0.40273889519E+03  0.00000000000E+00 0.  1.
<mgrwt>
<rscale>  0 0.25638780E+04</rscale>
<asrwt>0</asrwt>
<pdfrwt beam="1">  1        2 0.11640528E+00 0.25638780E+04</pdfrwt>
<pdfrwt beam="2">  1       -1 0.33414529E+00 0.25638780E+04</pdfrwt>
<totfact> 0.74187162E-01</totfact>
</mgrwt>
</event>
<event>
12    6  0.1530720E-007  0.1461637E+04  0.7818608E-02  0.8910373E-01
         -1   -1    0    0    0  501 -0.00000000000E+00  0.00000000000E+00  0.21668148254E+03  0.21668148254E+03  0.00000000000E+00 0.  1.
          2   -1    0    0  501    0  0.00000000000E+00 -0.00000000000E+00 -0.24648878774E+04  0.24648878774E+04  0.00000000000E+00 0. -1.
         24    2    1    2    0    0 -0.30715622894E+03  0.15604253846E+03 -0.12134856819E+04  0.12643158684E+04  0.85163912146E+02 0.  0.
        254    2    1    2    0    0  0.30715622894E+03 -0.15604253846E+03 -0.10347207130E+04  0.14172534916E+04  0.90513329565E+03 0.  0.
         23    2    4    4    0    0 -0.13265377370E+03  0.29013843834E+03 -0.29970638201E+03  0.44703471785E+03  0.90767761134E+02 0.  0.
         23    2    4    4    0    0  0.43981000265E+03 -0.44618097680E+03 -0.73501433095E+03  0.97021877377E+03  0.92564030782E+02 0.  0.
          2    1    3    3  502    0 -0.21244302633E+03  0.11936939161E+03 -0.97722512719E+03  0.10071494627E+04  0.00000000000E+00 0. -1.
         -1    1    3    3    0  502 -0.94713202612E+02  0.36673146850E+02 -0.23626055475E+03  0.25716640562E+03  0.00000000000E+00 0.  1.
         11    1    5    5    0    0 -0.79790893033E+02  0.11179192113E+03 -0.17763973574E+03  0.22454375065E+03  0.00000000000E+00 0. -1.
        -11    1    5    5    0    0 -0.52862880671E+02  0.17834651721E+03 -0.12206664627E+03  0.22249096720E+03  0.00000000000E+00 0.  1.
          1    1    6    6  503    0  0.36715732268E+03 -0.38819146699E+03 -0.57329473169E+03  0.78368613872E+03  0.00000000000E+00 0. -1.
         -1    1    6    6    0  503  0.72652679968E+02 -0.57989509808E+02 -0.16171959926E+03  0.18653263505E+03  0.00000000000E+00 0.  1.
<mgrwt>
<rscale>  0 0.14616368E+04</rscale>
<asrwt>0</asrwt>
<pdfrwt beam="1">  1        2 0.37921348E+00 0.14616368E+04</pdfrwt>
<pdfrwt beam="2">  1       -1 0.33335616E-01 0.14616368E+04</pdfrwt>
<totfact> 0.34180147E+01</totfact>
</mgrwt>
</event>
<event>
12    6  0.2724984E-007  0.2565259E+04  0.7818608E-02  0.8380099E-01
          2   -1    0    0  501    0  0.00000000000E+00  0.00000000000E+00  0.20785764938E+04  0.20785764938E+04  0.00000000000E+00 0. -1.
         -1   -1    0    0    0  501 -0.00000000000E+00 -0.00000000000E+00 -0.79147353988E+03  0.79147353988E+03  0.00000000000E+00 0.  1.
         24    2    1    2    0    0 -0.54680290267E+03  0.64135175819E+03 -0.22671751747E+03  0.87637842706E+03  0.79453272952E+02 0.  0.
        254    2    1    2    0    0  0.54680290267E+03 -0.64135175819E+03  0.15138204714E+04  0.19936716067E+04  0.98628016474E+03 0.  0.
         23    2    4    4    0    0  0.24995621462E+03 -0.69251303374E+03  0.41373877374E+03  0.84935978171E+03  0.90442549585E+02 0.  0.
         23    2    4    4    0    0  0.29684668806E+03  0.51161275551E+02  0.11000816977E+04  0.11443118249E+04  0.92381701478E+02 0.  0.
          2    1    3    3  502    0 -0.33141338390E+02  0.15476521777E+02 -0.51473290085E+01  0.36937325736E+02  0.00000000000E+00 0. -1.
         -1    1    3    3    0  502 -0.51366156428E+03  0.62587523641E+03 -0.22157018846E+03  0.83944110132E+03  0.00000000000E+00 0.  1.
         11    1    5    5    0    0  0.47497350355E+02 -0.24231641411E+03  0.16117037530E+03  0.29487138334E+03  0.00000000000E+00 0. -1.
        -11    1    5    5    0    0  0.20245886426E+03 -0.45019661963E+03  0.25256839844E+03  0.55448839838E+03  0.00000000000E+00 0.  1.
          3    1    6    6  503    0  0.50833375328E+02  0.68980646880E+01  0.88391842116E+02  0.10219947699E+03  0.00000000000E+00 0. -1.
         -3    1    6    6    0  503  0.24601331273E+03  0.44263210863E+02  0.10116898556E+04  0.10421123480E+04  0.00000000000E+00 0.  1.
<mgrwt>
<rscale>  0 0.25652589E+04</rscale>
<asrwt>0</asrwt>
<pdfrwt beam="1">  1        2 0.31978100E+00 0.25652589E+04</pdfrwt>
<pdfrwt beam="2">  1       -1 0.12176516E+00 0.25652589E+04</pdfrwt>
<totfact> 0.36403821E+00</totfact>
</mgrwt>
</event>
<event>
12    6  0.1530720E-007  0.1562644E+04  0.7818608E-02  0.8843832E-01
          2   -1    0    0  501    0  0.00000000000E+00  0.00000000000E+00  0.87250899466E+03  0.87250899466E+03  0.00000000000E+00 0. -1.
         -1   -1    0    0    0  501 -0.00000000000E+00 -0.00000000000E+00 -0.69966510026E+03  0.69966510026E+03  0.00000000000E+00 0.  1.
         24    2    1    2    0    0 -0.39268786491E+03  0.22625077151E+03  0.30519136285E+03  0.55243578207E+03  0.81549705635E+02 0.  0.
        254    2    1    2    0    0  0.39268786491E+03 -0.22625077151E+03 -0.13234746846E+03  0.10197383128E+04  0.90385684897E+03 0.  0.
         23    2    4    4    0    0 -0.24884621319E+03 -0.22354040929E+03  0.41361278634E+02  0.34853169694E+03  0.88706459746E+02 0.  0.
         23    2    4    4    0    0  0.64153407810E+03 -0.27103622212E+01 -0.17370874709E+03  0.67120661591E+03  0.93649735662E+02 0.  0.
          4    1    3    3  502    0 -0.36774510919E+03  0.21878349479E+03  0.30652495783E+03  0.52636511349E+03  0.00000000000E+00 0. -1.
         -3    1    3    3    0  502 -0.24942755720E+02  0.74672767126E+01 -0.13335949728E+01  0.26070668575E+02  0.00000000000E+00 0.  1.
         11    1    5    5    0    0 -0.23470546877E+03 -0.18999344354E+03  0.59631709566E+02  0.30779880839E+03  0.00000000000E+00 0.  1.
        -11    1    5    5    0    0 -0.14140744417E+02 -0.33546965748E+02 -0.18270430932E+02  0.40732888555E+02  0.00000000000E+00 0. -1.
          1    1    6    6  503    0  0.10609876854E+03  0.22002359988E+02 -0.57814495980E+02  0.12281518015E+03  0.00000000000E+00 0. -1.
         -1    1    6    6    0  503  0.53543530957E+03 -0.24712722209E+02 -0.11589425111E+03  0.54839143576E+03  0.00000000000E+00 0.  1.
<mgrwt>
<rscale>  0 0.15626440E+04</rscale>
<asrwt>0</asrwt>
<pdfrwt beam="1">  1        2 0.13423215E+00 0.15626440E+04</pdfrwt>
<pdfrwt beam="2">  1       -1 0.10764078E+00 0.15626440E+04</pdfrwt>
<totfact> 0.27002204E+01</totfact>
</mgrwt>
</event>
<event>
12    6  0.1530720E-007  0.3807927E+04  0.7818608E-02  0.8044456E-01
         -1   -1    0    0    0  501 -0.00000000000E+00  0.00000000000E+00  0.45758866562E+04  0.45758866562E+04  0.00000000000E+00 0.  1.
          2   -1    0    0  501    0  0.00000000000E+00 -0.00000000000E+00 -0.79221282269E+03  0.79221282269E+03  0.00000000000E+00 0. -1.
         24    2    1    2    0    0  0.96808795895E+02 -0.80198822224E+03  0.40087955253E+04  0.40901649438E+04  0.80315955628E+02 0.  0.
        254    2    1    2    0    0 -0.96808795895E+02  0.80198822224E+03 -0.22512169182E+03  0.12779345350E+04  0.96430277820E+03 0.  0.
         23    2    4    4    0    0  0.36851439545E+03  0.23601646384E+03  0.12041498694E+03  0.46289146471E+03  0.90896139414E+02 0.  0.
         23    2    4    4    0    0 -0.46532319134E+03  0.56597175839E+03 -0.34553667875E+03  0.81504307029E+03  0.89721270417E+02 0.  0.
          2    1    3    3  502    0 -0.97668152520E+01 -0.33797810340E+02  0.22168629102E+03  0.22446045151E+03  0.00000000000E+00 0. -1.
         -1    1    3    3    0  502  0.10657561115E+03 -0.76819041190E+03  0.37871092343E+04  0.38657044923E+04  0.00000000000E+00 0.  1.
         11    1    5    5    0    0  0.37091382435E+03  0.23485708600E+03  0.12596929068E+03  0.45673096910E+03  0.00000000000E+00 0. -1.
        -11    1    5    5    0    0 -0.23994288999E+01  0.11593778409E+01 -0.55543037460E+01  0.61604956072E+01  0.00000000000E+00 0.  1.
          4    1    6    6  503    0 -0.25632625715E+03  0.37104889024E+03 -0.18683491518E+03  0.48814722634E+03  0.00000000000E+00 0.  1.
         -4    1    6    6    0  503 -0.20899693419E+03  0.19492286815E+03 -0.15870176358E+03  0.32689584395E+03  0.00000000000E+00 0. -1.
<mgrwt>
<rscale>  0 0.38079265E+04</rscale>
<asrwt>0</asrwt>
<pdfrwt beam="1">  1        2 0.12187890E+00 0.38079265E+04</pdfrwt>
<pdfrwt beam="2">  1       -1 0.70398255E+00 0.38079265E+04</pdfrwt>
<totfact> 0.61731463E-03</totfact>
</mgrwt>
</event>
<event>
12    6  0.1530720E-007  0.2442160E+04  0.7818608E-02  0.8423886E-01
          2   -1    0    0  501    0  0.00000000000E+00  0.00000000000E+00  0.26883130646E+04  0.26883130646E+04  0.00000000000E+00 0. -1.
         -1   -1    0    0    0  501 -0.00000000000E+00 -0.00000000000E+00 -0.55463655312E+03  0.55463655312E+03  0.00000000000E+00 0.  1.
         24    2    1    2    0    0 -0.26163522775E+03 -0.10636506056E+03 -0.42328686200E+03  0.51491819159E+03  0.78755685361E+02 0.  0.
        254    2    1    2    0    0  0.26163522775E+03  0.10636506056E+03  0.25569633735E+04  0.27280314262E+04  0.90792469407E+03 0.  0.
         23    2    4    4    0    0 -0.18100219273E+03  0.36769190202E+03  0.94332806226E+03  0.10320690237E+04  0.85670928529E+02 0.  0.
         23    2    4    4    0    0  0.44263742048E+03 -0.26132684147E+03  0.16136353113E+04  0.16959624025E+04  0.90829228893E+02 0.  0.
          2    1    3    3  502    0 -0.32755412072E+02 -0.46031626655E+02 -0.83257601087E+02  0.10061637944E+03  0.00000000000E+00 0. -1.
         -1    1    3    3    0  502 -0.22887981568E+03 -0.60333433902E+02 -0.34002926091E+03  0.41430181215E+03  0.00000000000E+00 0.  1.
         11    1    5    5    0    0 -0.50314987870E+02  0.35160586249E+02  0.14128544164E+03  0.15404363294E+03  0.00000000000E+00 0.  1.
        -11    1    5    5    0    0 -0.13068720486E+03  0.33253131577E+03  0.80204262062E+03  0.87802539073E+03  0.00000000000E+00 0. -1.
          1    1    6    6  503    0  0.31548591746E+03 -0.22828330321E+03  0.12546084742E+04  0.13136540846E+04  0.00000000000E+00 0. -1.
         -1    1    6    6    0  503  0.12715150302E+03 -0.33043538252E+02  0.35902683709E+03  0.38230831784E+03  0.00000000000E+00 0.  1.
<mgrwt>
<rscale>  0 0.24421603E+04</rscale>
<asrwt>0</asrwt>
<pdfrwt beam="1">  1        2 0.41358662E+00 0.24421603E+04</pdfrwt>
<pdfrwt beam="2">  1       -1 0.85328702E-01 0.24421603E+04</pdfrwt>
<totfact> 0.37339516E+00</totfact>
</mgrwt>
</event>
<event>
12    6  0.1530720E-007  0.2376989E+04  0.7818608E-02  0.8448169E-01
          2   -1    0    0  501    0  0.00000000000E+00  0.00000000000E+00  0.23517835477E+04  0.23517835477E+04  0.00000000000E+00 0. -1.
         -1   -1    0    0    0  501 -0.00000000000E+00 -0.00000000000E+00 -0.60061594604E+03  0.60061594604E+03  0.00000000000E+00 0.  1.
         24    2    1    2    0    0  0.82967749200E+03 -0.34707382763E+03  0.18867576988E+03  0.92258843527E+03  0.82133380515E+02 0.  0.
        254    2    1    2    0    0 -0.82967749200E+03  0.34707382763E+03  0.15624918318E+04  0.20298110585E+04  0.93269889361E+03 0.  0.
         23    2    4    4    0    0 -0.78343629542E+03  0.43944743811E+03  0.66444877392E+03  0.11211950808E+04  0.93272484164E+02 0.  0.
         23    2    4    4    0    0 -0.46241196584E+02 -0.92373610472E+02  0.89804305786E+03  0.90861597762E+03  0.91817911425E+02 0.  0.
          2    1    3    3  502    0  0.25782365076E+03 -0.88045636875E+02  0.23593756390E+02  0.27346249176E+03  0.00000000000E+00 0. -1.
         -1    1    3    3    0  502  0.57185384125E+03 -0.25902819076E+03  0.16508201349E+03  0.64912594351E+03  0.00000000000E+00 0.  1.
         11    1    5    5    0    0 -0.31685395954E+03  0.21193110834E+03  0.32526848795E+03  0.50110958443E+03  0.00000000000E+00 0. -1.
        -11    1    5    5    0    0 -0.46658233588E+03  0.22751632977E+03  0.33918028597E+03  0.62008549641E+03  0.00000000000E+00 0.  1.
          1    1    6    6  503    0 -0.22135836549E+02 -0.58476723913E+02  0.20494083658E+03  0.21426681730E+03  0.00000000000E+00 0. -1.
         -1    1    6    6    0  503 -0.24105360035E+02 -0.33896886559E+02  0.69310222128E+03  0.69434916032E+03  0.00000000000E+00 0.  1.
<mgrwt>
<rscale>  0 0.23769886E+04</rscale>
<asrwt>0</asrwt>
<pdfrwt beam="1">  1        2 0.36181285E+00 0.23769886E+04</pdfrwt>
<pdfrwt beam="2">  1       -1 0.92402454E-01 0.23769886E+04</pdfrwt>
<totfact> 0.49462350E+00</totfact>
</mgrwt>
</event>
<event>
12    6  0.1530720E-007  0.2191337E+04  0.7818608E-02  0.8522042E-01
          2   -1    0    0  501    0  0.00000000000E+00  0.00000000000E+00  0.83691115200E+03  0.83691115200E+03  0.00000000000E+00 0. -1.
         -1   -1    0    0    0  501 -0.00000000000E+00 -0.00000000000E+00 -0.14344293291E+04  0.14344293291E+04  0.00000000000E+00 0.  1.
         24    2    1    2    0    0  0.45450414593E+03 -0.58468135286E+03 -0.80062410533E+03  0.10936196648E+04  0.81109248551E+02 0.  0.
        254    2    1    2    0    0 -0.45450414593E+03  0.58468135286E+03  0.20310592821E+03  0.11777208163E+04  0.89294344726E+03 0.  0.
         23    2    4    4    0    0  0.97477115970E+02  0.11008276217E+03  0.38413148079E+03  0.42176088737E+03  0.93301923409E+02 0.  0.
         23    2    4    4    0    0 -0.55198126190E+03  0.47459859069E+03 -0.18102555258E+03  0.75595992892E+03  0.93691129135E+02 0.  0.
          4    1    3    3  502    0  0.57955472436E+02 -0.37219497397E+02 -0.79748113596E+02  0.10537499416E+03  0.00000000000E+00 0. -1.
         -3    1    3    3    0  502  0.39654867349E+03 -0.54746185547E+03 -0.72087599173E+03  0.98824467066E+03  0.00000000000E+00 0.  1.
         11    1    5    5    0    0  0.13608339111E+02 -0.14216833420E+01  0.13924722471E+03  0.13991782469E+03  0.00000000000E+00 0. -1.
        -11    1    5    5    0    0  0.83868776859E+02  0.11150444551E+03  0.24488425608E+03  0.28184306267E+03  0.00000000000E+00 0.  1.
          1    1    6    6  503    0 -0.46318135610E+03  0.43035177809E+03 -0.17746271246E+03  0.65668305586E+03  0.00000000000E+00 0. -1.
         -1    1    6    6    0  503 -0.88799905801E+02  0.44246812603E+02 -0.35628401231E+01  0.99276873065E+02  0.00000000000E+00 0.  1.
<mgrwt>
<rscale>  0 0.21913374E+04</rscale>
<asrwt>0</asrwt>
<pdfrwt beam="1">  1        2 0.12875556E+00 0.21913374E+04</pdfrwt>
<pdfrwt beam="2">  1       -1 0.22068143E+00 0.21913374E+04</pdfrwt>
<totfact> 0.36836523E+00</totfact>
</mgrwt>
</event>
<event>
12    6  0.1530720E-007  0.1476587E+04  0.7818608E-02  0.8900173E-01
         -1   -1    0    0    0  501 -0.00000000000E+00  0.00000000000E+00  0.44465485584E+03  0.44465485584E+03  0.00000000000E+00 0.  1.
          2   -1    0    0  501    0  0.00000000000E+00 -0.00000000000E+00 -0.12258433068E+04  0.12258433068E+04  0.00000000000E+00 0. -1.
         24    2    1    2    0    0 -0.27696357797E+03 -0.37822089228E+02  0.16346971548E+03  0.33336953934E+03  0.79205857904E+02 0.  0.
        254    2    1    2    0    0  0.27696357797E+03  0.37822089228E+02 -0.94465816647E+03  0.13371286233E+04  0.90409876114E+03 0.  0.
         23    2    4    4    0    0  0.24448912733E+03  0.13200851712E+03  0.80997622776E+02  0.30331867337E+03  0.90776763218E+02 0.  0.
         23    2    4    4    0    0  0.32474450631E+02 -0.94186427895E+02 -0.10256557892E+04  0.10338099500E+04  0.82870631056E+02 0.  0.
          4    1    3    3  502    0 -0.10942144048E+02  0.12147116639E+02 -0.14464535224E+01  0.16412653253E+02  0.00000000000E+00 0. -1.
         -3    1    3    3    0  502 -0.26602143392E+03 -0.49969205867E+02  0.16491616900E+03  0.31695688608E+03  0.00000000000E+00 0.  1.
         11    1    5    5    0    0  0.23618829537E+03  0.14100270755E+03  0.64085261834E+02  0.28244219796E+03  0.00000000000E+00 0. -1.
        -11    1    5    5    0    0  0.83008319689E+01 -0.89941904270E+01  0.16912360942E+02  0.20876475408E+02  0.00000000000E+00 0.  1.
          1    1    6    6  503    0  0.55310992956E+02 -0.61761078055E+02 -0.83291111662E+03  0.83702727847E+03  0.00000000000E+00 0. -1.
         -1    1    6    6    0  503 -0.22836542325E+02 -0.32425349840E+02 -0.19274467262E+03  0.19678267149E+03  0.00000000000E+00 0.  1.
<mgrwt>
<rscale>  0 0.14765868E+04</rscale>
<asrwt>0</asrwt>
<pdfrwt beam="1">  1        2 0.18859128E+00 0.14765868E+04</pdfrwt>
<pdfrwt beam="2">  1       -1 0.68408439E-01 0.14765868E+04</pdfrwt>
<totfact> 0.43634983E+01</totfact>
</mgrwt>
</event>
<event>
12    6  0.1530720E-007  0.2823631E+04  0.7818608E-02  0.8295969E-01
         -1   -1    0    0    0  501 -0.00000000000E+00  0.00000000000E+00  0.99492105919E+03  0.99492105919E+03  0.00000000000E+00 0.  1.
          2   -1    0    0  501    0  0.00000000000E+00 -0.00000000000E+00 -0.20033975372E+04  0.20033975372E+04  0.00000000000E+00 0. -1.
         24    2    1    2    0    0 -0.73188437866E+03 -0.95005641772E+03 -0.21066439154E+02  0.12020798443E+04  0.79310885348E+02 0.  0.
        254    2    1    2    0    0  0.73188437866E+03  0.95005641772E+03 -0.98741003887E+03  0.17962387521E+04  0.90179439412E+03 0.  0.
         23    2    4    4    0    0  0.26548325679E+03 -0.13065408250E+03 -0.11979681978E+03  0.33101970469E+03  0.87583776784E+02 0.  0.
         23    2    4    4    0    0  0.46640112187E+03  0.10807105002E+04 -0.86761321909E+03  0.14652190475E+04  0.92999824231E+02 0.  0.
          4    1    3    3  502    0 -0.47015205659E+03 -0.57069195349E+03  0.17093850461E+02  0.73961102061E+03  0.00000000000E+00 0. -1.
         -3    1    3    3    0  502 -0.26173232207E+03 -0.37936446423E+03 -0.38160289615E+02  0.46246882364E+03  0.00000000000E+00 0.  1.
         11    1    5    5    0    0  0.79993478972E+01 -0.91221459380E+01  0.12183024029E+02  0.17193870646E+02  0.00000000000E+00 0. -1.
        -11    1    5    5    0    0  0.25748390889E+03 -0.12153193656E+03 -0.13197984381E+03  0.31382583404E+03  0.00000000000E+00 0.  1.
          4    1    6    6  503    0  0.20549864520E+03  0.41582552241E+03 -0.38996272758E+03  0.60597977456E+03  0.00000000000E+00 0. -1.
         -4    1    6    6    0  503  0.26090247667E+03  0.66488497781E+03 -0.47765049151E+03  0.85923927290E+03  0.00000000000E+00 0.  1.
<mgrwt>
<rscale>  0 0.28236306E+04</rscale>
<asrwt>0</asrwt>
<pdfrwt beam="1">  1        2 0.30821501E+00 0.28236306E+04</pdfrwt>
<pdfrwt beam="2">  1       -1 0.15306478E+00 0.28236306E+04</pdfrwt>
<totfact> 0.21706350E+00</totfact>
</mgrwt>
</event>
<event>
12    6  0.1530720E-007  0.1653753E+04  0.7818608E-02  0.8788189E-01
         -1   -1    0    0    0  501 -0.00000000000E+00  0.00000000000E+00  0.82571025090E+03  0.82571025090E+03  0.00000000000E+00 0.  1.
          2   -1    0    0  501    0  0.00000000000E+00 -0.00000000000E+00 -0.82804432750E+03  0.82804432750E+03  0.00000000000E+00 0. -1.
         24    2    1    2    0    0 -0.96883989562E+02 -0.33287453223E+03  0.46622792057E+03  0.58656191374E+03  0.80588107654E+02 0.  0.
        254    2    1    2    0    0  0.96883989562E+02  0.33287453223E+03 -0.46856199718E+03  0.10671926647E+04  0.89395630579E+03 0.  0.
         23    2    4    4    0    0 -0.71122118368E+02 -0.15197753567E+03 -0.51034531681E+03  0.54484713000E+03  0.90832404006E+02 0.  0.
         23    2    4    4    0    0  0.16800610793E+03  0.48485206790E+03  0.41783319630E+02  0.52234553465E+03  0.88269087034E+02 0.  0.
          2    1    3    3  502    0 -0.20268476132E+02 -0.15614889075E+03  0.15775627809E+03  0.22289084882E+03  0.00000000000E+00 0. -1.
         -1    1    3    3    0  502 -0.76615513429E+02 -0.17672564148E+03  0.30847164248E+03  0.36367106493E+03  0.00000000000E+00 0.  1.
         11    1    5    5    0    0 -0.64364472613E+02 -0.11946228692E+03 -0.26962832253E+03  0.30185005489E+03  0.00000000000E+00 0.  1.
        -11    1    5    5    0    0 -0.67576457548E+01 -0.32515248754E+02 -0.24071699428E+03  0.24299707511E+03  0.00000000000E+00 0. -1.
          1    1    6    6  503    0  0.60858692881E+01  0.37702535158E+02  0.26596899037E+02  0.46539381181E+02  0.00000000000E+00 0. -1.
         -1    1    6    6    0  503  0.16192023864E+03  0.44714953274E+03  0.15186420594E+02  0.47580615347E+03  0.00000000000E+00 0.  1.
<mgrwt>
<rscale>  0 0.16537529E+04</rscale>
<asrwt>0</asrwt>
<pdfrwt beam="1">  1        2 0.12739143E+00 0.16537529E+04</pdfrwt>
<pdfrwt beam="2">  1       -1 0.12703235E+00 0.16537529E+04</pdfrwt>
<totfact> 0.19275364E+01</totfact>
</mgrwt>
</event>
<event>
12    6  0.1530720E-007  0.1145560E+04  0.7818608E-02  0.9161890E-01
          2   -1    0    0  501    0  0.00000000000E+00  0.00000000000E+00  0.54595949867E+03  0.54595949867E+03  0.00000000000E+00 0. -1.
         -1   -1    0    0    0  501 -0.00000000000E+00 -0.00000000000E+00 -0.60091764714E+03  0.60091764714E+03  0.00000000000E+00 0.  1.
         24    2    1    2    0    0  0.66153315121E+02 -0.15193803260E+03  0.27523058937E+03  0.33589703536E+03  0.98048529738E+02 0.  0.
        254    2    1    2    0    0 -0.66153315121E+02  0.15193803260E+03 -0.33018873785E+03  0.81098011045E+03  0.72194370286E+03 0.  0.
         23    2    4    4    0    0  0.19041085467E+03 -0.20004549942E+02  0.12921387297E+03  0.25004233763E+03  0.95752128136E+02 0.  0.
         23    2    4    4    0    0 -0.25656416979E+03  0.17194258254E+03 -0.45940261082E+03  0.56093777283E+03  0.90614575228E+02 0.  0.
          2    1    3    3  502    0  0.23688198669E+02 -0.12598446073E+03  0.24798506062E+03  0.27915910408E+03  0.00000000000E+00 0. -1.
         -1    1    3    3    0  502  0.42465116452E+02 -0.25953571875E+02  0.27245528747E+02  0.56737931273E+02  0.00000000000E+00 0.  1.
         11    1    5    5    0    0  0.12061229266E+03 -0.38609045908E+02  0.12459914146E+03  0.17765958916E+03  0.00000000000E+00 0.  1.
        -11    1    5    5    0    0  0.69798562009E+02  0.18604495966E+02  0.46147315073E+01  0.72382748467E+02  0.00000000000E+00 0. -1.
          3    1    6    6  503    0 -0.10471279366E+03  0.55153310392E+02 -0.10565512334E+03  0.15864949383E+03  0.00000000000E+00 0. -1.
         -3    1    6    6    0  503 -0.15185137613E+03  0.11678927215E+03 -0.35374748748E+03  0.40228827900E+03  0.00000000000E+00 0.  1.
<mgrwt>
<rscale>  0 0.11455596E+04</rscale>
<asrwt>0</asrwt>
<pdfrwt beam="1">  1        2 0.83993769E-01 0.11455596E+04</pdfrwt>
<pdfrwt beam="2">  1       -1 0.92448868E-01 0.11455596E+04</pdfrwt>
<totfact> 0.71585015E+01</totfact>
</mgrwt>
</event>
<event>
12    6  0.1530720E-007  0.1677576E+04  0.7818608E-02  0.8774258E-01
         -1   -1    0    0    0  501 -0.00000000000E+00  0.00000000000E+00  0.82459031137E+03  0.82459031137E+03  0.00000000000E+00 0.  1.
          2   -1    0    0  501    0  0.00000000000E+00 -0.00000000000E+00 -0.85323017665E+03  0.85323017665E+03  0.00000000000E+00 0. -1.
         24    2    1    2    0    0 -0.66617076291E+02  0.57337460997E+03  0.12159846812E+03  0.59525811288E+03  0.79685351792E+02 0.  0.
        254    2    1    2    0    0  0.66617076291E+02 -0.57337460997E+03 -0.15023833339E+03  0.10825623751E+04  0.90342319045E+03 0.  0.
         23    2    4    4    0    0 -0.28977323045E+02 -0.72105756036E+03 -0.34411008448E+03  0.80339060588E+03  0.79126637532E+02 0.  0.
         23    2    4    4    0    0  0.95594399337E+02  0.14768295039E+03  0.19387175109E+03  0.27917176926E+03  0.96964312310E+02 0.  0.
          4    1    3    3  502    0  0.17078003273E+02  0.65005402210E+02  0.81595379851E+01  0.67704789878E+02  0.00000000000E+00 0. -1.
         -3    1    3    3    0  502 -0.83695079565E+02  0.50836920776E+03  0.11343893013E+03  0.52755332300E+03  0.00000000000E+00 0.  1.
         11    1    5    5    0    0 -0.21837279905E+02 -0.82582752450E+02 -0.21898845767E+02  0.88183542919E+02  0.00000000000E+00 0.  1.
        -11    1    5    5    0    0 -0.71400431406E+01 -0.63847480791E+03 -0.32221123871E+03  0.71520706296E+03  0.00000000000E+00 0. -1.
          3    1    6    6  503    0  0.88664019510E+02  0.16161693460E+03  0.17055159638E+03  0.25113579779E+03  0.00000000000E+00 0. -1.
         -3    1    6    6    0  503  0.69303798265E+01 -0.13933984210E+02  0.23320154713E+02  0.28035971471E+02  0.00000000000E+00 0.  1.
<mgrwt>
<rscale>  0 0.16775760E+04</rscale>
<asrwt>0</asrwt>
<pdfrwt beam="1">  1        2 0.13126618E+00 0.16775760E+04</pdfrwt>
<pdfrwt beam="2">  1       -1 0.12686005E+00 0.16775760E+04</pdfrwt>
<totfact> 0.18531827E+01</totfact>
</mgrwt>
</event>
<event>
12    6  0.1530720E-007  0.1258166E+04  0.7818608E-02  0.9063414E-01
          2   -1    0    0  501    0  0.00000000000E+00  0.00000000000E+00  0.12374390129E+04  0.12374390129E+04  0.00000000000E+00 0. -1.
         -1   -1    0    0    0  501 -0.00000000000E+00 -0.00000000000E+00 -0.31980988317E+03  0.31980988317E+03  0.00000000000E+00 0.  1.
         24    2    1    2    0    0  0.19104604083E+03 -0.42201593188E+02 -0.71779958450E+02  0.22310954761E+03  0.79661431173E+02 0.  0.
        254    2    1    2    0    0 -0.19104604083E+03  0.42201593188E+02  0.98940908816E+03  0.13341393484E+04  0.87333721615E+03 0.  0.
         23    2    4    4    0    0 -0.18435801055E+03 -0.25185400444E+03  0.97348350007E+03  0.10259106775E+04  0.86048112514E+02 0.  0.
         23    2    4    4    0    0 -0.66880302838E+01  0.29405559763E+03  0.15925588088E+02  0.30822867094E+03  0.90762684981E+02 0.  0.
          2    1    3    3  502    0  0.26323861462E+02  0.65123772591E+01  0.14644428217E+02  0.30819085282E+02  0.00000000000E+00 0. -1.
         -1    1    3    3    0  502  0.16472217937E+03 -0.48713970447E+02 -0.86424386668E+02  0.19229046233E+03  0.00000000000E+00 0.  1.
         11    1    5    5    0    0 -0.12667247073E+03 -0.15394337014E+03  0.48484832796E+03  0.52423504002E+03  0.00000000000E+00 0.  1.
        -11    1    5    5    0    0 -0.57685539821E+02 -0.97910634301E+02  0.48863517211E+03  0.50167563747E+03  0.00000000000E+00 0. -1.
          3    1    6    6  503    0 -0.34577624654E+02  0.10763827919E+03 -0.23950463197E+02  0.11556485608E+03  0.00000000000E+00 0. -1.
         -3    1    6    6    0  503  0.27889594371E+02  0.18641731845E+03  0.39876051285E+02  0.19266381486E+03  0.00000000000E+00 0.  1.
<mgrwt>
<rscale>  0 0.12581657E+04</rscale>
<asrwt>0</asrwt>
<pdfrwt beam="1">  1        2 0.19037523E+00 0.12581657E+04</pdfrwt>
<pdfrwt beam="2">  1       -1 0.49201521E-01 0.12581657E+04</pdfrwt>
<totfact> 0.83422210E+01</totfact>
</mgrwt>
</event>
<event>
12    6  0.1530720E-007  0.1801985E+04  0.7818608E-02  0.8705244E-01
         -3   -1    0    0    0  501 -0.00000000000E+00  0.00000000000E+00  0.84298477585E+03  0.84298477585E+03  0.00000000000E+00 0.  1.
          2   -1    0    0  501    0  0.00000000000E+00 -0.00000000000E+00 -0.96299238311E+03  0.96299238311E+03  0.00000000000E+00 0. -1.
         24    2    1    2    0    0 -0.11084049698E+03 -0.48697637649E+03  0.41021247496E+03  0.65138591672E+03  0.81226417281E+02 0.  0.
        254    2    1    2    0    0  0.11084049698E+03  0.48697637649E+03 -0.53022008221E+03  0.11545912422E+04  0.89583257032E+03 0.  0.
         23    2    4    4    0    0  0.54764508251E+02  0.56715375506E+03 -0.71952644926E+03  0.92241686335E+03  0.92043605807E+02 0.  0.
         23    2    4    4    0    0  0.56075988732E+02 -0.80177378568E+02  0.18930636704E+03  0.23217437889E+03  0.92168937631E+02 0.  0.
          4    1    3    3  502    0  0.57227058751E+01 -0.82805497951E+02  0.45541337639E+02  0.94675832647E+02  0.00000000000E+00 0. -1.
         -3    1    3    3    0  502 -0.11656320286E+03 -0.40417087854E+03  0.36467113732E+03  0.55671008408E+03  0.00000000000E+00 0.  1.
         11    1    5    5    0    0  0.76694554352E+02  0.42429872083E+03 -0.56657855489E+03  0.71198505464E+03  0.00000000000E+00 0. -1.
        -11    1    5    5    0    0 -0.21930046102E+02  0.14285503423E+03 -0.15294789436E+03  0.21043180871E+03  0.00000000000E+00 0.  1.
          3    1    6    6  503    0  0.15101111466E+02 -0.83197026300E+02  0.16230476789E+03  0.18300990802E+03  0.00000000000E+00 0. -1.
         -3    1    6    6    0  503  0.40974877267E+02  0.30196477324E+01  0.27001599152E+02  0.49164470873E+02  0.00000000000E+00 0.  1.
<mgrwt>
<rscale>  0 0.18019855E+04</rscale>
<asrwt>0</asrwt>
<pdfrwt beam="1">  1        2 0.14815267E+00 0.18019855E+04</pdfrwt>
<pdfrwt beam="2">  1       -3 0.12968997E+00 0.18019855E+04</pdfrwt>
<totfact> 0.74159870E+00</totfact>
</mgrwt>
</event>
<event>
12    6  0.1530720E-007  0.2043411E+04  0.7818608E-02  0.8586589E-01
          2   -1    0    0  501    0  0.00000000000E+00  0.00000000000E+00  0.30766783851E+04  0.30766783851E+04  0.00000000000E+00 0. -1.
         -1   -1    0    0    0  501 -0.00000000000E+00 -0.00000000000E+00 -0.33928862576E+03  0.33928862576E+03  0.00000000000E+00 0.  1.
         24    2    1    2    0    0 -0.47435948092E+03 -0.82505459730E+02  0.22257660210E+04  0.22786269684E+04  0.79261671747E+02 0.  0.
        254    2    1    2    0    0  0.47435948092E+03  0.82505459730E+02  0.51162373829E+03  0.11373400425E+04  0.89440452513E+03 0.  0.
         23    2    4    4    0    0  0.33083600832E+03  0.75889168296E+02 -0.20068305422E+03  0.40491425366E+03  0.92033875811E+02 0.  0.
         23    2    4    4    0    0  0.14352347260E+03  0.66162914338E+01  0.71230679251E+03  0.73242578880E+03  0.91781299535E+02 0.  0.
          2    1    3    3  502    0 -0.38510570836E+03 -0.88735600631E+02  0.19084397880E+04  0.19489286385E+04  0.00000000000E+00 0. -1.
         -1    1    3    3    0  502 -0.89253772568E+02  0.62301409014E+01  0.31732623303E+03  0.32969832990E+03  0.00000000000E+00 0.  1.
         11    1    5    5    0    0  0.12404976266E+03 -0.16533834321E+02 -0.68619177627E+02  0.14272456982E+03  0.00000000000E+00 0. -1.
        -11    1    5    5    0    0  0.20678624566E+03  0.92423002617E+02 -0.13206387660E+03  0.26218968384E+03  0.00000000000E+00 0.  1.
          3    1    6    6  503    0  0.93644191954E+02  0.30715574110E+02  0.58978976183E+03  0.59796709302E+03  0.00000000000E+00 0. -1.
         -3    1    6    6    0  503  0.49879280648E+02 -0.24099282676E+02  0.12251703068E+03  0.13445869578E+03  0.00000000000E+00 0.  1.
<mgrwt>
<rscale>  0 0.20434109E+04</rscale>
<asrwt>0</asrwt>
<pdfrwt beam="1">  1        2 0.47333512E+00 0.20434109E+04</pdfrwt>
<pdfrwt beam="2">  1       -1 0.52198252E-01 0.20434109E+04</pdfrwt>
<totfact> 0.60807654E+00</totfact>
</mgrwt>
</event>
<event>
12    6  0.1530720E-007  0.2057251E+04  0.7818608E-02  0.8580312E-01
         -1   -1    0    0    0  501 -0.00000000000E+00  0.00000000000E+00  0.25834160076E+03  0.25834160076E+03  0.00000000000E+00 0.  1.
          2   -1    0    0  501    0  0.00000000000E+00 -0.00000000000E+00 -0.40956251600E+04  0.40956251600E+04  0.00000000000E+00 0. -1.
         24    2    1    2    0    0  0.20843842312E+03  0.15946510955E+03 -0.32288701783E+04  0.32404889519E+04  0.79311549287E+02 0.  0.
        254    2    1    2    0    0 -0.20843842312E+03 -0.15946510955E+03 -0.60841338095E+03  0.11134778088E+04  0.89486886820E+03 0.  0.
         23    2    4    4    0    0 -0.54446637002E+02  0.29988420962E+03  0.14907776047E+02  0.31896506502E+03  0.92852008359E+02 0.  0.
         23    2    4    4    0    0 -0.15399178611E+03 -0.45934931918E+03 -0.62332115700E+03  0.79451274382E+03  0.89476075679E+02 0.  0.
          4    1    3    3  502    0  0.20841161892E+03  0.16244778322E+03 -0.32237628320E+04  0.32345743897E+04  0.00000000000E+00 0. -1.
         -3    1    3    3    0  502  0.26804198726E-01 -0.29826736626E+01 -0.51073462354E+01  0.59145622163E+01  0.00000000000E+00 0.  1.
         11    1    5    5    0    0  0.55618477326E+01  0.18519678109E+03 -0.15741447790E+02  0.18594777507E+03  0.00000000000E+00 0. -1.
        -11    1    5    5    0    0 -0.60008484735E+02  0.11468742853E+03  0.30649223836E+02  0.13301728995E+03  0.00000000000E+00 0.  1.
          1    1    6    6  503    0 -0.19374492341E+02 -0.21158370514E+02 -0.72051198210E+02  0.77552709558E+02  0.00000000000E+00 0. -1.
         -1    1    6    6    0  503 -0.13461729377E+03 -0.43819094866E+03 -0.55126995879E+03  0.71696003426E+03  0.00000000000E+00 0.  1.
<mgrwt>
<rscale>  0 0.20572509E+04</rscale>
<asrwt>0</asrwt>
<pdfrwt beam="1">  1        2 0.63009618E+00 0.20572509E+04</pdfrwt>
<pdfrwt beam="2">  1       -1 0.39744862E-01 0.20572509E+04</pdfrwt>
<totfact> 0.18707285E+00</totfact>
</mgrwt>
</event>
<event>
12    6  0.1530720E-007  0.1383394E+04  0.7818608E-02  0.8965928E-01
          2   -1    0    0  501    0  0.00000000000E+00  0.00000000000E+00  0.13254217615E+04  0.13254217615E+04  0.00000000000E+00 0. -1.
         -1   -1    0    0    0  501 -0.00000000000E+00 -0.00000000000E+00 -0.36097525872E+03  0.36097525872E+03  0.00000000000E+00 0.  1.
         24    2    1    2    0    0  0.77219606278E+02  0.12244026091E+03  0.72598868343E+03  0.74537097624E+03  0.86970332176E+02 0.  0.
        254    2    1    2    0    0 -0.77219606278E+02 -0.12244026091E+03  0.23845781931E+03  0.94102604393E+03  0.89872876814E+03 0.  0.
         23    2    4    4    0    0 -0.43611850427E+03  0.10839800587E+03  0.20301188592E+03  0.50259726109E+03  0.97163283126E+02 0.  0.
         23    2    4    4    0    0  0.35889889799E+03 -0.23083826679E+03  0.35445933396E+02  0.43842878284E+03  0.94173558044E+02 0.  0.
          4    1    3    3  502    0  0.68050959026E+02  0.77699901331E+02  0.63728412676E+03  0.64559992713E+03  0.00000000000E+00 0. -1.
         -3    1    3    3    0  502  0.91686472518E+01  0.44740359581E+02  0.88704556666E+02  0.99771049113E+02  0.00000000000E+00 0.  1.
         11    1    5    5    0    0 -0.31624476646E+03  0.74689297075E+02  0.97149657353E+02  0.33915674744E+03  0.00000000000E+00 0.  1.
        -11    1    5    5    0    0 -0.11987373781E+03  0.33708708800E+02  0.10586222856E+03  0.16344051365E+03  0.00000000000E+00 0. -1.
          1    1    6    6  503    0  0.33141648094E+03 -0.20745186971E+03  0.46959940947E+01  0.39101817662E+03  0.00000000000E+00 0. -1.
         -1    1    6    6    0  503  0.27482417051E+02 -0.23386397076E+02  0.30749939301E+02  0.47410606220E+02  0.00000000000E+00 0.  1.
<mgrwt>
<rscale>  0 0.13833936E+04</rscale>
<asrwt>0</asrwt>
<pdfrwt beam="1">  1        2 0.20391104E+00 0.13833936E+04</pdfrwt>
<pdfrwt beam="2">  1       -1 0.55534656E-01 0.13833936E+04</pdfrwt>
<totfact> 0.58181686E+01</totfact>
</mgrwt>
</event>
<event>
12    6  0.1530720E-007  0.1321295E+04  0.7818608E-02  0.9012847E-01
         -1   -1    0    0    0  501 -0.00000000000E+00  0.00000000000E+00  0.62333448735E+03  0.62333448735E+03  0.00000000000E+00 0.  1.
          2   -1    0    0  501    0  0.00000000000E+00 -0.00000000000E+00 -0.70019377683E+03  0.70019377683E+03  0.00000000000E+00 0. -1.
         24    2    1    2    0    0 -0.10406551851E+03  0.28130472099E+03  0.16317076723E+03  0.35079247129E+03  0.80428107288E+02 0.  0.
        254    2    1    2    0    0  0.10406551851E+03 -0.28130472099E+03 -0.24003005671E+03  0.97273579289E+03  0.89366577446E+03 0.  0.
         23    2    4    4    0    0  0.49038730489E+03 -0.13613592911E+03 -0.94635280896E+02  0.52547936143E+03  0.90332845129E+02 0.  0.
         23    2    4    4    0    0 -0.38632178637E+03 -0.14516879188E+03 -0.14539477581E+03  0.44725643146E+03  0.92629228028E+02 0.  0.
          2    1    3    3  502    0 -0.68100659763E+02  0.13009048702E+03  0.39210375533E+02  0.15198252604E+03  0.00000000000E+00 0. -1.
         -1    1    3    3    0  502 -0.35964858751E+02  0.15121423397E+03  0.12396039169E+03  0.19880994525E+03  0.00000000000E+00 0.  1.
         11    1    5    5    0    0  0.82523468338E+01 -0.29048538389E+01  0.11188820265E+02  0.14203137084E+02  0.00000000000E+00 0. -1.
        -11    1    5    5    0    0  0.48213495805E+03 -0.13323107527E+03 -0.10582410116E+03  0.51127622435E+03  0.00000000000E+00 0.  1.
          2    1    6    6  503    0 -0.13118870494E+03 -0.68536069327E+02 -0.95731946429E+02  0.17627329539E+03  0.00000000000E+00 0. -1.
         -2    1    6    6    0  503 -0.25513308144E+03 -0.76632722553E+02 -0.49662829380E+02  0.27098313606E+03  0.00000000000E+00 0.  1.
<mgrwt>
<rscale>  0 0.13212947E+04</rscale>
<asrwt>0</asrwt>
<pdfrwt beam="1">  1        2 0.10772212E+00 0.13212947E+04</pdfrwt>
<pdfrwt beam="2">  1       -1 0.95897613E-01 0.13212947E+04</pdfrwt>
<totfact> 0.48024928E+01</totfact>
</mgrwt>
</event>
<event>
12    6  0.1530720E-007  0.4006947E+04  0.7818608E-02  0.8003147E-01
          2   -1    0    0  501    0  0.00000000000E+00  0.00000000000E+00  0.21044963208E+04  0.21044963208E+04  0.00000000000E+00 0. -1.
         -1   -1    0    0    0  501 -0.00000000000E+00 -0.00000000000E+00 -0.19073002836E+04  0.19073002836E+04  0.00000000000E+00 0.  1.
         24    2    1    2    0    0  0.43506294895E+03  0.14231046205E+04 -0.10923293915E+04  0.18477939966E+04  0.81563618910E+02 0.  0.
        254    2    1    2    0    0 -0.43506294895E+03 -0.14231046205E+04  0.12895254287E+04  0.21640026078E+04  0.89751040355E+03 0.  0.
         23    2    4    4    0    0  0.24577271508E+03 -0.23652696827E+03  0.38150239145E+03  0.51963690512E+03  0.90162100014E+02 0.  0.
         23    2    4    4    0    0 -0.68083566404E+03 -0.11865776523E+04  0.90802303730E+03  0.16443657026E+04  0.89044940922E+02 0.  0.
          4    1    3    3  502    0  0.18799674902E+03  0.58361576447E+03 -0.49877084916E+03  0.79039388798E+03  0.00000000000E+00 0. -1.
         -3    1    3    3    0  502  0.24706619993E+03  0.83948885605E+03 -0.59355854232E+03  0.10574001086E+04  0.00000000000E+00 0.  1.
         11    1    5    5    0    0  0.94543990133E+02 -0.45884356171E+02  0.15450049714E+03  0.18685380336E+03  0.00000000000E+00 0.  1.
        -11    1    5    5    0    0  0.15122872495E+03 -0.19064261210E+03  0.22700189431E+03  0.33278310176E+03  0.00000000000E+00 0. -1.
          2    1    6    6  503    0 -0.30006713639E+03 -0.45672151238E+03  0.39667764274E+03  0.67526881941E+03  0.00000000000E+00 0. -1.
         -2    1    6    6    0  503 -0.38076852764E+03 -0.72985613988E+03  0.51134539455E+03  0.96909688324E+03  0.00000000000E+00 0.  1.
<mgrwt>
<rscale>  0 0.40069472E+04</rscale>
<asrwt>0</asrwt>
<pdfrwt beam="1">  1        2 0.32376867E+00 0.40069472E+04</pdfrwt>
<pdfrwt beam="2">  1       -1 0.29343081E+00 0.40069472E+04</pdfrwt>
<totfact> 0.19085602E-01</totfact>
</mgrwt>
</event>
<event>
12    6  0.1530720E-007  0.1237018E+04  0.7818608E-02  0.9081058E-01
          2   -1    0    0  501    0  0.00000000000E+00  0.00000000000E+00  0.49491369501E+03  0.49491369501E+03  0.00000000000E+00 0. -1.
         -1   -1    0    0    0  501 -0.00000000000E+00 -0.00000000000E+00 -0.77297011690E+03  0.77297011690E+03  0.00000000000E+00 0.  1.
         24    2    1    2    0    0 -0.85975239936E+02  0.26235041628E+03  0.83699312427E+01  0.28761715578E+03  0.80212777939E+02 0.  0.
        254    2    1    2    0    0  0.85975239936E+02 -0.26235041628E+03 -0.28642635313E+03  0.98026665613E+03  0.89591471611E+03 0.  0.
         23    2    4    4    0    0  0.72472784972E+02 -0.19311318874E+03  0.30416221382E+03  0.37842525471E+03  0.90255265007E+02 0.  0.
         23    2    4    4    0    0  0.13502454964E+02 -0.69237227535E+02 -0.59058856695E+03  0.60184140142E+03  0.91880939751E+02 0.  0.
          4    1    3    3  502    0 -0.84334404139E+02  0.25193863229E+03 -0.10627562697E+02  0.26589154039E+03  0.00000000000E+00 0. -1.
         -3    1    3    3    0  502 -0.16408357963E+01  0.10411783986E+02  0.18997493940E+02  0.21725615385E+02  0.00000000000E+00 0.  1.
         11    1    5    5    0    0  0.65494022825E+02 -0.15751412139E+03  0.29538037871E+03  0.34110076750E+03  0.00000000000E+00 0. -1.
        -11    1    5    5    0    0  0.69787621468E+01 -0.35599067351E+02  0.87818351019E+01  0.37324487205E+02  0.00000000000E+00 0.  1.
          4    1    6    6  503    0 -0.34047193715E+02 -0.55462238642E+01 -0.23192330763E+03  0.23447471638E+03  0.00000000000E+00 0.  1.
         -4    1    6    6    0  503  0.47549648679E+02 -0.63691003671E+02 -0.35866525932E+03  0.36736668504E+03  0.00000000000E+00 0. -1.
<mgrwt>
<rscale>  0 0.12370182E+04</rscale>
<asrwt>0</asrwt>
<pdfrwt beam="1">  1        2 0.76140569E-01 0.12370182E+04</pdfrwt>
<pdfrwt beam="2">  1       -1 0.11891848E+00 0.12370182E+04</pdfrwt>
<totfact> 0.44421704E+01</totfact>
</mgrwt>
</event>
<event>
12    6  0.1530720E-007  0.2134760E+04  0.7818608E-02  0.8546084E-01
         -1   -1    0    0    0  501 -0.00000000000E+00  0.00000000000E+00  0.32705432119E+03  0.32705432119E+03  0.00000000000E+00 0.  1.
          2   -1    0    0  501    0  0.00000000000E+00 -0.00000000000E+00 -0.34835200841E+04  0.34835200841E+04  0.00000000000E+00 0. -1.
         24    2    1    2    0    0 -0.17636762721E+03 -0.76869161400E+03 -0.19787866218E+04  0.21319587881E+04  0.87518240434E+02 0.  0.
        254    2    1    2    0    0  0.17636762721E+03  0.76869161400E+03 -0.11776791411E+04  0.16786156171E+04  0.89934970580E+03 0.  0.
         23    2    4    4    0    0 -0.24239141211E+03 -0.34457700989E+02 -0.13806449828E+03  0.29677616716E+03  0.95254175175E+02 0.  0.
         23    2    4    4    0    0  0.41875903932E+03  0.80314931499E+03 -0.10396146428E+04  0.13818394500E+04  0.90959907266E+02 0.  0.
          4    1    3    3  502    0 -0.10008126056E+03 -0.58283770349E+03 -0.14236993367E+04  0.15416341488E+04  0.00000000000E+00 0. -1.
         -3    1    3    3    0  502 -0.76286366645E+02 -0.18585391051E+03 -0.55508728504E+03  0.59032463933E+03  0.00000000000E+00 0.  1.
         11    1    5    5    0    0 -0.92408799713E+02 -0.56624557722E+02 -0.36796197727E+02  0.11445386393E+03  0.00000000000E+00 0. -1.
        -11    1    5    5    0    0 -0.14998261240E+03  0.22166856733E+02 -0.10126830055E+03  0.18232230323E+03  0.00000000000E+00 0.  1.
          2    1    6    6  503    0  0.32690984132E+03  0.68789091459E+03 -0.89749602303E+03  0.11770994291E+04  0.00000000000E+00 0.  1.
         -2    1    6    6    0  503  0.91849197997E+02  0.11525840040E+03 -0.14211861978E+03  0.20474002082E+03  0.00000000000E+00 0. -1.
<mgrwt>
<rscale>  0 0.21347602E+04</rscale>
<asrwt>0</asrwt>
<pdfrwt beam="1">  1        2 0.53592615E+00 0.21347602E+04</pdfrwt>
<pdfrwt beam="2">  1       -1 0.50316051E-01 0.21347602E+04</pdfrwt>
<totfact> 0.34763788E+00</totfact>
</mgrwt>
</event>
<event>
12    6  0.1530720E-007  0.1347875E+04  0.7818608E-02  0.8992439E-01
         -1   -1    0    0    0  501 -0.00000000000E+00  0.00000000000E+00  0.17757863043E+03  0.17757863043E+03  0.00000000000E+00 0.  1.
          2   -1    0    0  501    0  0.00000000000E+00 -0.00000000000E+00 -0.25576921161E+04  0.25576921161E+04  0.00000000000E+00 0. -1.
         24    2    1    2    0    0 -0.18072641992E+03  0.23615189655E+03 -0.10814648950E+04  0.11239229582E+04  0.72157741675E+02 0.  0.
        254    2    1    2    0    0  0.18072641992E+03 -0.23615189655E+03 -0.12986485906E+04  0.16113477883E+04  0.90637948776E+03 0.  0.
         23    2    4    4    0    0  0.29951487221E+03  0.21529104223E+02 -0.12743886221E+04  0.13123950881E+04  0.90232178991E+02 0.  0.
         23    2    4    4    0    0 -0.11878845229E+03 -0.25768100077E+03 -0.24259968505E+02  0.29895270019E+03  0.90961400171E+02 0.  0.
          4    1    3    3  502    0 -0.73682954949E+02  0.13607674586E+03 -0.65327596275E+03  0.67135351501E+03  0.00000000000E+00 0. -1.
         -1    1    3    3    0  502 -0.10704346497E+03  0.10007515069E+03 -0.42818893230E+03  0.45256944320E+03  0.00000000000E+00 0.  1.
         11    1    5    5    0    0  0.10821078543E+03  0.43945703290E+02 -0.58833724128E+03  0.59981789603E+03  0.00000000000E+00 0. -1.
        -11    1    5    5    0    0  0.19130408678E+03 -0.22416599066E+02 -0.68605138081E+03  0.71257719206E+03  0.00000000000E+00 0.  1.
          1    1    6    6  503    0 -0.87395190280E+02 -0.23574650934E+03 -0.44969977408E+02  0.25541463314E+03  0.00000000000E+00 0. -1.
         -1    1    6    6    0  503 -0.31393262012E+02 -0.21934491431E+02  0.20710008903E+02  0.43538067055E+02  0.00000000000E+00 0.  1.
<mgrwt>
<rscale>  0 0.13478746E+04</rscale>
<asrwt>0</asrwt>
<pdfrwt beam="1">  1        2 0.39349109E+00 0.13478746E+04</pdfrwt>
<pdfrwt beam="2">  1       -1 0.27319790E-01 0.13478746E+04</pdfrwt>
<totfact> 0.43286388E+01</totfact>
</mgrwt>
</event>
<event>
12    6  0.1530720E-007  0.2082177E+04  0.7818608E-02  0.8569135E-01
          2   -1    0    0  501    0  0.00000000000E+00  0.00000000000E+00  0.11245179730E+04  0.11245179730E+04  0.00000000000E+00 0. -1.
         -1   -1    0    0    0  501 -0.00000000000E+00 -0.00000000000E+00 -0.96384876145E+03  0.96384876145E+03  0.00000000000E+00 0.  1.
         24    2    1    2    0    0 -0.55744597069E+03  0.39573237248E+03 -0.43195616899E+03  0.81286161614E+03  0.82509115888E+02 0.  0.
        254    2    1    2    0    0  0.55744597069E+03 -0.39573237248E+03  0.59262538057E+03  0.12755051183E+04  0.89908750648E+03 0.  0.
         23    2    4    4    0    0  0.89393105047E+02 -0.22511542427E+02  0.65412691433E+03  0.66688367376E+03  0.91399767557E+02 0.  0.
         23    2    4    4    0    0  0.46805286564E+03 -0.37322083005E+03 -0.61501533762E+02  0.60862144456E+03  0.90941470774E+02 0.  0.
          2    1    3    3  502    0 -0.30992655966E+03  0.19862342270E+03 -0.18811806884E+03  0.41339344970E+03  0.00000000000E+00 0. -1.
         -3    1    3    3    0  502 -0.24751941102E+03  0.19710894977E+03 -0.24383810015E+03  0.39946816644E+03  0.00000000000E+00 0.  1.
         11    1    5    5    0    0 -0.13026801618E+02 -0.24059191863E+02  0.13278685639E+03  0.13557614651E+03  0.00000000000E+00 0.  1.
        -11    1    5    5    0    0  0.10241990666E+03  0.15476494365E+01  0.52134005794E+03  0.53130752725E+03  0.00000000000E+00 0. -1.
          3    1    6    6  503    0  0.29930117318E+03 -0.29119462764E+03 -0.51165726630E+02  0.42070587708E+03  0.00000000000E+00 0. -1.
         -3    1    6    6    0  503  0.16875169247E+03 -0.82026202412E+02 -0.10335807133E+02  0.18791556748E+03  0.00000000000E+00 0.  1.
<mgrwt>
<rscale>  0 0.20821770E+04</rscale>
<asrwt>0</asrwt>
<pdfrwt beam="1">  1        2 0.17300276E+00 0.20821770E+04</pdfrwt>
<pdfrwt beam="2">  1       -1 0.14828443E+00 0.20821770E+04</pdfrwt>
<totfact> 0.79697158E+00</totfact>
</mgrwt>
</event>
<event>
12    6  0.1530720E-007  0.2916046E+04  0.7818608E-02  0.8268119E-01
         -1   -1    0    0    0  501 -0.00000000000E+00  0.00000000000E+00  0.13616653841E+04  0.13616653841E+04  0.00000000000E+00 0.  1.
          2   -1    0    0  501    0  0.00000000000E+00 -0.00000000000E+00 -0.15611997700E+04  0.15611997700E+04  0.00000000000E+00 0. -1.
         24    2    1    2    0    0 -0.46341420748E+03  0.12151683920E+04 -0.29259459044E+03  0.13353957654E+04  0.79267315222E+02 0.  0.
        254    2    1    2    0    0  0.46341420748E+03 -0.12151683920E+04  0.93060204519E+02  0.15874693886E+04  0.90554508973E+03 0.  0.
         23    2    4    4    0    0  0.69712423354E+03 -0.62651696922E+03  0.10341740034E+03  0.94736875073E+03  0.91140997677E+02 0.  0.
         23    2    4    4    0    0 -0.23371002606E+03 -0.58865142279E+03 -0.10357195819E+02  0.64010063790E+03  0.92144892943E+02 0.  0.
          2    1    3    3  502    0 -0.40390588891E+03  0.10872421973E+04 -0.28364329608E+03  0.11940222285E+04  0.00000000000E+00 0. -1.
         -1    1    3    3    0  502 -0.59508318568E+02  0.12792619474E+03 -0.89512943634E+01  0.14137353695E+03  0.00000000000E+00 0.  1.
         11    1    5    5    0    0  0.18903573223E+03 -0.22636024682E+03  0.36888559392E+02  0.29721075891E+03  0.00000000000E+00 0. -1.
        -11    1    5    5    0    0  0.50808850131E+03 -0.40015672240E+03  0.66528840945E+02  0.65015799182E+03  0.00000000000E+00 0.  1.
          2    1    6    6  503    0 -0.32815847351E+02 -0.19301221331E+03 -0.14988106496E+02  0.19635487684E+03  0.00000000000E+00 0. -1.
         -2    1    6    6    0  503 -0.20089417871E+03 -0.39563920948E+03  0.46309106771E+01  0.44374576105E+03  0.00000000000E+00 0.  1.
<mgrwt>
<rscale>  0 0.29160464E+04</rscale>
<asrwt>0</asrwt>
<pdfrwt beam="1">  1        2 0.24018458E+00 0.29160464E+04</pdfrwt>
<pdfrwt beam="2">  1       -1 0.20948698E+00 0.29160464E+04</pdfrwt>
<totfact> 0.14912171E+00</totfact>
</mgrwt>
</event>
<event>
12    6  0.1530720E-007  0.1786010E+04  0.7818608E-02  0.8713775E-01
         -1   -1    0    0    0  501 -0.00000000000E+00  0.00000000000E+00  0.57929135899E+03  0.57929135899E+03  0.00000000000E+00 0.  1.
          2   -1    0    0  501    0  0.00000000000E+00 -0.00000000000E+00 -0.13766100427E+04  0.13766100427E+04  0.00000000000E+00 0. -1.
         24    2    1    2    0    0  0.31470702496E+03  0.24250688337E+03  0.30127646780E+03  0.50555869704E+03  0.83498419542E+02 0.  0.
        254    2    1    2    0    0 -0.31470702496E+03 -0.24250688337E+03 -0.10985951515E+04  0.14503427047E+04  0.85949552296E+03 0.  0.
         23    2    4    4    0    0  0.15656872602E+03  0.18641850084E+03 -0.53353681869E+03  0.59353591432E+03  0.91420573520E+02 0.  0.
         23    2    4    4    0    0 -0.47127575098E+03 -0.42892538420E+03 -0.56505833285E+03  0.85680679036E+03  0.93536825966E+02 0.  0.
          4    1    3    3  502    0  0.97089064924E+02  0.11635203241E+03  0.84551506659E+02  0.17353109016E+03  0.00000000000E+00 0. -1.
         -3    1    3    3    0  502  0.21761796003E+03  0.12615485095E+03  0.21672496114E+03  0.33202760688E+03  0.00000000000E+00 0.  1.
         11    1    5    5    0    0  0.45635837400E+02  0.12492360266E+03 -0.26118461066E+03  0.29309714601E+03  0.00000000000E+00 0. -1.
        -11    1    5    5    0    0  0.11093288862E+03  0.61494898183E+02 -0.27235220803E+03  0.30043876831E+03  0.00000000000E+00 0.  1.
          3    1    6    6  503    0 -0.26070447661E+02 -0.22407859239E+02 -0.65771671516E+01  0.35000564634E+02  0.00000000000E+00 0. -1.
         -3    1    6    6    0  503 -0.44520530332E+03 -0.40651752496E+03 -0.55848116570E+03  0.82180622573E+03  0.00000000000E+00 0.  1.
<mgrwt>
<rscale>  0 0.17860104E+04</rscale>
<asrwt>0</asrwt>
<pdfrwt beam="1">  1        2 0.21178616E+00 0.17860104E+04</pdfrwt>
<pdfrwt beam="2">  1       -1 0.89121748E-01 0.17860104E+04</pdfrwt>
<totfact> 0.19846569E+01</totfact>
</mgrwt>
</event>
<event>
12    6  0.1530720E-007  0.2003404E+04  0.7818608E-02  0.8605031E-01
         -1   -1    0    0    0  501 -0.00000000000E+00  0.00000000000E+00  0.36988438493E+03  0.36988438493E+03  0.00000000000E+00 0.  1.
          2   -1    0    0  501    0  0.00000000000E+00 -0.00000000000E+00 -0.27127573417E+04  0.27127573417E+04  0.00000000000E+00 0. -1.
         24    2    1    2    0    0 -0.13761449270E+02  0.27349369308E+03  0.21459333221E+03  0.35664754854E+03  0.78479283949E+02 0.  0.
        254    2    1    2    0    0  0.13761449270E+02 -0.27349369308E+03 -0.25574662890E+04  0.27259941781E+04  0.90300734331E+03 0.  0.
         23    2    4    4    0    0 -0.11744546912E+03 -0.49944793285E+03 -0.85467140179E+03  0.10008960977E+04  0.89933962268E+02 0.  0.
         23    2    4    4    0    0  0.13120691839E+03  0.22595423977E+03 -0.17027948872E+04  0.17250980804E+04  0.90456537245E+02 0.  0.
          4    1    3    3  502    0 -0.37897965166E+02  0.69062992992E+02  0.65953377954E+02  0.10274142703E+03  0.00000000000E+00 0. -1.
         -3    1    3    3    0  502  0.24136515896E+02  0.20443070009E+03  0.14863995426E+03  0.25390612151E+03  0.00000000000E+00 0.  1.
         11    1    5    5    0    0 -0.31134636521E+02 -0.28352693656E+03 -0.41581685996E+03  0.50424255114E+03  0.00000000000E+00 0.  1.
        -11    1    5    5    0    0 -0.86310832594E+02 -0.21592099629E+03 -0.43885454182E+03  0.49665354659E+03  0.00000000000E+00 0. -1.
          2    1    6    6  503    0  0.10539297034E+03  0.20363232127E+03 -0.16096399597E+04  0.16258888647E+04  0.00000000000E+00 0. -1.
         -2    1    6    6    0  503  0.25813948044E+02  0.22321918497E+02 -0.93154927536E+02  0.99209215717E+02  0.00000000000E+00 0.  1.
<mgrwt>
<rscale>  0 0.20034037E+04</rscale>
<asrwt>0</asrwt>
<pdfrwt beam="1">  1        2 0.41734728E+00 0.20034037E+04</pdfrwt>
<pdfrwt beam="2">  1       -1 0.56905290E-01 0.20034037E+04</pdfrwt>
<totfact> 0.86346973E+00</totfact>
</mgrwt>
</event>
<event>
12    6  0.1530720E-007  0.5910101E+04  0.7818608E-02  0.7701649E-01
          2   -1    0    0  501    0  0.00000000000E+00  0.00000000000E+00  0.44274095305E+04  0.44274095305E+04  0.00000000000E+00 0. -1.
         -1   -1    0    0    0  501 -0.00000000000E+00 -0.00000000000E+00 -0.19723325398E+04  0.19723325398E+04  0.00000000000E+00 0.  1.
         24    2    1    2    0    0 -0.17122769124E+04 -0.18267459615E+04  0.27499671752E+04  0.37198668470E+04  0.78720149850E+02 0.  0.
        254    2    1    2    0    0  0.17122769124E+04  0.18267459615E+04 -0.29489018452E+03  0.26798752232E+04  0.90877827793E+03 0.  0.
         23    2    4    4    0    0  0.12021099223E+03  0.40837438609E+03 -0.32798537770E+03  0.54537800403E+03  0.92964710678E+02 0.  0.
         23    2    4    4    0    0  0.15920659202E+04  0.14183715754E+04  0.33095193174E+02  0.21344972192E+04  0.92364856748E+02 0.  0.
          2    1    3    3  502    0 -0.16627834429E+04 -0.17554131137E+04  0.26644389643E+04  0.35979937427E+04  0.00000000000E+00 0. -1.
         -1    1    3    3    0  502 -0.49493469522E+02 -0.71332847773E+02  0.85528210923E+02  0.12187310434E+03  0.00000000000E+00 0.  1.
         11    1    5    5    0    0  0.60510006955E+02  0.77926624895E+02 -0.92484879101E+02  0.13523118232E+03  0.00000000000E+00 0.  1.
        -11    1    5    5    0    0  0.59700985276E+02  0.33044776120E+03 -0.23550049860E+03  0.41014682171E+03  0.00000000000E+00 0. -1.
          1    1    6    6  503    0  0.13027134074E+04  0.11720490925E+04  0.61499160156E+02  0.17534376076E+04  0.00000000000E+00 0. -1.
         -1    1    6    6    0  503  0.28935251274E+03  0.24632248288E+03 -0.28403966982E+02  0.38105961153E+03  0.00000000000E+00 0.  1.
<mgrwt>
<rscale>  0 0.59101011E+04</rscale>
<asrwt>0</asrwt>
<pdfrwt beam="1">  1        2 0.68113992E+00 0.59101011E+04</pdfrwt>
<pdfrwt beam="2">  1       -1 0.30343578E+00 0.59101011E+04</pdfrwt>
<totfact> 0.34546238E-03</totfact>
</mgrwt>
</event>
<event>
12    6  0.1530720E-007  0.1774803E+04  0.7818608E-02  0.8719815E-01
         -1   -1    0    0    0  501 -0.00000000000E+00  0.00000000000E+00  0.22951125204E+03  0.22951125204E+03  0.00000000000E+00 0.  1.
          2   -1    0    0  501    0  0.00000000000E+00 -0.00000000000E+00 -0.34311245828E+04  0.34311245828E+04  0.00000000000E+00 0. -1.
         24    2    1    2    0    0 -0.36641620515E+03 -0.54309191408E+03 -0.99213412074E+03  0.11915771836E+04  0.79475834858E+02 0.  0.
        254    2    1    2    0    0  0.36641620515E+03  0.54309191408E+03 -0.22094792100E+04  0.24690586513E+04  0.88613914332E+03 0.  0.
         23    2    4    4    0    0 -0.62809415819E+02  0.51178618383E+02  0.36838220674E+02  0.12805423078E+03  0.92068223747E+02 0.  0.
         23    2    4    4    0    0  0.42922562097E+03  0.49191329570E+03 -0.22463174307E+04  0.23410044205E+04  0.90257260585E+02 0.  0.
          4    1    3    3  502    0 -0.24214330972E+03 -0.30774113708E+03 -0.63791208398E+03  0.74851173456E+03  0.00000000000E+00 0. -1.
         -3    1    3    3    0  502 -0.12427289543E+03 -0.23535077701E+03 -0.35422203676E+03  0.44306544901E+03  0.00000000000E+00 0.  1.
         11    1    5    5    0    0 -0.37017711624E+02  0.77196538861E+02  0.21058297650E+02  0.88165007151E+02  0.00000000000E+00 0. -1.
        -11    1    5    5    0    0 -0.25791704195E+02 -0.26017920478E+02  0.15779923024E+02  0.39889223632E+02  0.00000000000E+00 0.  1.
          3    1    6    6  503    0  0.35615401966E+03  0.38197626400E+03 -0.18969773282E+04  0.19675554720E+04  0.00000000000E+00 0. -1.
         -3    1    6    6    0  503  0.73071601308E+02  0.10993703170E+03 -0.34934010251E+03  0.37344894843E+03  0.00000000000E+00 0.  1.
<mgrwt>
<rscale>  0 0.17748033E+04</rscale>
<asrwt>0</asrwt>
<pdfrwt beam="1">  1        2 0.52786531E+00 0.17748033E+04</pdfrwt>
<pdfrwt beam="2">  1       -1 0.35309424E-01 0.17748033E+04</pdfrwt>
<totfact> 0.75255606E+00</totfact>
</mgrwt>
</event>
<event>
12    6  0.1530720E-007  0.1717005E+04  0.7818608E-02  0.8751725E-01
          2   -1    0    0  501    0  0.00000000000E+00  0.00000000000E+00  0.18305982603E+04  0.18305982603E+04  0.00000000000E+00 0. -1.
         -1   -1    0    0    0  501 -0.00000000000E+00 -0.00000000000E+00 -0.40261525297E+03  0.40261525297E+03  0.00000000000E+00 0.  1.
         24    2    1    2    0    0  0.31244819553E+03  0.20093179876E+03  0.11275241143E+04  0.11899309080E+04  0.81409305009E+02 0.  0.
        254    2    1    2    0    0 -0.31244819553E+03 -0.20093179876E+03  0.30045889300E+03  0.10432826052E+04  0.92745112285E+03 0.  0.
         23    2    4    4    0    0  0.11146347489E+03 -0.23894014360E+03  0.49374494564E+03  0.56720457186E+03  0.91763045564E+02 0.  0.
         23    2    4    4    0    0 -0.42391167042E+03  0.38008344838E+02 -0.19328605264E+03  0.47607803333E+03  0.90249969969E+02 0.  0.
          4    1    3    3  502    0  0.28390374064E+03  0.19137617692E+03  0.10856557703E+04  0.11383648917E+04  0.00000000000E+00 0. -1.
         -3    1    3    3    0  502  0.28544454884E+02  0.95556218390E+01  0.41868344017E+02  0.51566016368E+02  0.00000000000E+00 0.  1.
         11    1    5    5    0    0  0.54367693998E+01 -0.10338636763E+03  0.14331862967E+03  0.17680081755E+03  0.00000000000E+00 0. -1.
        -11    1    5    5    0    0  0.10602670549E+03 -0.13555377596E+03  0.35042631597E+03  0.39040375431E+03  0.00000000000E+00 0.  1.
          2    1    6    6  503    0 -0.68138507595E+02  0.22794706588E+02 -0.20520664064E+01  0.71879523108E+02  0.00000000000E+00 0. -1.
         -2    1    6    6    0  503 -0.35577316283E+03  0.15213638250E+02 -0.19123398624E+03  0.40419851023E+03  0.00000000000E+00 0.  1.
<mgrwt>
<rscale>  0 0.17170053E+04</rscale>
<asrwt>0</asrwt>
<pdfrwt beam="1">  1        2 0.28163050E+00 0.17170053E+04</pdfrwt>
<pdfrwt beam="2">  1       -1 0.61940809E-01 0.17170053E+04</pdfrwt>
<totfact> 0.23743541E+01</totfact>
</mgrwt>
</event>
<event>
12    6  0.1530720E-007  0.1216773E+04  0.7818608E-02  0.9098301E-01
          2   -1    0    0  501    0  0.00000000000E+00  0.00000000000E+00  0.11252420340E+04  0.11252420340E+04  0.00000000000E+00 0. -1.
         -1   -1    0    0    0  501 -0.00000000000E+00 -0.00000000000E+00 -0.32893735284E+03  0.32893735284E+03  0.00000000000E+00 0.  1.
         24    2    1    2    0    0  0.80092289401E+02 -0.28976095684E+03  0.21770644769E+03  0.37978235482E+03  0.80388760019E+02 0.  0.
        254    2    1    2    0    0 -0.80092289401E+02  0.28976095684E+03  0.57859823350E+03  0.10743970320E+04  0.85391854396E+03 0.  0.
         23    2    4    4    0    0 -0.17440387983E+03  0.42675793328E+03  0.44117435876E+01  0.46978954391E+03  0.90242479872E+02 0.  0.
         23    2    4    4    0    0  0.94311590430E+02 -0.13699697643E+03  0.57418648992E+03  0.60460748813E+03  0.90538620855E+02 0.  0.
          2    1    3    3  502    0  0.84612108162E+02 -0.29340008748E+03  0.21292115964E+03  0.37226098426E+03  0.00000000000E+00 0. -1.
         -1    1    3    3    0  502 -0.45198187615E+01  0.36391306359E+01  0.47852880503E+01  0.75213705630E+01  0.00000000000E+00 0.  1.
         11    1    5    5    0    0 -0.64246508032E+02  0.23242528285E+03 -0.32688971499E+02  0.24334686100E+03  0.00000000000E+00 0. -1.
        -11    1    5    5    0    0 -0.11015737180E+03  0.19433265042E+03  0.37100715086E+02  0.22644268291E+03  0.00000000000E+00 0.  1.
          1    1    6    6  503    0 -0.27010269831E+01 -0.34973594391E+01  0.14072758927E+03  0.14079695114E+03  0.00000000000E+00 0. -1.
         -1    1    6    6    0  503  0.97012617413E+02 -0.13349961699E+03  0.43345890065E+03  0.46381053699E+03  0.00000000000E+00 0.  1.
<mgrwt>
<rscale>  0 0.12167730E+04</rscale>
<asrwt>0</asrwt>
<pdfrwt beam="1">  1        2 0.17311416E+00 0.12167730E+04</pdfrwt>
<pdfrwt beam="2">  1       -1 0.50605747E-01 0.12167730E+04</pdfrwt>
<totfact> 0.92649402E+01</totfact>
</mgrwt>
</event>
<event>
12    6  0.1530720E-007  0.1869990E+04  0.7818608E-02  0.8669940E-01
          2   -1    0    0  501    0  0.00000000000E+00  0.00000000000E+00  0.20986397905E+04  0.20986397905E+04  0.00000000000E+00 0. -1.
         -1   -1    0    0    0  501 -0.00000000000E+00 -0.00000000000E+00 -0.41656285557E+03  0.41656285557E+03  0.00000000000E+00 0.  1.
         24    2    1    2    0    0 -0.12467298553E+03 -0.51879395889E+03  0.12999905461E+04  0.14074503336E+04  0.79060081016E+02 0.  0.
        254    2    1    2    0    0  0.12467298553E+03  0.51879395889E+03  0.38208638884E+03  0.11077523125E+04  0.89243187541E+03 0.  0.
         23    2    4    4    0    0  0.41189275764E+03 -0.20330520145E+02  0.14860234951E+03  0.44788647343E+03  0.91927476603E+02 0.  0.
         23    2    4    4    0    0 -0.28721977211E+03  0.53912447903E+03  0.23348403933E+03  0.65986583908E+03  0.88077963112E+02 0.  0.
          4    1    3    3  502    0 -0.12035354723E+03 -0.46535625431E+03  0.11007156901E+04  0.12010896928E+04  0.00000000000E+00 0. -1.
         -3    1    3    3    0  502 -0.43194383012E+01 -0.53437704580E+02  0.19927485600E+03  0.20636064075E+03  0.00000000000E+00 0.  1.
         11    1    5    5    0    0  0.13912226756E+03  0.33113197180E+02  0.68819923181E+02  0.15870624117E+03  0.00000000000E+00 0. -1.
        -11    1    5    5    0    0  0.27277049009E+03 -0.53443717325E+02  0.79782426329E+02  0.28918023227E+03  0.00000000000E+00 0.  1.
          1    1    6    6  503    0 -0.67709635429E+02  0.73034820044E+02  0.16981786011E+02  0.10102999913E+03  0.00000000000E+00 0. -1.
         -1    1    6    6    0  503 -0.21951013668E+03  0.46608965899E+03  0.21650225332E+03  0.55883583995E+03  0.00000000000E+00 0.  1.
<mgrwt>
<rscale>  0 0.18699897E+04</rscale>
<asrwt>0</asrwt>
<pdfrwt beam="1">  1        2 0.32286765E+00 0.18699897E+04</pdfrwt>
<pdfrwt beam="2">  1       -1 0.64086594E-01 0.18699897E+04</pdfrwt>
<totfact> 0.15537641E+01</totfact>
</mgrwt>
</event>
<event>
12    6  0.1530720E-007  0.1523889E+04  0.7818608E-02  0.8868720E-01
          2   -1    0    0  501    0  0.00000000000E+00  0.00000000000E+00  0.18176276591E+04  0.18176276591E+04  0.00000000000E+00 0. -1.
         -1   -1    0    0    0  501 -0.00000000000E+00 -0.00000000000E+00 -0.31940512562E+03  0.31940512562E+03  0.00000000000E+00 0.  1.
         24    2    1    2    0    0  0.60347749642E+02 -0.46400440058E+03  0.24726759883E+03  0.53475596596E+03  0.76686002986E+02 0.  0.
        254    2    1    2    0    0 -0.60347749642E+02  0.46400440058E+03  0.12509549347E+04  0.16022768188E+04  0.88513322208E+03 0.  0.
         23    2    4    4    0    0  0.28053464985E+03  0.83535956032E+02  0.95859145627E+03  0.10063982177E+04  0.90894702347E+02 0.  0.
         23    2    4    4    0    0 -0.34088239950E+03  0.38046844454E+03  0.29236347841E+03  0.59587860107E+03  0.92940067345E+02 0.  0.
          4    1    3    3  502    0  0.48877255773E+02 -0.18822163221E+03  0.69828686716E+02  0.20662142787E+03  0.00000000000E+00 0. -1.
         -3    1    3    3    0  502  0.11470493868E+02 -0.27578276836E+03  0.17743891211E+03  0.32813453809E+03  0.00000000000E+00 0.  1.
         11    1    5    5    0    0  0.14511448637E+03  0.83572648488E+01  0.56576397654E+03  0.58413777072E+03  0.00000000000E+00 0. -1.
        -11    1    5    5    0    0  0.13542016349E+03  0.75178691183E+02  0.39282747973E+03  0.42226044702E+03  0.00000000000E+00 0.  1.
          2    1    6    6  503    0 -0.79718376413E+02  0.62605255975E+02  0.97596274906E+02  0.14071059125E+03  0.00000000000E+00 0.  1.
         -2    1    6    6    0  503 -0.26116402308E+03  0.31786318857E+03  0.19476720351E+03  0.45516800982E+03  0.00000000000E+00 0. -1.
<mgrwt>
<rscale>  0 0.15238892E+04</rscale>
<asrwt>0</asrwt>
<pdfrwt beam="1">  1        2 0.27963502E+00 0.15238892E+04</pdfrwt>
<pdfrwt beam="2">  1       -1 0.49139251E-01 0.15238892E+04</pdfrwt>
<totfact> 0.38456337E+01</totfact>
</mgrwt>
</event>
<event>
12    6  0.1530720E-007  0.1418593E+04  0.7818608E-02  0.8940469E-01
         -1   -1    0    0    0  501 -0.00000000000E+00  0.00000000000E+00  0.52164926909E+03  0.52164926909E+03  0.00000000000E+00 0.  1.
          2   -1    0    0  501    0  0.00000000000E+00 -0.00000000000E+00 -0.96444358295E+03  0.96444358295E+03  0.00000000000E+00 0. -1.
         24    2    1    2    0    0 -0.35835716132E+03 -0.13731429298E+03 -0.31134517827E+03  0.50063470721E+03  0.80151231470E+02 0.  0.
        254    2    1    2    0    0  0.35835716132E+03  0.13731429298E+03 -0.13144913560E+03  0.98545814483E+03  0.89809454393E+03 0.  0.
         23    2    4    4    0    0  0.24002675092E+03  0.36108008404E+03 -0.40609632814E+03  0.60103070376E+03  0.91279849306E+02 0.  0.
         23    2    4    4    0    0  0.11833041040E+03 -0.22376579106E+03  0.27464719255E+03  0.38442744106E+03  0.90995394358E+02 0.  0.
          2    1    3    3  502    0 -0.34986027432E+03 -0.14037064784E+03 -0.28440258212E+03  0.47221918538E+03  0.00000000000E+00 0. -1.
         -1    1    3    3    0  502 -0.84968869995E+01  0.30563548607E+01 -0.26942596150E+02  0.28415521832E+02  0.00000000000E+00 0.  1.
         11    1    5    5    0    0  0.91063583247E+02  0.19617117471E+03 -0.24344281058E+03  0.32563800147E+03  0.00000000000E+00 0.  1.
        -11    1    5    5    0    0  0.14896316767E+03  0.16490890934E+03 -0.16265351756E+03  0.27539270229E+03  0.00000000000E+00 0. -1.
          2    1    6    6  503    0 -0.42170815413E+00 -0.18969870653E+02 -0.33727302308E+01  0.19271978092E+02  0.00000000000E+00 0.  1.
         -2    1    6    6    0  503  0.11875211856E+03 -0.20479592040E+03  0.27801992278E+03  0.36515546297E+03  0.00000000000E+00 0. -1.
<mgrwt>
<rscale>  0 0.14185927E+04</rscale>
<asrwt>0</asrwt>
<pdfrwt beam="1">  1        2 0.14837593E+00 0.14185927E+04</pdfrwt>
<pdfrwt beam="2">  1       -1 0.80253735E-01 0.14185927E+04</pdfrwt>
<totfact> 0.45658516E+01</totfact>
</mgrwt>
</event>
<event>
12    6  0.1530720E-007  0.2089577E+04  0.7818608E-02  0.8565849E-01
         -1   -1    0    0    0  501 -0.00000000000E+00  0.00000000000E+00  0.95317479518E+03  0.95317479518E+03  0.00000000000E+00 0.  1.
          2   -1    0    0  501    0  0.00000000000E+00 -0.00000000000E+00 -0.11452077494E+04  0.11452077494E+04  0.00000000000E+00 0. -1.
         24    2    1    2    0    0  0.65314796289E+03 -0.26328518699E+03 -0.58286027618E+03  0.91764083479E+03  0.80107733702E+02 0.  0.
        254    2    1    2    0    0 -0.65314796289E+03  0.26328518699E+03  0.39082732198E+03  0.11807417098E+04  0.86341394387E+03 0.  0.
         23    2    4    4    0    0 -0.84904617149E+03  0.21232341519E+03  0.37915299954E+03  0.95802110927E+03  0.89926718955E+02 0.  0.
         23    2    4    4    0    0  0.19589820860E+03  0.50961771801E+02  0.11674322432E+02  0.22272060050E+03  0.92168138555E+02 0.  0.
          4    1    3    3  502    0  0.46907430077E+03 -0.19884590804E+03 -0.46492062507E+03  0.68972572985E+03  0.00000000000E+00 0. -1.
         -3    1    3    3    0  502  0.18407366212E+03 -0.64439278952E+02 -0.11793965111E+03  0.22791510494E+03  0.00000000000E+00 0.  1.
         11    1    5    5    0    0 -0.77199390426E+03  0.21621868064E+03  0.35814033095E+03  0.87806013617E+03  0.00000000000E+00 0.  1.
        -11    1    5    5    0    0 -0.77052267232E+02 -0.38952654458E+01  0.21012668595E+02  0.79960973105E+02  0.00000000000E+00 0. -1.
          1    1    6    6  503    0  0.40554971747E+02  0.31897847896E+02  0.37912773484E+02  0.64027781682E+02  0.00000000000E+00 0. -1.
         -1    1    6    6    0  503  0.15534323685E+03  0.19063923905E+02 -0.26238451053E+02  0.15869281882E+03  0.00000000000E+00 0.  1.
<mgrwt>
<rscale>  0 0.20895771E+04</rscale>
<asrwt>0</asrwt>
<pdfrwt beam="1">  1        2 0.17618581E+00 0.20895771E+04</pdfrwt>
<pdfrwt beam="2">  1       -1 0.14664228E+00 0.20895771E+04</pdfrwt>
<totfact> 0.79704891E+00</totfact>
</mgrwt>
</event>
<event>
12    6  0.1530720E-007  0.1556183E+04  0.7818608E-02  0.8847928E-01
         -1   -1    0    0    0  501 -0.00000000000E+00  0.00000000000E+00  0.63573508756E+03  0.63573508756E+03  0.00000000000E+00 0.  1.
          2   -1    0    0  501    0  0.00000000000E+00 -0.00000000000E+00 -0.95232461900E+03  0.95232461900E+03  0.00000000000E+00 0. -1.
         24    2    1    2    0    0  0.37690276216E+03 -0.11124499122E+02 -0.46297178957E+03  0.60226950730E+03  0.78779660340E+02 0.  0.
        254    2    1    2    0    0 -0.37690276216E+03  0.11124499122E+02  0.14638225813E+03  0.98579019926E+03  0.89898559769E+03 0.  0.
         23    2    4    4    0    0 -0.14871040374E+03  0.13935299595E+03  0.49429085075E+03  0.54142792204E+03  0.85362216228E+02 0.  0.
         23    2    4    4    0    0 -0.22819235841E+03 -0.12822849683E+03 -0.34790859262E+03  0.44436227722E+03  0.88899633067E+02 0.  0.
          4    1    3    3  502    0  0.31725750329E+03  0.17581519965E+02 -0.36364408468E+03  0.48290625752E+03  0.00000000000E+00 0. -1.
         -3    1    3    3    0  502  0.59645258871E+02 -0.28706019088E+02 -0.99327704897E+02  0.11936324978E+03  0.00000000000E+00 0.  1.
         11    1    5    5    0    0  0.93064238489E+01  0.22701801271E+02  0.53365695277E+02  0.58735668364E+02  0.00000000000E+00 0.  1.
        -11    1    5    5    0    0 -0.15801682759E+03  0.11665119468E+03  0.44092515547E+03  0.48269225367E+03  0.00000000000E+00 0. -1.
          3    1    6    6  503    0 -0.29097802069E+02 -0.39978291522E+02 -0.11668147367E+03  0.12672613060E+03  0.00000000000E+00 0. -1.
         -3    1    6    6    0  503 -0.19909455635E+03 -0.88250205309E+02 -0.23122711895E+03  0.31763614662E+03  0.00000000000E+00 0.  1.
<mgrwt>
<rscale>  0 0.15561827E+04</rscale>
<asrwt>0</asrwt>
<pdfrwt beam="1">  1        2 0.14651148E+00 0.15561827E+04</pdfrwt>
<pdfrwt beam="2">  1       -1 0.97805398E-01 0.15561827E+04</pdfrwt>
<totfact> 0.29787184E+01</totfact>
</mgrwt>
</event>
<event>
12    6  0.1530720E-007  0.1255767E+04  0.7818608E-02  0.9065397E-01
          2   -1    0    0  501    0  0.00000000000E+00  0.00000000000E+00  0.55676244953E+03  0.55676244953E+03  0.00000000000E+00 0. -1.
         -1   -1    0    0    0  501 -0.00000000000E+00 -0.00000000000E+00 -0.70808958470E+03  0.70808958470E+03  0.00000000000E+00 0.  1.
         24    2    1    2    0    0 -0.15126663406E+03 -0.10585342087E+03  0.18420318046E+03  0.27264057268E+03  0.79470301942E+02 0.  0.
        254    2    1    2    0    0  0.15126663406E+03  0.10585342087E+03 -0.33553031563E+03  0.99221146156E+03  0.91532313990E+03 0.  0.
         23    2    4    4    0    0 -0.23119249801E+03 -0.50559967012E+02  0.19088080242E+03  0.31664971590E+03  0.88460615222E+02 0.  0.
         23    2    4    4    0    0  0.38245913207E+03  0.15641338788E+03 -0.52641111805E+03  0.67556174566E+03  0.92384367605E+02 0.  0.
          2    1    3    3  502    0 -0.14734860570E+03 -0.83633597123E+02  0.18393476324E+03  0.25007636294E+03  0.00000000000E+00 0. -1.
         -1    1    3    3    0  502 -0.39180283572E+01 -0.22219823744E+02  0.26841721207E+00  0.22564209740E+02  0.00000000000E+00 0.  1.
         11    1    5    5    0    0 -0.10417884067E+03  0.17458525839E+02  0.10487853261E+03  0.14885408147E+03  0.00000000000E+00 0. -1.
        -11    1    5    5    0    0 -0.12701365734E+03 -0.68018492851E+02  0.86002269808E+02  0.16779563443E+03  0.00000000000E+00 0.  1.
          3    1    6    6  503    0  0.38240040643E+03  0.14417671378E+03 -0.49533607173E+03  0.64216416872E+03  0.00000000000E+00 0. -1.
         -3    1    6    6    0  503  0.58725646841E-01  0.12236674094E+02 -0.31075046316E+02  0.33397576935E+02  0.00000000000E+00 0.  1.
<mgrwt>
<rscale>  0 0.12557670E+04</rscale>
<asrwt>0</asrwt>
<pdfrwt beam="1">  1        2 0.85655761E-01 0.12557670E+04</pdfrwt>
<pdfrwt beam="2">  1       -1 0.10893686E+00 0.12557670E+04</pdfrwt>
<totfact> 0.47640924E+01</totfact>
</mgrwt>
</event>
<event>
12    6  0.1530720E-007  0.2125294E+04  0.7818608E-02  0.8550182E-01
         -1   -1    0    0    0  501 -0.00000000000E+00  0.00000000000E+00  0.61483003967E+03  0.61483003967E+03  0.00000000000E+00 0.  1.
          2   -1    0    0  501    0  0.00000000000E+00 -0.00000000000E+00 -0.18366360586E+04  0.18366360586E+04  0.00000000000E+00 0. -1.
         24    2    1    2    0    0 -0.28784457441E+03 -0.48194815508E+03  0.26415383763E+03  0.62539555268E+03  0.78827813454E+02 0.  0.
        254    2    1    2    0    0  0.28784457441E+03  0.48194815508E+03 -0.14859598565E+04  0.18260705456E+04  0.90073770820E+03 0.  0.
         23    2    4    4    0    0  0.11594861360E+03  0.41890349864E+03 -0.15495879087E+04  0.16118063137E+04  0.88162827043E+02 0.  0.
         23    2    4    4    0    0  0.17189596081E+03  0.63044656439E+02  0.63628052149E+02  0.21426423184E+03  0.91311455901E+02 0.  0.
          2    1    3    3  502    0 -0.14269589292E+02 -0.28761623898E+01  0.11788442286E+02  0.18731280260E+02  0.00000000000E+00 0. -1.
         -1    1    3    3    0  502 -0.27357498512E+03 -0.47907199269E+03  0.25236539534E+03  0.60666427242E+03  0.00000000000E+00 0.  1.
         11    1    5    5    0    0  0.47343386468E+02  0.31381678501E+03 -0.11484853619E+04  0.11915288487E+04  0.00000000000E+00 0.  1.
        -11    1    5    5    0    0  0.68605227134E+02  0.10508671364E+03 -0.40110254673E+03  0.42027746498E+03  0.00000000000E+00 0. -1.
          1    1    6    6  503    0 -0.62862605375E+01 -0.91125677321E+01  0.94022021320E+01  0.14524371489E+02  0.00000000000E+00 0. -1.
         -1    1    6    6    0  503  0.17818222134E+03  0.72157224171E+02  0.54225850017E+02  0.19973986035E+03  0.00000000000E+00 0.  1.
<mgrwt>
<rscale>  0 0.21252944E+04</rscale>
<asrwt>0</asrwt>
<pdfrwt beam="1">  1        2 0.28255939E+00 0.21252944E+04</pdfrwt>
<pdfrwt beam="2">  1       -1 0.94589237E-01 0.21252944E+04</pdfrwt>
<totfact> 0.93218196E+00</totfact>
</mgrwt>
</event>
<event>
12    6  0.1530720E-007  0.2492804E+04  0.7818608E-02  0.8405554E-01
          4   -1    0    0  501    0  0.00000000000E+00  0.00000000000E+00  0.14511183021E+04  0.14511183021E+04  0.00000000000E+00 0. -1.
         -3   -1    0    0    0  501 -0.00000000000E+00 -0.00000000000E+00 -0.10705657446E+04  0.10705657446E+04  0.00000000000E+00 0.  1.
         24    2    1    2    0    0  0.27130090008E+03 -0.54252069321E+02 -0.89568302268E+03  0.94106456572E+03  0.82504389726E+02 0.  0.
        254    2    1    2    0    0 -0.27130090008E+03  0.54252069321E+02  0.12762355802E+04  0.15806194810E+04  0.89052412784E+03 0.  0.
         23    2    4    4    0    0 -0.47691147741E+03  0.32217924147E+03  0.81349015022E+03  0.10004108633E+04  0.88383538631E+02 0.  0.
         23    2    4    4    0    0  0.20561057733E+03 -0.26792717215E+03  0.46274542994E+03  0.58020861775E+03  0.91913155175E+02 0.  0.
          2    1    3    3  502    0  0.15326575575E+02 -0.27318622186E+02 -0.97076962431E+02  0.10200562569E+03  0.00000000000E+00 0. -1.
         -1    1    3    3    0  502  0.25597432450E+03 -0.26933447135E+02 -0.79860606025E+03  0.83905894003E+03  0.00000000000E+00 0.  1.
         11    1    5    5    0    0 -0.48054446406E+03  0.31743171128E+03  0.80088160439E+03  0.98645690099E+03  0.00000000000E+00 0. -1.
        -11    1    5    5    0    0  0.36329866532E+01  0.47475301892E+01  0.12608545835E+02  0.13953962268E+02  0.00000000000E+00 0.  1.
          4    1    6    6  503    0  0.15870724817E+03 -0.22662156410E+03  0.42523794326E+03  0.50731906364E+03  0.00000000000E+00 0. -1.
         -4    1    6    6    0  503  0.46903329158E+02 -0.41305608043E+02  0.37507486682E+02  0.72889554115E+02  0.00000000000E+00 0.  1.
<mgrwt>
<rscale>  0 0.24928037E+04</rscale>
<asrwt>0</asrwt>
<pdfrwt beam="1">  1        4 0.22324897E+00 0.24928037E+04</pdfrwt>
<pdfrwt beam="2">  1       -3 0.16470242E+00 0.24928037E+04</pdfrwt>
<totfact> 0.47593622E-02</totfact>
</mgrwt>
</event>
<event>
12    6  0.1530720E-007  0.1834770E+04  0.7818608E-02  0.8688024E-01
         -3   -1    0    0    0  501 -0.00000000000E+00  0.00000000000E+00  0.26355357867E+03  0.26355357867E+03  0.00000000000E+00 0.  1.
          2   -1    0    0  501    0  0.00000000000E+00 -0.00000000000E+00 -0.31932620461E+04  0.31932620461E+04  0.00000000000E+00 0. -1.
         24    2    1    2    0    0 -0.68481868451E+03 -0.80512367552E+02 -0.10597253023E+04  0.12668481348E+04  0.80172366766E+02 0.  0.
        254    2    1    2    0    0  0.68481868451E+03  0.80512367552E+02 -0.18699831652E+04  0.21899674900E+04  0.90755809574E+03 0.  0.
         23    2    4    4    0    0  0.45827666365E+03 -0.17577544203E+03 -0.17479227940E+04  0.18178123529E+04  0.91066733382E+02 0.  0.
         23    2    4    4    0    0  0.22654202086E+03  0.25628780958E+03 -0.12206037113E+03  0.37215513708E+03  0.81215659196E+02 0.  0.
          2    1    3    3  502    0 -0.64929507988E+03 -0.66742542321E+02 -0.10256788453E+04  0.12157531663E+04  0.00000000000E+00 0. -1.
         -1    1    3    3    0  502 -0.35523604629E+02 -0.13769825231E+02 -0.34046457003E+02  0.51094968511E+02  0.00000000000E+00 0.  1.
         11    1    5    5    0    0  0.23937667335E+03 -0.67410890830E+02 -0.73808049288E+03  0.77885058511E+03  0.00000000000E+00 0.  1.
        -11    1    5    5    0    0  0.21889999030E+03 -0.10836455120E+03 -0.10098423012E+04  0.10389617678E+04  0.00000000000E+00 0. -1.
          2    1    6    6  503    0  0.19965892801E+03  0.24398470578E+03 -0.13080535193E+03  0.34132428024E+03  0.00000000000E+00 0. -1.
         -2    1    6    6    0  503  0.26883092853E+02  0.12303103809E+02  0.87449807985E+01  0.30830856846E+02  0.00000000000E+00 0.  1.
<mgrwt>
<rscale>  0 0.18347704E+04</rscale>
<asrwt>0</asrwt>
<pdfrwt beam="1">  1        2 0.49127104E+00 0.18347704E+04</pdfrwt>
<pdfrwt beam="2">  1       -3 0.40546708E-01 0.18347704E+04</pdfrwt>
<totfact> 0.48558962E+00</totfact>
</mgrwt>
</event>
<event>
12    6  0.1530720E-007  0.2456126E+04  0.7818608E-02  0.8418785E-01
          2   -1    0    0  501    0  0.00000000000E+00  0.00000000000E+00  0.85311343756E+03  0.85311343756E+03  0.00000000000E+00 0. -1.
         -1   -1    0    0    0  501 -0.00000000000E+00 -0.00000000000E+00 -0.17678061778E+04  0.17678061778E+04  0.00000000000E+00 0.  1.
         24    2    1    2    0    0 -0.25307934232E+03 -0.33810582032E+03 -0.14473541573E+04  0.15099499062E+04  0.82158159892E+02 0.  0.
        254    2    1    2    0    0  0.25307934232E+03  0.33810582032E+03  0.53266141715E+03  0.11109697091E+04  0.87872681192E+03 0.  0.
         23    2    4    4    0    0  0.39388070613E+03  0.56309911055E+03  0.42407208807E+03  0.81256155185E+03  0.90534638133E+02 0.  0.
         23    2    4    4    0    0 -0.14080136381E+03 -0.22499329023E+03  0.10858932908E+03  0.29840815725E+03  0.82515339315E+02 0.  0.
          4    1    3    3  502    0 -0.52792045733E+02 -0.12140828651E+03 -0.53110783158E+03  0.54735957184E+03  0.00000000000E+00 0. -1.
         -3    1    3    3    0  502 -0.20028729658E+03 -0.21669753381E+03 -0.91624632576E+03  0.96259033436E+03  0.00000000000E+00 0.  1.
         11    1    5    5    0    0  0.32591602454E+03  0.47247366639E+03  0.39117965892E+03  0.69460358913E+03  0.00000000000E+00 0.  1.
        -11    1    5    5    0    0  0.67964681589E+02  0.90625444168E+02  0.32892429148E+02  0.11795796272E+03  0.00000000000E+00 0. -1.
          4    1    6    6  503    0 -0.74699397753E+02 -0.92270480232E+02  0.89997205142E+02  0.14897428798E+03  0.00000000000E+00 0. -1.
         -4    1    6    6    0  503 -0.66101966059E+02 -0.13272281000E+03  0.18592123939E+02  0.14943386927E+03  0.00000000000E+00 0.  1.
<mgrwt>
<rscale>  0 0.24561264E+04</rscale>
<asrwt>0</asrwt>
<pdfrwt beam="1">  1        2 0.13124822E+00 0.24561264E+04</pdfrwt>
<pdfrwt beam="2">  1       -1 0.27197018E+00 0.24561264E+04</pdfrwt>
<totfact> 0.16174496E+00</totfact>
</mgrwt>
</event>
<event>
12    6  0.1530720E-007  0.2465296E+04  0.7818608E-02  0.8415454E-01
         -1   -1    0    0    0  501 -0.00000000000E+00  0.00000000000E+00  0.12552048992E+04  0.12552048992E+04  0.00000000000E+00 0.  1.
          2   -1    0    0  501    0  0.00000000000E+00 -0.00000000000E+00 -0.12104966724E+04  0.12104966724E+04  0.00000000000E+00 0. -1.
         24    2    1    2    0    0 -0.91678000959E+02  0.10142469000E+04 -0.30199396347E+03  0.10657266433E+04  0.86436648884E+02 0.  0.
        254    2    1    2    0    0  0.91678000959E+02 -0.10142469000E+04  0.34670219024E+03  0.13999749283E+04  0.89589383363E+03 0.  0.
         23    2    4    4    0    0  0.41609250467E+03 -0.38647480048E+03 -0.62439108426E+02  0.57844348976E+03  0.90567569964E+02 0.  0.
         23    2    4    4    0    0 -0.32441450372E+03 -0.62777209950E+03  0.40914129867E+03  0.82153143853E+03  0.90414175232E+02 0.  0.
          4    1    3    3  502    0 -0.32034863790E+02  0.71252082100E+03 -0.23492844937E+03  0.75093510317E+03  0.00000000000E+00 0. -1.
         -3    1    3    3    0  502 -0.59643137169E+02  0.30172607898E+03 -0.67065514106E+02  0.31479154012E+03  0.00000000000E+00 0.  1.
         11    1    5    5    0    0  0.25303390231E+03 -0.18505379877E+03 -0.60608408861E+02  0.31928739935E+03  0.00000000000E+00 0. -1.
        -11    1    5    5    0    0  0.16305860236E+03 -0.20142100171E+03 -0.18306995655E+01  0.25915609041E+03  0.00000000000E+00 0.  1.
          1    1    6    6  503    0 -0.16831856952E+03 -0.42042172415E+03  0.25963295736E+03  0.52201038259E+03  0.00000000000E+00 0. -1.
         -1    1    6    6    0  503 -0.15609593420E+03 -0.20735037535E+03  0.14950834131E+03  0.29952105594E+03  0.00000000000E+00 0.  1.
<mgrwt>
<rscale>  0 0.24652962E+04</rscale>
<asrwt>0</asrwt>
<pdfrwt beam="1">  1        2 0.18623026E+00 0.24652962E+04</pdfrwt>
<pdfrwt beam="2">  1       -1 0.19310845E+00 0.24652962E+04</pdfrwt>
<totfact> 0.31982486E+00</totfact>
</mgrwt>
</event>
<event>
12    6  0.1530720E-007  0.1151041E+04  0.7818608E-02  0.9156824E-01
         -1   -1    0    0    0  501 -0.00000000000E+00  0.00000000000E+00  0.55199416621E+03  0.55199416621E+03  0.00000000000E+00 0.  1.
          2   -1    0    0  501    0  0.00000000000E+00 -0.00000000000E+00 -0.60004955174E+03  0.60004955174E+03  0.00000000000E+00 0. -1.
         24    2    1    2    0    0 -0.61252306619E+02  0.15788491584E+03 -0.11965598513E+03  0.22378804027E+03  0.84166742078E+02 0.  0.
        254    2    1    2    0    0  0.61252306619E+02 -0.15788491584E+03  0.71600599605E+02  0.92825567768E+03  0.90986398190E+03 0.  0.
         23    2    4    4    0    0  0.46555262222E+03 -0.22984951274E+02  0.12437325454E+03  0.49044996668E+03  0.88345409217E+02 0.  0.
         23    2    4    4    0    0 -0.40430031560E+03 -0.13489996457E+03 -0.52772654931E+02  0.43780571100E+03  0.85042000471E+02 0.  0.
          2    1    3    3  502    0 -0.59678904225E+02  0.12992415567E+03 -0.13067313683E+03  0.19369389904E+03  0.00000000000E+00 0. -1.
         -1    1    3    3    0  502 -0.15734023941E+01  0.27960760175E+02  0.11017151701E+02  0.30094141228E+02  0.00000000000E+00 0.  1.
         11    1    5    5    0    0  0.34450206139E+03  0.19609449557E+02  0.76150459813E+02  0.35336255227E+03  0.00000000000E+00 0.  1.
        -11    1    5    5    0    0  0.12105056083E+03 -0.42594400831E+02  0.48222794722E+02  0.13708741441E+03  0.00000000000E+00 0. -1.
          1    1    6    6  503    0 -0.15296161578E+03 -0.83034898350E+01 -0.17538165165E+02  0.15418751922E+03  0.00000000000E+00 0. -1.
         -1    1    6    6    0  503 -0.25133869982E+03 -0.12659647474E+03 -0.35234489766E+02  0.28361819179E+03  0.00000000000E+00 0.  1.
<mgrwt>
<rscale>  0 0.11510410E+04</rscale>
<asrwt>0</asrwt>
<pdfrwt beam="1">  1        2 0.92315316E-01 0.11510410E+04</pdfrwt>
<pdfrwt beam="2">  1       -1 0.84922179E-01 0.11510410E+04</pdfrwt>
<totfact> 0.76997626E+01</totfact>
</mgrwt>
</event>
<event>
12    6  0.1530720E-007  0.2275607E+04  0.7818608E-02  0.8487602E-01
         -1   -1    0    0    0  501 -0.00000000000E+00  0.00000000000E+00  0.82934042859E+03  0.82934042859E+03  0.00000000000E+00 0.  1.
          2   -1    0    0  501    0  0.00000000000E+00 -0.00000000000E+00 -0.15609955387E+04  0.15609955387E+04  0.00000000000E+00 0. -1.
         24    2    1    2    0    0 -0.32184896625E+03  0.58724013046E+03 -0.10299623526E+04  0.12308464693E+04  0.75649557293E+02 0.  0.
        254    2    1    2    0    0  0.32184896625E+03 -0.58724013046E+03  0.29830724249E+03  0.11594894979E+04  0.89832675398E+03 0.  0.
         23    2    4    4    0    0  0.48731938076E+03 -0.33764599511E+02 -0.12436620092E+02  0.49720405500E+03  0.91853011619E+02 0.  0.
         23    2    4    4    0    0 -0.16547041451E+03 -0.55347553095E+03  0.31074386259E+03  0.66228544290E+03  0.91348991797E+02 0.  0.
          2    1    3    3  502    0 -0.16360833924E+03  0.31462338249E+03 -0.61241225753E+03  0.70767530312E+03  0.00000000000E+00 0. -1.
         -3    1    3    3    0  502 -0.15824062701E+03  0.27261674797E+03 -0.41755009504E+03  0.52317116623E+03  0.00000000000E+00 0.  1.
         11    1    5    5    0    0  0.40134608751E+03 -0.62817457877E+02 -0.70192375644E+01  0.40629297886E+03  0.00000000000E+00 0.  1.
        -11    1    5    5    0    0  0.85973293252E+02  0.29052858367E+02 -0.54173825271E+01  0.90911076143E+02  0.00000000000E+00 0. -1.
          3    1    6    6  503    0 -0.73792722792E+01 -0.15783787639E+03  0.68920887062E+02  0.17238717341E+03  0.00000000000E+00 0. -1.
         -3    1    6    6    0  503 -0.15809114223E+03 -0.39563765456E+03  0.24182297552E+03  0.48989826949E+03  0.00000000000E+00 0.  1.
<mgrwt>
<rscale>  0 0.22756069E+04</rscale>
<asrwt>0</asrwt>
<pdfrwt beam="1">  1        2 0.24015316E+00 0.22756069E+04</pdfrwt>
<pdfrwt beam="2">  1       -1 0.12759084E+00 0.22756069E+04</pdfrwt>
<totfact> 0.64514878E+00</totfact>
</mgrwt>
</event>
<event>
12    6  0.1530720E-007  0.1092049E+04  0.7818608E-02  0.9212977E-01
         -1   -1    0    0    0  501 -0.00000000000E+00  0.00000000000E+00  0.11772431526E+03  0.11772431526E+03  0.00000000000E+00 0.  1.
          2   -1    0    0  501    0  0.00000000000E+00 -0.00000000000E+00 -0.25325483349E+04  0.25325483349E+04  0.00000000000E+00 0. -1.
         24    2    1    2    0    0  0.16124951257E+03  0.23467812026E+02 -0.39313526227E+03  0.43290126150E+03  0.79347490586E+02 0.  0.
        254    2    1    2    0    0 -0.16124951257E+03 -0.23467812026E+02 -0.20216887574E+04  0.22173713886E+04  0.89607940501E+03 0.  0.
         23    2    4    4    0    0 -0.16933549755E+03 -0.22729464351E+02 -0.20963771032E+04  0.21052569657E+04  0.90104349008E+02 0.  0.
         23    2    4    4    0    0  0.80859849833E+01 -0.73834767553E+00  0.74688345802E+02  0.11211442295E+03  0.83218787087E+02 0.  0.
          2    1    3    3  502    0  0.12111550137E+03  0.52024530003E+02 -0.27773914496E+03  0.30743218608E+03  0.00000000000E+00 0. -1.
         -1    1    3    3    0  502  0.40134011200E+02 -0.28556717977E+02 -0.11539611731E+03  0.12546907542E+03  0.00000000000E+00 0.  1.
         11    1    5    5    0    0 -0.15236550240E+03  0.10708836964E+02 -0.18104087444E+04  0.18168405949E+04  0.00000000000E+00 0. -1.
        -11    1    5    5    0    0 -0.16969995154E+02 -0.33438301315E+02 -0.28596835874E+03  0.28841637077E+03  0.00000000000E+00 0.  1.
          3    1    6    6  503    0  0.22437704811E+01 -0.57130862487E+01  0.92508775692E+02  0.92712175255E+02  0.00000000000E+00 0. -1.
         -3    1    6    6    0  503  0.58422145022E+01  0.49747385732E+01 -0.17820429890E+02  0.19402247695E+02  0.00000000000E+00 0.  1.
<mgrwt>
<rscale>  0 0.10920486E+04</rscale>
<asrwt>0</asrwt>
<pdfrwt beam="1">  1        2 0.38962277E+00 0.10920486E+04</pdfrwt>
<pdfrwt beam="2">  1       -1 0.18111435E-01 0.10920486E+04</pdfrwt>
<totfact> 0.91884982E+01</totfact>
</mgrwt>
</event>
<event>
12    6  0.1530720E-007  0.1163478E+04  0.7818608E-02  0.9145439E-01
          2   -1    0    0  501    0  0.00000000000E+00  0.00000000000E+00  0.13677088255E+04  0.13677088255E+04  0.00000000000E+00 0. -1.
         -1   -1    0    0    0  501 -0.00000000000E+00 -0.00000000000E+00 -0.24743569398E+03  0.24743569398E+03  0.00000000000E+00 0.  1.
         24    2    1    2    0    0 -0.14720269353E+03 -0.44559204037E+02  0.45658136812E+03  0.48802395902E+03  0.77760421894E+02 0.  0.
        254    2    1    2    0    0  0.14720269353E+03  0.44559204037E+02  0.66369176336E+03  0.11271205604E+04  0.89791973211E+03 0.  0.
         23    2    4    4    0    0  0.18220817496E+03  0.27379096660E+02 -0.18241958783E+03  0.27551934356E+03  0.93191033320E+02 0.  0.
         23    2    4    4    0    0 -0.35005481428E+02  0.17180107377E+02  0.84611135119E+03  0.85160121686E+03  0.88315763698E+02 0.  0.
          2    1    3    3  502    0 -0.84025497071E+02 -0.17803958304E+02  0.35638284532E+03  0.36658695766E+03  0.00000000000E+00 0. -1.
         -1    1    3    3    0  502 -0.63177196461E+02 -0.26755245733E+02  0.10019852280E+03  0.12143700135E+03  0.00000000000E+00 0.  1.
         11    1    5    5    0    0  0.25840452286E+02  0.39192704510E+02 -0.62193450040E+02  0.77921898649E+02  0.00000000000E+00 0.  1.
        -11    1    5    5    0    0  0.15636772267E+03 -0.11813607850E+02 -0.12022613779E+03  0.19759744491E+03  0.00000000000E+00 0. -1.
          4    1    6    6  503    0 -0.15737230501E+02  0.36444140100E+01  0.22741750353E+02  0.27894970629E+02  0.00000000000E+00 0.  1.
         -4    1    6    6    0  503 -0.19268250927E+02  0.13535693367E+02  0.82336960084E+03  0.82370624623E+03  0.00000000000E+00 0. -1.
<mgrwt>
<rscale>  0 0.11634775E+04</rscale>
<asrwt>0</asrwt>
<pdfrwt beam="1">  1        2 0.21041674E+00 0.11634775E+04</pdfrwt>
<pdfrwt beam="2">  1       -1 0.38067031E-01 0.11634775E+04</pdfrwt>
<totfact> 0.11341374E+02</totfact>
</mgrwt>
</event>
<event>
12    6  0.1530720E-007  0.1646660E+04  0.7818608E-02  0.8792385E-01
         -1   -1    0    0    0  501 -0.00000000000E+00  0.00000000000E+00  0.23057631236E+03  0.23057631236E+03  0.00000000000E+00 0.  1.
          2   -1    0    0  501    0  0.00000000000E+00 -0.00000000000E+00 -0.29399058643E+04  0.29399058643E+04  0.00000000000E+00 0. -1.
         24    2    1    2    0    0  0.39370022412E+03 -0.31663859575E+03 -0.14624294225E+04  0.15492802218E+04  0.79432506006E+02 0.  0.
        254    2    1    2    0    0 -0.39370022412E+03  0.31663859575E+03 -0.12469001294E+04  0.16212019548E+04  0.90458608153E+03 0.  0.
         23    2    4    4    0    0 -0.24872436870E+03 -0.56742841521E+02  0.36429710814E+02  0.27371794446E+03  0.92254147015E+02 0.  0.
         23    2    4    4    0    0 -0.14497585542E+03  0.37338143727E+03 -0.12833298402E+04  0.13474840104E+04  0.91356352289E+02 0.  0.
          2    1    3    3  502    0  0.22798754459E+03 -0.22864178522E+03 -0.96915447354E+03  0.10215262013E+04  0.00000000000E+00 0. -1.
         -1    1    3    3    0  502  0.16571267953E+03 -0.87996810524E+02 -0.49327494900E+03  0.52775402048E+03  0.00000000000E+00 0.  1.
         11    1    5    5    0    0 -0.10003936332E+03 -0.14921209992E+02  0.59805775153E+02  0.11750424444E+03  0.00000000000E+00 0. -1.
        -11    1    5    5    0    0 -0.14868500538E+03 -0.41821631529E+02 -0.23376064340E+02  0.15621370002E+03  0.00000000000E+00 0.  1.
          3    1    6    6  503    0 -0.12726439730E+03  0.23698601653E+03 -0.93684037712E+03  0.97469404997E+03  0.00000000000E+00 0. -1.
         -3    1    6    6    0  503 -0.17711458116E+02  0.13639542074E+03 -0.34648946308E+03  0.37278996040E+03  0.00000000000E+00 0.  1.
<mgrwt>
<rscale>  0 0.16466604E+04</rscale>
<asrwt>0</asrwt>
<pdfrwt beam="1">  1        2 0.45229317E+00 0.16466604E+04</pdfrwt>
<pdfrwt beam="2">  1       -1 0.35473282E-01 0.16466604E+04</pdfrwt>
<totfact> 0.15719725E+01</totfact>
</mgrwt>
</event>
<event>
12    6  0.1530720E-007  0.1239219E+04  0.7818608E-02  0.9079205E-01
          2   -1    0    0  501    0  0.00000000000E+00  0.00000000000E+00  0.35998629337E+04  0.35998629337E+04  0.00000000000E+00 0. -1.
         -1   -1    0    0    0  501 -0.00000000000E+00 -0.00000000000E+00 -0.10664729730E+03  0.10664729730E+03  0.00000000000E+00 0.  1.
         24    2    1    2    0    0 -0.23445545430E+03 -0.41249172094E+02  0.18771944251E+04  0.18938018798E+04  0.77173803381E+02 0.  0.
        254    2    1    2    0    0  0.23445545430E+03  0.41249172094E+02  0.16160212113E+04  0.18127083513E+04  0.78594920768E+03 0.  0.
         23    2    4    4    0    0  0.34217528944E+03  0.44100068745E+02  0.24177291519E+03  0.43101252185E+03  0.91043433051E+02 0.  0.
         23    2    4    4    0    0 -0.10771983514E+03 -0.28508966508E+01  0.13742482961E+04  0.13816958294E+04  0.94410249053E+02 0.  0.
          4    1    3    3  502    0 -0.98632939171E+02 -0.55803746533E+02  0.89968758221E+03  0.90679670290E+03  0.00000000000E+00 0. -1.
         -3    1    3    3    0  502 -0.13582251513E+03  0.14554574439E+02  0.97750684291E+03  0.98700517688E+03  0.00000000000E+00 0.  1.
         11    1    5    5    0    0  0.27955775964E+03  0.50778087744E+02  0.23296194053E+03  0.36742648367E+03  0.00000000000E+00 0.  1.
        -11    1    5    5    0    0  0.62617529801E+02 -0.66780189989E+01  0.88109746632E+01  0.63586038173E+02  0.00000000000E+00 0. -1.
          1    1    6    6  503    0  0.13609880256E+02  0.10801140319E+02  0.30596692084E+03  0.30645986707E+03  0.00000000000E+00 0. -1.
         -1    1    6    6    0  503 -0.12132971539E+03 -0.13652036970E+02  0.10682813753E+04  0.10752359624E+04  0.00000000000E+00 0.  1.
<mgrwt>
<rscale>  0 0.12392185E+04</rscale>
<asrwt>0</asrwt>
<pdfrwt beam="1">  1        2 0.55382498E+00 0.12392185E+04</pdfrwt>
<pdfrwt beam="2">  1       -1 0.16407279E-01 0.12392185E+04</pdfrwt>
<totfact> 0.22575257E+01</totfact>
</mgrwt>
</event>
<event>
12    6  0.1530720E-007  0.1447337E+04  0.7818608E-02  0.8920249E-01
          2   -1    0    0  501    0  0.00000000000E+00  0.00000000000E+00  0.24354412024E+04  0.24354412024E+04  0.00000000000E+00 0. -1.
         -1   -1    0    0    0  501 -0.00000000000E+00 -0.00000000000E+00 -0.21503139810E+03  0.21503139810E+03  0.00000000000E+00 0.  1.
         24    2    1    2    0    0  0.13451535647E+01  0.11910275292E+03 -0.93670412585E+02  0.16825893430E+03  0.73141285115E+02 0.  0.
        254    2    1    2    0    0 -0.13451535647E+01 -0.11910275292E+03  0.23140802169E+04  0.24822136662E+04  0.89007312016E+03 0.  0.
         23    2    4    4    0    0  0.41482506860E+03  0.34429411640E+02  0.13728370489E+04  0.14374780246E+04  0.91631251976E+02 0.  0.
         23    2    4    4    0    0 -0.41617022216E+03 -0.15353216456E+03  0.94124316794E+03  0.10447356416E+04  0.93616666402E+02 0.  0.
          4    1    3    3  502    0  0.34063959142E+02  0.88387288807E+02 -0.59605296652E+02  0.11191719048E+03  0.00000000000E+00 0. -1.
         -3    1    3    3    0  502 -0.32718805577E+02  0.30715464113E+02 -0.34065115933E+02  0.56341743828E+02  0.00000000000E+00 0.  1.
         11    1    5    5    0    0  0.25418879936E+03 -0.21037882666E+02  0.76992692126E+03  0.81107459725E+03  0.00000000000E+00 0. -1.
        -11    1    5    5    0    0  0.16063626924E+03  0.55467294307E+02  0.60291012767E+03  0.62640342734E+03  0.00000000000E+00 0.  1.
          2    1    6    6  503    0 -0.33453721091E+03 -0.12495738545E+03  0.83197918896E+03  0.90538326940E+03  0.00000000000E+00 0. -1.
         -2    1    6    6    0  503 -0.81633011259E+02 -0.28574779113E+02  0.10926397898E+03  0.13935237218E+03  0.00000000000E+00 0.  1.
<mgrwt>
<rscale>  0 0.14473373E+04</rscale>
<asrwt>0</asrwt>
<pdfrwt beam="1">  1        2 0.37468324E+00 0.14473373E+04</pdfrwt>
<pdfrwt beam="2">  1       -1 0.33081755E-01 0.14473373E+04</pdfrwt>
<totfact> 0.36065474E+01</totfact>
</mgrwt>
</event>
<event>
12    6  0.1530720E-007  0.1716170E+04  0.7818608E-02  0.8752195E-01
         -1   -1    0    0    0  501 -0.00000000000E+00  0.00000000000E+00  0.67310348232E+03  0.67310348232E+03  0.00000000000E+00 0.  1.
          2   -1    0    0  501    0  0.00000000000E+00 -0.00000000000E+00 -0.10939030083E+04  0.10939030083E+04  0.00000000000E+00 0. -1.
         24    2    1    2    0    0 -0.18362663571E+00  0.47670264583E+03  0.25243819596E+03  0.54535194115E+03  0.80238710581E+02 0.  0.
        254    2    1    2    0    0  0.18362663571E+00 -0.47670264583E+03 -0.67323772197E+03  0.12216545495E+04  0.90108010842E+03 0.  0.
         23    2    4    4    0    0 -0.29899102692E+03  0.10836823585E+03 -0.10126649775E+03  0.34567627977E+03  0.89988210962E+02 0.  0.
         23    2    4    4    0    0  0.29917465355E+03 -0.58507088168E+03 -0.57197122422E+03  0.87597826974E+03  0.91506490416E+02 0.  0.
          2    1    3    3  502    0  0.11572803853E+02  0.46643009816E+02  0.32301255110E+01  0.48165691779E+02  0.00000000000E+00 0. -1.
         -3    1    3    3    0  502 -0.11756430488E+02  0.43005963601E+03  0.24920807044E+03  0.49718624937E+03  0.00000000000E+00 0.  1.
         11    1    5    5    0    0 -0.21475076222E+03  0.33346452259E+02 -0.58742053149E+02  0.22512330968E+03  0.00000000000E+00 0.  1.
        -11    1    5    5    0    0 -0.84240264695E+02  0.75021783595E+02 -0.42524444596E+02  0.12055297009E+03  0.00000000000E+00 0. -1.
          3    1    6    6  503    0  0.29330212847E+03 -0.58345947461E+03 -0.57412078021E+03  0.86952042377E+03  0.00000000000E+00 0. -1.
         -3    1    6    6    0  503  0.58725250797E+01 -0.16114070685E+01  0.21495559888E+01  0.64578459645E+01  0.00000000000E+00 0.  1.
<mgrwt>
<rscale>  0 0.17161701E+04</rscale>
<asrwt>0</asrwt>
<pdfrwt beam="1">  1        2 0.16829277E+00 0.17161701E+04</pdfrwt>
<pdfrwt beam="2">  1       -1 0.10355438E+00 0.17161701E+04</pdfrwt>
<totfact> 0.20949013E+01</totfact>
</mgrwt>
</event>
<event>
12    6  0.1530720E-007  0.1578638E+04  0.7818608E-02  0.8833780E-01
         -1   -1    0    0    0  501 -0.00000000000E+00  0.00000000000E+00  0.29126412078E+03  0.29126412078E+03  0.00000000000E+00 0.  1.
          2   -1    0    0  501    0  0.00000000000E+00 -0.00000000000E+00 -0.21390364212E+04  0.21390364212E+04  0.00000000000E+00 0. -1.
         24    2    1    2    0    0  0.40731594446E+03  0.39288378570E+02 -0.11483279869E+04  0.12217332082E+04  0.80777541522E+02 0.  0.
        254    2    1    2    0    0 -0.40731594446E+03 -0.39288378570E+02 -0.69944431350E+03  0.12085673338E+04  0.89663972546E+03 0.  0.
         23    2    4    4    0    0  0.27057463928E+03 -0.88176427438E+02 -0.18543769541E+03  0.35187120984E+03  0.91872148420E+02 0.  0.
         23    2    4    4    0    0 -0.67789058374E+03  0.48888048868E+02 -0.51400661810E+03  0.85669612394E+03  0.88316252581E+02 0.  0.
          2    1    3    3  502    0  0.34588435014E+03  0.36340725842E+02 -0.10464511564E+04  0.11027314518E+04  0.00000000000E+00 0. -1.
         -1    1    3    3    0  502  0.61431594326E+02  0.29476527283E+01 -0.10187683055E+03  0.11900175646E+03  0.00000000000E+00 0.  1.
         11    1    5    5    0    0  0.18409588280E+03 -0.66271128941E+02 -0.74147592969E+02  0.20923915059E+03  0.00000000000E+00 0.  1.
        -11    1    5    5    0    0  0.86478756480E+02 -0.21905298497E+02 -0.11129010244E+03  0.14263205925E+03  0.00000000000E+00 0. -1.
          3    1    6    6  503    0 -0.57304513902E+03  0.32272049369E+02 -0.39237284230E+03  0.69525438790E+03  0.00000000000E+00 0. -1.
         -3    1    6    6    0  503 -0.10484544473E+03  0.16615999498E+02 -0.12163377580E+03  0.16144173604E+03  0.00000000000E+00 0.  1.
<mgrwt>
<rscale>  0 0.15786381E+04</rscale>
<asrwt>0</asrwt>
<pdfrwt beam="1">  1        2 0.32908251E+00 0.15786381E+04</pdfrwt>
<pdfrwt beam="2">  1       -1 0.44809867E-01 0.15786381E+04</pdfrwt>
<totfact> 0.30192298E+01</totfact>
</mgrwt>
</event>
<event>
12    6  0.1530720E-007  0.1345187E+04  0.7818608E-02  0.8994480E-01
          2   -1    0    0  501    0  0.00000000000E+00  0.00000000000E+00  0.18213739094E+04  0.18213739094E+04  0.00000000000E+00 0. -1.
         -1   -1    0    0    0  501 -0.00000000000E+00 -0.00000000000E+00 -0.24837388760E+03  0.24837388760E+03  0.00000000000E+00 0.  1.
         24    2    1    2    0    0  0.53795281389E+02 -0.88526828540E+01 -0.12369858885E+03  0.15498983867E+03  0.75816930270E+02 0.  0.
        254    2    1    2    0    0 -0.53795281389E+02  0.88526828540E+01  0.16966986107E+04  0.19147579583E+04  0.88574237863E+03 0.  0.
         23    2    4    4    0    0 -0.17112535441E+03  0.38745905972E+03  0.11831449643E+04  0.12596519635E+04  0.86502326892E+02 0.  0.
         23    2    4    4    0    0  0.11733007302E+03 -0.37860637687E+03  0.51355364634E+03  0.65510599489E+03  0.91199683239E+02 0.  0.
          2    1    3    3  502    0 -0.83643408852E-02  0.19423296262E+02 -0.27358917502E+01  0.19615035338E+02  0.00000000000E+00 0. -1.
         -1    1    3    3    0  502  0.53803645730E+02 -0.28275979116E+02 -0.12096269710E+03  0.13537480333E+03  0.00000000000E+00 0.  1.
         11    1    5    5    0    0 -0.13281744292E+03  0.31389130355E+03  0.83758562870E+03  0.90427756192E+03  0.00000000000E+00 0. -1.
        -11    1    5    5    0    0 -0.38307911485E+02  0.73567756166E+02  0.34555933563E+03  0.35537440154E+03  0.00000000000E+00 0.  1.
          3    1    6    6  503    0  0.60848437916E+02 -0.18787312220E+03  0.18255627674E+03  0.26893426078E+03  0.00000000000E+00 0.  1.
         -3    1    6    6    0  503  0.56481635101E+02 -0.19073325466E+03  0.33099736961E+03  0.38617173411E+03  0.00000000000E+00 0. -1.
<mgrwt>
<rscale>  0 0.13451866E+04</rscale>
<asrwt>0</asrwt>
<pdfrwt beam="1">  1        2 0.28021136E+00 0.13451866E+04</pdfrwt>
<pdfrwt beam="2">  1       -1 0.38211368E-01 0.13451866E+04</pdfrwt>
<totfact> 0.61895214E+01</totfact>
</mgrwt>
</event>
<event>
12    6  0.2456790E-007  0.2428511E+04  0.7818608E-02  0.8428906E-01
         -1   -1    0    0    0  501 -0.00000000000E+00  0.00000000000E+00  0.81489337803E+03  0.81489337803E+03  0.00000000000E+00 0.  1.
          2   -1    0    0  501    0  0.00000000000E+00 -0.00000000000E+00 -0.18093369658E+04  0.18093369658E+04  0.00000000000E+00 0. -1.
         24    2    1    2    0    0 -0.24551870574E+03 -0.17132508789E+03 -0.15123186579E+04  0.15437305856E+04  0.79778926537E+02 0.  0.
        254    2    1    2    0    0  0.24551870574E+03  0.17132508789E+03  0.51787507021E+03  0.10804997582E+04  0.89980743412E+03 0.  0.
         23    2    4    4    0    0 -0.21872651294E+03 -0.22639954783E+03  0.14057875725E+03  0.35640018819E+03  0.90336395920E+02 0.  0.
         23    2    4    4    0    0  0.46424521868E+03  0.39772463572E+03  0.37729631296E+03  0.72409957000E+03  0.90879978966E+02 0.  0.
          2    1    3    3  502    0 -0.24219571142E+03 -0.17819554251E+03 -0.14926177352E+04  0.15226030729E+04  0.00000000000E+00 0. -1.
         -1    1    3    3    0  502 -0.33229943146E+01  0.68704546182E+01 -0.19700922711E+02  0.21127512715E+02  0.00000000000E+00 0.  1.
         11    1    5    5    0    0 -0.14758988131E+03 -0.16713670783E+03  0.53512440692E+02  0.22930554611E+03  0.00000000000E+00 0. -1.
        -11    1    5    5    0    0 -0.71136631633E+02 -0.59262840006E+02  0.87066316562E+02  0.12709464208E+03  0.00000000000E+00 0.  1.
          4    1    6    6  503    0  0.43517419895E+03  0.35920592479E+03  0.37128513452E+03  0.67546882308E+03  0.00000000000E+00 0. -1.
         -4    1    6    6    0  503  0.29071019730E+02  0.38518710933E+02  0.60111784381E+01  0.48630746923E+02  0.00000000000E+00 0.  1.
<mgrwt>
<rscale>  0 0.24285112E+04</rscale>
<asrwt>0</asrwt>
<pdfrwt beam="1">  1        2 0.27835953E+00 0.24285112E+04</pdfrwt>
<pdfrwt beam="2">  1       -1 0.12536821E+00 0.24285112E+04</pdfrwt>
<totfact> 0.48372514E+00</totfact>
</mgrwt>
</event>
<event>
12    6  0.1530720E-007  0.1490044E+04  0.7818608E-02  0.8891101E-01
          2   -1    0    0  501    0  0.00000000000E+00  0.00000000000E+00  0.59005831418E+03  0.59005831418E+03  0.00000000000E+00 0. -1.
         -1   -1    0    0    0  501 -0.00000000000E+00 -0.00000000000E+00 -0.94068293296E+03  0.94068293296E+03  0.00000000000E+00 0.  1.
         24    2    1    2    0    0 -0.29020688221E+02  0.14191372393E+03 -0.56350707640E+03  0.58733809468E+03  0.80275194912E+02 0.  0.
        254    2    1    2    0    0  0.29020688221E+02 -0.14191372393E+03  0.21288245763E+03  0.94340315246E+03  0.90758407980E+03 0.  0.
         23    2    4    4    0    0  0.44109656601E+03  0.23422936419E+02  0.23241756897E+02  0.45200222803E+03  0.93010861658E+02 0.  0.
         23    2    4    4    0    0 -0.41207587779E+03 -0.16533666035E+03  0.18964070073E+03  0.49140092442E+03  0.91479685372E+02 0.  0.
          2    1    3    3  502    0  0.26669424629E+02  0.36129524248E+02 -0.12476780335E+03  0.13260318807E+03  0.00000000000E+00 0. -1.
         -1    1    3    3    0  502 -0.55690112850E+02  0.10578419968E+03 -0.43873927305E+03  0.45473490661E+03  0.00000000000E+00 0.  1.
         11    1    5    5    0    0  0.29299716061E+03 -0.19683673938E+02  0.41902988406E+02  0.29663216883E+03  0.00000000000E+00 0.  1.
        -11    1    5    5    0    0  0.14809940540E+03  0.43106610357E+02 -0.18661231509E+02  0.15537005921E+03  0.00000000000E+00 0. -1.
          1    1    6    6  503    0 -0.22151230363E+03 -0.52039418871E+02  0.63100707353E+02  0.23613026287E+03  0.00000000000E+00 0. -1.
         -1    1    6    6    0  503 -0.19056357416E+03 -0.11329724148E+03  0.12653999338E+03  0.25527066155E+03  0.00000000000E+00 0.  1.
<mgrwt>
<rscale>  0 0.14900440E+04</rscale>
<asrwt>0</asrwt>
<pdfrwt beam="1">  1        2 0.90778203E-01 0.14900440E+04</pdfrwt>
<pdfrwt beam="2">  1       -1 0.14472045E+00 0.14900440E+04</pdfrwt>
<totfact> 0.21478122E+01</totfact>
</mgrwt>
</event>
<event>
12    6  0.1530720E-007  0.1648425E+04  0.7818608E-02  0.8791339E-01
         -1   -1    0    0    0  501 -0.00000000000E+00  0.00000000000E+00  0.88011753770E+03  0.88011753770E+03  0.00000000000E+00 0.  1.
          2   -1    0    0  501    0  0.00000000000E+00 -0.00000000000E+00 -0.77185880410E+03  0.77185880410E+03  0.00000000000E+00 0. -1.
         24    2    1    2    0    0  0.13093526193E+03 -0.31240646949E+03 -0.42925605388E+03  0.55248152001E+03  0.78950776827E+02 0.  0.
        254    2    1    2    0    0 -0.13093526193E+03  0.31240646949E+03  0.53751478748E+03  0.10994948218E+04  0.89734322942E+03 0.  0.
         23    2    4    4    0    0 -0.42558548595E+03  0.44216936721E+03  0.30713399886E+03  0.69233330672E+03  0.91418593256E+02 0.  0.
         23    2    4    4    0    0  0.29465022402E+03 -0.12976289771E+03  0.23038078862E+03  0.40716151507E+03  0.95121119900E+02 0.  0.
          2    1    3    3  502    0  0.99808081878E+02 -0.22079622245E+03 -0.35811813476E+03  0.43239012881E+03  0.00000000000E+00 0. -1.
         -1    1    3    3    0  502  0.31127180056E+02 -0.91610247047E+02 -0.71137919125E+02  0.12009139120E+03  0.00000000000E+00 0.  1.
         11    1    5    5    0    0 -0.16130416599E+03  0.16402031706E+03  0.66619438889E+02  0.23949916077E+03  0.00000000000E+00 0.  1.
        -11    1    5    5    0    0 -0.26428131997E+03  0.27814905015E+03  0.24051455997E+03  0.45283414595E+03  0.00000000000E+00 0. -1.
          1    1    6    6  503    0  0.22703408844E+02 -0.11140840509E+02 -0.80462132285E+01  0.26538738622E+02  0.00000000000E+00 0. -1.
         -1    1    6    6    0  503  0.27194681518E+03 -0.11862205720E+03  0.23842700185E+03  0.38062277645E+03  0.00000000000E+00 0.  1.
<mgrwt>
<rscale>  0 0.16484253E+04</rscale>
<asrwt>0</asrwt>
<pdfrwt beam="1">  1        2 0.11874751E+00 0.16484253E+04</pdfrwt>
<pdfrwt beam="2">  1       -1 0.13540270E+00 0.16484253E+04</pdfrwt>
<totfact> 0.18012612E+01</totfact>
</mgrwt>
</event>
<event>
12    6  0.1530720E-007  0.1410528E+04  0.7818608E-02  0.8946233E-01
         -1   -1    0    0    0  501 -0.00000000000E+00  0.00000000000E+00  0.51113405933E+03  0.51113405933E+03  0.00000000000E+00 0.  1.
          2   -1    0    0  501    0  0.00000000000E+00 -0.00000000000E+00 -0.97312539211E+03  0.97312539211E+03  0.00000000000E+00 0. -1.
         24    2    1    2    0    0 -0.43936156243E+02  0.39464680556E+03 -0.25411001795E+03  0.47832618734E+03  0.80916953188E+02 0.  0.
        254    2    1    2    0    0  0.43936156243E+02 -0.39464680556E+03 -0.20788131484E+03  0.10059332641E+04  0.90056127153E+03 0.  0.
         23    2    4    4    0    0 -0.80937136803E+02 -0.64309158440E+03 -0.19147874338E+02  0.65508192110E+03  0.92995033345E+02 0.  0.
         23    2    4    4    0    0  0.12487329305E+03  0.24844477884E+03 -0.18873344050E+03  0.35085134299E+03  0.10078792521E+03 0.  0.
          2    1    3    3  502    0 -0.40704287265E+02  0.35557996349E+03 -0.25443354226E+03  0.43912455735E+03  0.00000000000E+00 0. -1.
         -1    1    3    3    0  502 -0.32318689780E+01  0.39066842071E+02  0.32352431418E+00  0.39201629997E+02  0.00000000000E+00 0.  1.
         11    1    5    5    0    0 -0.31223020537E+02 -0.38824195139E+03 -0.53550615881E+02  0.39315945657E+03  0.00000000000E+00 0.  1.
        -11    1    5    5    0    0 -0.49714116266E+02 -0.25484963301E+03  0.34402741543E+02  0.26192246453E+03  0.00000000000E+00 0. -1.
          3    1    6    6  503    0  0.11866736160E+03  0.16071421945E+03 -0.16667882596E+03  0.26017846580E+03  0.00000000000E+00 0. -1.
         -3    1    6    6    0  503  0.62059314493E+01  0.87730559384E+02 -0.22054614533E+02  0.90672877186E+02  0.00000000000E+00 0.  1.
<mgrwt>
<rscale>  0 0.14105283E+04</rscale>
<asrwt>0</asrwt>
<pdfrwt beam="1">  1        2 0.14971160E+00 0.14105283E+04</pdfrwt>
<pdfrwt beam="2">  1       -1 0.78636009E-01 0.14105283E+04</pdfrwt>
<totfact> 0.47088100E+01</totfact>
</mgrwt>
</event>
<event>
12    6  0.1530720E-007  0.1543148E+04  0.7818608E-02  0.8856256E-01
         -1   -1    0    0    0  501 -0.00000000000E+00  0.00000000000E+00  0.68917058901E+03  0.68917058901E+03  0.00000000000E+00 0.  1.
          2   -1    0    0  501    0  0.00000000000E+00 -0.00000000000E+00 -0.86383009241E+03  0.86383009241E+03  0.00000000000E+00 0. -1.
         24    2    1    2    0    0  0.30401483222E+02  0.30865726729E+03  0.32235190769E+03  0.45423576410E+03  0.78903853891E+02 0.  0.
        254    2    1    2    0    0 -0.30401483222E+02 -0.30865726729E+03 -0.49701141109E+03  0.10987649173E+04  0.92955389405E+03 0.  0.
         23    2    4    4    0    0  0.12044211164E+03 -0.46073478437E+03  0.66022700985E+02  0.48898205620E+03  0.89227856936E+02 0.  0.
         23    2    4    4    0    0 -0.15084359486E+03  0.15207751708E+03 -0.56303411207E+03  0.60978286112E+03  0.94585226365E+02 0.  0.
          2    1    3    3  502    0  0.49625759325E+01  0.14386010652E+03  0.95708391022E+02  0.17285963531E+03  0.00000000000E+00 0. -1.
         -1    1    3    3    0  502  0.25438907290E+02  0.16479716077E+03  0.22664351666E+03  0.28137612878E+03  0.00000000000E+00 0.  1.
         11    1    5    5    0    0  0.67112014780E+02 -0.38586534822E+03  0.41531469586E+02  0.39385397351E+03  0.00000000000E+00 0. -1.
        -11    1    5    5    0    0  0.53330096857E+02 -0.74869436155E+02  0.24491231399E+02  0.95128082690E+02  0.00000000000E+00 0.  1.
          4    1    6    6  503    0 -0.89362428388E+02  0.96039672451E+02 -0.45439311567E+03  0.47295070130E+03  0.00000000000E+00 0. -1.
         -4    1    6    6    0  503 -0.61481166471E+02  0.56037844630E+02 -0.10864099640E+03  0.13683215981E+03  0.00000000000E+00 0.  1.
<mgrwt>
<rscale>  0 0.15431478E+04</rscale>
<asrwt>0</asrwt>
<pdfrwt beam="1">  1        2 0.13289694E+00 0.15431478E+04</pdfrwt>
<pdfrwt beam="2">  1       -1 0.10602624E+00 0.15431478E+04</pdfrwt>
<totfact> 0.28408693E+01</totfact>
</mgrwt>
</event>
<event>
12    6  0.1530720E-007  0.1147096E+04  0.7818608E-02  0.9160467E-01
          2   -1    0    0  501    0  0.00000000000E+00  0.00000000000E+00  0.43051581353E+04  0.43051581353E+04  0.00000000000E+00 0. -1.
         -1   -1    0    0    0  501 -0.00000000000E+00 -0.00000000000E+00 -0.76410012668E+02  0.76410012668E+02  0.00000000000E+00 0.  1.
         24    2    1    2    0    0  0.10015681030E+03  0.16430865690E+03  0.54648078353E+03  0.58484778493E+03  0.79855891430E+02 0.  0.
        254    2    1    2    0    0 -0.10015681030E+03 -0.16430865690E+03  0.36822673391E+04  0.37967203630E+04  0.90496631819E+03 0.  0.
         23    2    4    4    0    0 -0.40131446402E+03 -0.21092627316E+03  0.30895304985E+04  0.31239548272E+04  0.91388564731E+02 0.  0.
         23    2    4    4    0    0  0.30115765372E+03  0.46617616264E+02  0.59273684059E+03  0.67276553577E+03  0.91691708438E+02 0.  0.
          2    1    3    3  502    0 -0.86379344838E+01  0.49176062916E+02  0.13308673615E+03  0.14214421696E+03  0.00000000000E+00 0. -1.
         -1    1    3    3    0  502  0.10879474479E+03  0.11513259398E+03  0.41339404738E+03  0.44270356797E+03  0.00000000000E+00 0.  1.
         11    1    5    5    0    0 -0.39085790204E+02 -0.76975474504E+01  0.14890207268E+03  0.15413882859E+03  0.00000000000E+00 0. -1.
        -11    1    5    5    0    0 -0.36222867381E+03 -0.20322872571E+03  0.29406284258E+04  0.29698159986E+04  0.00000000000E+00 0.  1.
          2    1    6    6  503    0  0.28320556253E+02  0.10340599432E+02  0.16978889404E+02  0.34601511361E+02  0.00000000000E+00 0. -1.
         -2    1    6    6    0  503  0.27283709746E+03  0.36277016831E+02  0.57575795118E+03  0.63816402441E+03  0.00000000000E+00 0.  1.
<mgrwt>
<rscale>  0 0.11470958E+04</rscale>
<asrwt>0</asrwt>
<pdfrwt beam="1">  1        2 0.66233183E+00 0.11470958E+04</pdfrwt>
<pdfrwt beam="2">  1       -1 0.11755390E-01 0.11470958E+04</pdfrwt>
<totfact> 0.10903704E+01</totfact>
</mgrwt>
</event>
<event>
12    6  0.1530720E-007  0.1842797E+04  0.7818608E-02  0.8683866E-01
          2   -1    0    0  501    0  0.00000000000E+00  0.00000000000E+00  0.13549318888E+04  0.13549318888E+04  0.00000000000E+00 0. -1.
         -1   -1    0    0    0  501 -0.00000000000E+00 -0.00000000000E+00 -0.62658132814E+03  0.62658132814E+03  0.00000000000E+00 0.  1.
         24    2    1    2    0    0 -0.20653745220E+02 -0.42203097529E+03  0.87929368450E+03  0.97883668043E+03  0.80169458397E+02 0.  0.
        254    2    1    2    0    0  0.20653745220E+02  0.42203097529E+03 -0.15094312384E+03  0.10026765365E+04  0.89668260211E+03 0.  0.
         23    2    4    4    0    0 -0.25492551379E+03  0.39276613357E+03 -0.39648049997E+03  0.62023448508E+03  0.90784229693E+02 0.  0.
         23    2    4    4    0    0  0.27557925901E+03  0.29264841724E+02  0.24553737613E+03  0.38244205143E+03  0.95775574489E+02 0.  0.
          4    1    3    3  502    0 -0.46529185839E+01 -0.40819968610E+03  0.84684308793E+03  0.94010204178E+03  0.00000000000E+00 0. -1.
         -3    1    3    3    0  502 -0.16000826636E+02 -0.13831289191E+02  0.32450596570E+02  0.38734638651E+02  0.00000000000E+00 0.  1.
         11    1    5    5    0    0 -0.32736239021E+02  0.67460496241E+02 -0.11004994635E+03  0.13316745319E+03  0.00000000000E+00 0. -1.
        -11    1    5    5    0    0 -0.22218927477E+03  0.32530563733E+03 -0.28643055362E+03  0.48706703188E+03  0.00000000000E+00 0.  1.
          4    1    6    6  503    0  0.74368087680E+02  0.20259317613E+02  0.12750689773E+03  0.14899349444E+03  0.00000000000E+00 0. -1.
         -4    1    6    6    0  503  0.20121117133E+03  0.90055241116E+01  0.11803047840E+03  0.23344855700E+03  0.00000000000E+00 0.  1.
<mgrwt>
<rscale>  0 0.18427968E+04</rscale>
<asrwt>0</asrwt>
<pdfrwt beam="1">  1        2 0.20845106E+00 0.18427968E+04</pdfrwt>
<pdfrwt beam="2">  1       -1 0.96397128E-01 0.18427968E+04</pdfrwt>
<totfact> 0.17067923E+01</totfact>
</mgrwt>
</event>
<event>
12    6  0.1530720E-007  0.1607889E+04  0.7818608E-02  0.8815716E-01
         -3   -1    0    0    0  501 -0.00000000000E+00  0.00000000000E+00  0.70960849396E+03  0.70960849396E+03  0.00000000000E+00 0.  1.
          2   -1    0    0  501    0  0.00000000000E+00 -0.00000000000E+00 -0.91082182099E+03  0.91082182099E+03  0.00000000000E+00 0. -1.
         24    2    1    2    0    0 -0.88796311763E+02 -0.19364624426E+03 -0.64915215954E+03  0.68790092453E+03  0.80159234266E+02 0.  0.
        254    2    1    2    0    0  0.88796311763E+02  0.19364624426E+03  0.44793883251E+03  0.93252939042E+03  0.78966968628E+03 0.  0.
         23    2    4    4    0    0 -0.20050937368E+03  0.24206398739E+03  0.52135899687E+03  0.61616441257E+03  0.95102033493E+02 0.  0.
         23    2    4    4    0    0  0.28930568544E+03 -0.48417743130E+02 -0.73420164362E+02  0.31636497785E+03  0.93028066728E+02 0.  0.
          4    1    3    3  502    0 -0.86847814305E+02 -0.19521580036E+03 -0.65075236544E+03  0.68493094008E+03  0.00000000000E+00 0. -1.
         -3    1    3    3    0  502 -0.19484974580E+01  0.15695561004E+01  0.16002058998E+01  0.29699844474E+01  0.00000000000E+00 0.  1.
         11    1    5    5    0    0 -0.73151632478E+02  0.12792604732E+03  0.16717797343E+03  0.22285580476E+03  0.00000000000E+00 0.  1.
        -11    1    5    5    0    0 -0.12735774120E+03  0.11413794007E+03  0.35418102344E+03  0.39330860781E+03  0.00000000000E+00 0. -1.
          4    1    6    6  503    0  0.25421804247E+03 -0.90216338557E+01 -0.68134439383E+02  0.26334484014E+03  0.00000000000E+00 0. -1.
         -4    1    6    6    0  503  0.35087642967E+02 -0.39396109275E+02 -0.52857249795E+01  0.53020137717E+02  0.00000000000E+00 0.  1.
<mgrwt>
<rscale>  0 0.16078892E+04</rscale>
<asrwt>0</asrwt>
<pdfrwt beam="1">  1        2 0.14012643E+00 0.16078892E+04</pdfrwt>
<pdfrwt beam="2">  1       -3 0.10917054E+00 0.16078892E+04</pdfrwt>
<totfact> 0.12415648E+01</totfact>
</mgrwt>
</event>
<event>
12    6  0.1530720E-007  0.4477108E+04  0.7818608E-02  0.7914657E-01
         -1   -1    0    0    0  501 -0.00000000000E+00  0.00000000000E+00  0.27238881684E+04  0.27238881684E+04  0.00000000000E+00 0.  1.
          2   -1    0    0  501    0  0.00000000000E+00 -0.00000000000E+00 -0.18396954693E+04  0.18396954693E+04  0.00000000000E+00 0. -1.
         24    2    1    2    0    0  0.11616978767E+04 -0.16268198307E+04  0.12208430488E+04  0.23437056743E+04  0.80086325067E+02 0.  0.
        254    2    1    2    0    0 -0.11616978767E+04  0.16268198307E+04 -0.33665034973E+03  0.22198779634E+04  0.90467673566E+03 0.  0.
         23    2    4    4    0    0  0.77238988813E+02  0.48504404511E+03  0.23437123133E+01  0.49876559749E+03  0.86764285080E+02 0.  0.
         23    2    4    4    0    0 -0.12389368655E+04  0.11417757856E+04 -0.33899406204E+03  0.17211123659E+04  0.93243233706E+02 0.  0.
          4    1    3    3  502    0  0.54909908195E+02 -0.80667250723E+02  0.80584867370E+02  0.12655522196E+03  0.00000000000E+00 0. -1.
         -3    1    3    3    0  502  0.11067879685E+04 -0.15461525800E+04  0.11402581814E+04  0.22171504523E+04  0.00000000000E+00 0.  1.
         11    1    5    5    0    0  0.42207741332E+02  0.42901229069E+03  0.15608479649E+02  0.43136604367E+03  0.00000000000E+00 0. -1.
        -11    1    5    5    0    0  0.35031247481E+02  0.56031754416E+02 -0.13264767336E+02  0.67399553822E+02  0.00000000000E+00 0.  1.
          1    1    6    6  503    0 -0.15606240414E+03  0.13403628771E+03 -0.11440795336E+02  0.20603905505E+03  0.00000000000E+00 0. -1.
         -1    1    6    6    0  503 -0.10828744614E+04  0.10077394979E+04 -0.32755326671E+03  0.15150733108E+04  0.00000000000E+00 0.  1.
<mgrwt>
<rscale>  0 0.44771083E+04</rscale>
<asrwt>0</asrwt>
<pdfrwt beam="1">  1        2 0.28303007E+00 0.44771083E+04</pdfrwt>
<pdfrwt beam="2">  1       -1 0.41905972E+00 0.44771083E+04</pdfrwt>
<totfact> 0.37522566E-02</totfact>
</mgrwt>
</event>
<event>
12    6  0.1530720E-007  0.1106992E+04  0.7818608E-02  0.9198403E-01
          2   -1    0    0  501    0  0.00000000000E+00  0.00000000000E+00  0.92523509681E+03  0.92523509681E+03  0.00000000000E+00 0. -1.
         -1   -1    0    0    0  501 -0.00000000000E+00 -0.00000000000E+00 -0.33111377260E+03  0.33111377260E+03  0.00000000000E+00 0.  1.
         24    2    1    2    0    0 -0.10177615785E+03 -0.49938144016E+01  0.13261973182E+03  0.18757753741E+03  0.84935356500E+02 0.  0.
        254    2    1    2    0    0  0.10177615785E+03  0.49938144016E+01  0.46150159238E+03  0.10687713320E+04  0.95859538693E+03 0.  0.
         23    2    4    4    0    0  0.50614375386E+02 -0.42505966050E+03  0.12418055569E+02  0.43802163392E+03  0.92039196551E+02 0.  0.
         23    2    4    4    0    0  0.51161782465E+02  0.43005347490E+03  0.44908353681E+03  0.63074969807E+03  0.92766585197E+02 0.  0.
          4    1    3    3  502    0 -0.10073415601E+03 -0.14309612858E+02  0.14175427934E+03  0.17448899941E+03  0.00000000000E+00 0. -1.
         -3    1    3    3    0  502 -0.10420018414E+01  0.93157984564E+01 -0.91345475106E+01  0.13088537999E+02  0.00000000000E+00 0.  1.
         11    1    5    5    0    0 -0.20267210297E+02 -0.48024101578E+02 -0.12396900979E+02  0.53579448480E+02  0.00000000000E+00 0. -1.
        -11    1    5    5    0    0  0.70881585683E+02 -0.37703555892E+03  0.24814956548E+02  0.38444218544E+03  0.00000000000E+00 0.  1.
          4    1    6    6  503    0 -0.11668154667E+02  0.33449529604E+02  0.12461507350E+02  0.37554041454E+02  0.00000000000E+00 0. -1.
         -4    1    6    6    0  503  0.62829937132E+02  0.39660394530E+03  0.43662202946E+03  0.59319565662E+03  0.00000000000E+00 0.  1.
<mgrwt>
<rscale>  0 0.11069925E+04</rscale>
<asrwt>0</asrwt>
<pdfrwt beam="1">  1        2 0.14234386E+00 0.11069925E+04</pdfrwt>
<pdfrwt beam="2">  1       -1 0.50940581E-01 0.11069925E+04</pdfrwt>
<totfact> 0.12362873E+02</totfact>
</mgrwt>
</event>
<event>
12    6  0.1530720E-007  0.1702780E+04  0.7818608E-02  0.8759780E-01
         -1   -1    0    0    0  501 -0.00000000000E+00  0.00000000000E+00  0.28334647906E+03  0.28334647906E+03  0.00000000000E+00 0.  1.
          2   -1    0    0  501    0  0.00000000000E+00 -0.00000000000E+00 -0.25582277318E+04  0.25582277318E+04  0.00000000000E+00 0. -1.
         24    2    1    2    0    0 -0.17854901061E+03  0.56615191398E+03 -0.10966345910E+04  0.12498857441E+04  0.84848147805E+02 0.  0.
        254    2    1    2    0    0  0.17854901061E+03 -0.56615191398E+03 -0.11782466618E+04  0.15916884668E+04  0.89039274509E+03 0.  0.
         23    2    4    4    0    0 -0.12687244773E+03 -0.38966429237E+01 -0.85435888831E+03  0.86880928354E+03  0.93747849617E+02 0.  0.
         23    2    4    4    0    0  0.30542145835E+03 -0.56225527106E+03 -0.32388777350E+03  0.72287918330E+03  0.90762143935E+02 0.  0.
          4    1    3    3  502    0 -0.18171796437E+03  0.50210257000E+03 -0.94871534655E+03  0.10886639602E+04  0.00000000000E+00 0. -1.
         -3    1    3    3    0  502  0.31689537508E+01  0.64049343982E+02 -0.14791924443E+03  0.16122178391E+03  0.00000000000E+00 0.  1.
         11    1    5    5    0    0 -0.10181723757E+03 -0.57446031094E+01 -0.36991979463E+03  0.38371917439E+03  0.00000000000E+00 0. -1.
        -11    1    5    5    0    0 -0.25055210163E+02  0.18479601857E+01 -0.48443909368E+03  0.48509010915E+03  0.00000000000E+00 0.  1.
          3    1    6    6  503    0  0.20450955871E+03 -0.28369805555E+03 -0.18555344442E+03  0.39590254743E+03  0.00000000000E+00 0. -1.
         -3    1    6    6    0  503  0.10091189963E+03 -0.27855721551E+03 -0.13833432908E+03  0.32697663587E+03  0.00000000000E+00 0.  1.
<mgrwt>
<rscale>  0 0.17027799E+04</rscale>
<asrwt>0</asrwt>
<pdfrwt beam="1">  1        2 0.39357349E+00 0.17027799E+04</pdfrwt>
<pdfrwt beam="2">  1       -1 0.43591767E-01 0.17027799E+04</pdfrwt>
<totfact> 0.18159617E+01</totfact>
</mgrwt>
</event>
<event>
12    6  0.1530720E-007  0.2410119E+04  0.7818608E-02  0.8435725E-01
         -1   -1    0    0    0  501 -0.00000000000E+00  0.00000000000E+00  0.37365977163E+03  0.37365977163E+03  0.00000000000E+00 0.  1.
          2   -1    0    0  501    0  0.00000000000E+00 -0.00000000000E+00 -0.38863382248E+04  0.38863382248E+04  0.00000000000E+00 0. -1.
         24    2    1    2    0    0  0.16018316274E+03  0.31211624861E+03 -0.32662462538E+04  0.32859658641E+04  0.78306264352E+02 0.  0.
        254    2    1    2    0    0 -0.16018316274E+03 -0.31211624861E+03 -0.24643219930E+03  0.97403213229E+03  0.87460537822E+03 0.  0.
         23    2    4    4    0    0  0.14857704179E+03 -0.18923720958E+03  0.25713260697E+03  0.36369318969E+03  0.90937889931E+02 0.  0.
         23    2    4    4    0    0 -0.30876020453E+03 -0.12287903904E+03 -0.50356480628E+03  0.61033894260E+03  0.92217073222E+02 0.  0.
          2    1    3    3  502    0  0.16496561342E+03  0.28782464398E+03 -0.31256826033E+04  0.31432385236E+04  0.00000000000E+00 0. -1.
         -1    1    3    3    0  502 -0.47824506839E+01  0.24291604632E+02 -0.14056365048E+03  0.14272734050E+03  0.00000000000E+00 0.  1.
         11    1    5    5    0    0  0.39142446175E+02 -0.38503795021E+01  0.22699444816E+02  0.45411686930E+02  0.00000000000E+00 0. -1.
        -11    1    5    5    0    0  0.10943459562E+03 -0.18538683007E+03  0.23443316216E+03  0.31828150276E+03  0.00000000000E+00 0.  1.
          1    1    6    6  503    0 -0.35011292263E+02 -0.47453453996E+02 -0.63898391980E+02  0.86951856678E+02  0.00000000000E+00 0. -1.
         -1    1    6    6    0  503 -0.27374891227E+03 -0.75425585039E+02 -0.43966641430E+03  0.52338708592E+03  0.00000000000E+00 0.  1.
<mgrwt>
<rscale>  0 0.24101189E+04</rscale>
<asrwt>0</asrwt>
<pdfrwt beam="1">  1        2 0.59789816E+00 0.24101189E+04</pdfrwt>
<pdfrwt beam="2">  1       -1 0.57486121E-01 0.24101189E+04</pdfrwt>
<totfact> 0.13246470E+00</totfact>
</mgrwt>
</event>
<event>
12    6  0.1530720E-007  0.1979915E+04  0.7818608E-02  0.8616069E-01
         -1   -1    0    0    0  501 -0.00000000000E+00  0.00000000000E+00  0.79171695024E+03  0.79171695024E+03  0.00000000000E+00 0.  1.
          2   -1    0    0  501    0  0.00000000000E+00 -0.00000000000E+00 -0.12378359586E+04  0.12378359586E+04  0.00000000000E+00 0. -1.
         24    2    1    2    0    0  0.59377502941E+03  0.31560370280E+03  0.30523225115E+03  0.74269994744E+03  0.79132812469E+02 0.  0.
        254    2    1    2    0    0 -0.59377502941E+03 -0.31560370280E+03 -0.75135125947E+03  0.12868529614E+04  0.79955446736E+03 0.  0.
         23    2    4    4    0    0 -0.30451422075E+03  0.24632174314E+03 -0.34672030874E+03  0.53111456032E+03  0.92002129911E+02 0.  0.
         23    2    4    4    0    0 -0.28926080866E+03 -0.56192544594E+03 -0.40463095073E+03  0.75573840103E+03  0.89343731095E+02 0.  0.
          2    1    3    3  502    0  0.15706327944E+03  0.77279532422E+02  0.11810232282E+03  0.21116145135E+03  0.00000000000E+00 0. -1.
         -1    1    3    3    0  502  0.43671174997E+03  0.23832417038E+03  0.18712992833E+03  0.53153849609E+03  0.00000000000E+00 0.  1.
         11    1    5    5    0    0 -0.23396439068E+03  0.23221217246E+03 -0.27181294685E+03  0.42725180774E+03  0.00000000000E+00 0.  1.
        -11    1    5    5    0    0 -0.70549830071E+02  0.14109570684E+02 -0.74907361887E+02  0.10386275258E+03  0.00000000000E+00 0. -1.
          3    1    6    6  503    0 -0.40346935107E+02 -0.90979644867E+02 -0.28096362742E+02  0.10341458578E+03  0.00000000000E+00 0. -1.
         -3    1    6    6    0  503 -0.24891387355E+03 -0.47094580107E+03 -0.37653458799E+03  0.65232381525E+03  0.00000000000E+00 0.  1.
<mgrwt>
<rscale>  0 0.19799149E+04</rscale>
<asrwt>0</asrwt>
<pdfrwt beam="1">  1        2 0.19043630E+00 0.19799149E+04</pdfrwt>
<pdfrwt beam="2">  1       -1 0.12180261E+00 0.19799149E+04</pdfrwt>
<totfact> 0.11386630E+01</totfact>
</mgrwt>
</event>
<event>
12    6  0.1530720E-007  0.1455071E+04  0.7818608E-02  0.8914892E-01
         -1   -1    0    0    0  501 -0.00000000000E+00  0.00000000000E+00  0.24626046135E+03  0.24626046135E+03  0.00000000000E+00 0.  1.
          2   -1    0    0  501    0  0.00000000000E+00 -0.00000000000E+00 -0.21493832560E+04  0.21493832560E+04  0.00000000000E+00 0. -1.
         24    2    1    2    0    0  0.27344410037E+02  0.43364423565E+03 -0.77523079195E+03  0.89196921785E+03  0.76362719548E+02 0.  0.
        254    2    1    2    0    0 -0.27344410037E+02 -0.43364423565E+03 -0.11278920027E+04  0.15036744995E+04  0.89448398018E+03 0.  0.
         23    2    4    4    0    0 -0.45058042267E+03 -0.19143608202E+03 -0.56435340355E+03  0.75267850579E+03  0.91431275727E+02 0.  0.
         23    2    4    4    0    0  0.42323601264E+03 -0.24220815364E+03 -0.56353859913E+03  0.75099599369E+03  0.92874742297E+02 0.  0.
          4    1    3    3  502    0  0.36409808110E+02  0.32110424196E+03 -0.62965090165E+03  0.70773855785E+03  0.00000000000E+00 0. -1.
         -3    1    3    3    0  502 -0.90653980727E+01  0.11253999369E+03 -0.14557989030E+03  0.18423066000E+03  0.00000000000E+00 0.  1.
         11    1    5    5    0    0 -0.34253359773E+03 -0.15685936724E+03 -0.37255050421E+03  0.52983771558E+03  0.00000000000E+00 0. -1.
        -11    1    5    5    0    0 -0.10804682494E+03 -0.34576714781E+02 -0.19180289934E+03  0.22284079021E+03  0.00000000000E+00 0.  1.
          3    1    6    6  503    0  0.38058069638E+03 -0.19901962823E+03 -0.52815723305E+03  0.68073529488E+03  0.00000000000E+00 0. -1.
         -3    1    6    6    0  503  0.42655316260E+02 -0.43188525408E+02 -0.35381366081E+02  0.70260698814E+02  0.00000000000E+00 0.  1.
<mgrwt>
<rscale>  0 0.14550713E+04</rscale>
<asrwt>0</asrwt>
<pdfrwt beam="1">  1        2 0.33067436E+00 0.14550713E+04</pdfrwt>
<pdfrwt beam="2">  1       -1 0.37886224E-01 0.14550713E+04</pdfrwt>
<totfact> 0.40984174E+01</totfact>
</mgrwt>
</event>
<event>
12    6  0.1530720E-007  0.1706704E+04  0.7818608E-02  0.8757550E-01
         -1   -1    0    0    0  501 -0.00000000000E+00  0.00000000000E+00  0.12544972884E+04  0.12544972884E+04  0.00000000000E+00 0.  1.
          2   -1    0    0  501    0  0.00000000000E+00 -0.00000000000E+00 -0.58047946684E+03  0.58047946684E+03  0.00000000000E+00 0. -1.
         24    2    1    2    0    0 -0.13848688220E+03 -0.36179927196E+03 -0.27648649446E+03  0.48243109457E+03  0.78852074519E+02 0.  0.
        254    2    1    2    0    0  0.13848688220E+03  0.36179927196E+03  0.95050431598E+03  0.13525456606E+04  0.88082006090E+03 0.  0.
         23    2    4    4    0    0 -0.17289122181E+02  0.51699020481E+03  0.98059286574E+03  0.11125767169E+04  0.93202988580E+02 0.  0.
         23    2    4    4    0    0  0.15577600438E+03 -0.15519093284E+03 -0.30088549758E+02  0.23996894372E+03  0.91265458676E+02 0.  0.
          2    1    3    3  502    0 -0.54454488561E+02 -0.20632815916E+03 -0.11199180944E+03  0.24099536503E+03  0.00000000000E+00 0. -1.
         -1    1    3    3    0  502 -0.84032393638E+02 -0.15547111281E+03 -0.16449468502E+03  0.24143572954E+03  0.00000000000E+00 0.  1.
         11    1    5    5    0    0 -0.11489187022E+02  0.49994017501E+03  0.97091858876E+03  0.10921332730E+04  0.00000000000E+00 0.  1.
        -11    1    5    5    0    0 -0.57999351588E+01  0.17050029798E+02  0.96742769775E+01  0.20443443912E+02  0.00000000000E+00 0. -1.
          4    1    6    6  503    0  0.81587529377E+02 -0.36019170617E+02  0.19129645761E+02  0.91213205999E+02  0.00000000000E+00 0. -1.
         -4    1    6    6    0  503  0.74188475003E+02 -0.11917176223E+03 -0.49218195519E+02  0.14875573772E+03  0.00000000000E+00 0.  1.
<mgrwt>
<rscale>  0 0.17067043E+04</rscale>
<asrwt>0</asrwt>
<pdfrwt beam="1">  1        2 0.89304534E-01 0.17067043E+04</pdfrwt>
<pdfrwt beam="2">  1       -1 0.19299958E+00 0.17067043E+04</pdfrwt>
<totfact> 0.94402436E+00</totfact>
</mgrwt>
</event>
<event>
12    6  0.1530720E-007  0.1682645E+04  0.7818608E-02  0.8771325E-01
          2   -1    0    0  501    0  0.00000000000E+00  0.00000000000E+00  0.13883831597E+04  0.13883831597E+04  0.00000000000E+00 0. -1.
         -1   -1    0    0    0  501 -0.00000000000E+00 -0.00000000000E+00 -0.50981844370E+03  0.50981844370E+03  0.00000000000E+00 0.  1.
         24    2    1    2    0    0 -0.34470819830E+02  0.11905045582E+03 -0.34075324175E+03  0.37149946905E+03  0.80856881545E+02 0.  0.
        254    2    1    2    0    0  0.34470819830E+02 -0.11905045582E+03  0.12193179577E+04  0.15267021343E+04  0.91034162624E+03 0.  0.
         23    2    4    4    0    0 -0.76584873160E+01 -0.37374098396E+03  0.11902092512E+04  0.12512177219E+04  0.95951812682E+02 0.  0.
         23    2    4    4    0    0  0.42129307145E+02  0.25469052814E+03  0.29108706519E+02  0.27548441245E+03  0.91663520905E+02 0.  0.
          2    1    3    3  502    0 -0.67861585056E+01  0.35871439381E+02 -0.21576840401E+03  0.21883513493E+03  0.00000000000E+00 0. -1.
         -1    1    3    3    0  502 -0.27684661324E+02  0.83179016439E+02 -0.12498483773E+03  0.15266433412E+03  0.00000000000E+00 0.  1.
         11    1    5    5    0    0  0.44242176802E+02 -0.16408536181E+03  0.52009479097E+03  0.54715625534E+03  0.00000000000E+00 0. -1.
        -11    1    5    5    0    0 -0.51900664118E+02 -0.20965562214E+03  0.67011446023E+03  0.70406146652E+03  0.00000000000E+00 0.  1.
          2    1    6    6  503    0 -0.15587603753E+02  0.39199126133E+01  0.58661229784E+01  0.17109953373E+02  0.00000000000E+00 0. -1.
         -2    1    6    6    0  503  0.57716910898E+02  0.25077061552E+03  0.23242583541E+02  0.25837445908E+03  0.00000000000E+00 0.  1.
<mgrwt>
<rscale>  0 0.16826448E+04</rscale>
<asrwt>0</asrwt>
<pdfrwt beam="1">  1        2 0.21359741E+00 0.16826448E+04</pdfrwt>
<pdfrwt beam="2">  1       -1 0.78433607E-01 0.16826448E+04</pdfrwt>
<totfact> 0.25963301E+01</totfact>
</mgrwt>
</event>
<event>
12    6  0.1530720E-007  0.3216180E+04  0.7818608E-02  0.8184557E-01
         -1   -1    0    0    0  501 -0.00000000000E+00  0.00000000000E+00  0.11632839692E+04  0.11632839692E+04  0.00000000000E+00 0.  1.
          2   -1    0    0  501    0  0.00000000000E+00 -0.00000000000E+00 -0.22229776038E+04  0.22229776038E+04  0.00000000000E+00 0. -1.
         24    2    1    2    0    0  0.13652684943E+04 -0.43842627653E+03 -0.87935139884E+03  0.16840287957E+04  0.80736859957E+02 0.  0.
        254    2    1    2    0    0 -0.13652684943E+04  0.43842627653E+03 -0.18034223572E+03  0.17022327774E+04  0.89938726079E+03 0.  0.
         23    2    4    4    0    0 -0.13385987815E+04  0.59996189318E+03 -0.26858934712E+03  0.14940685023E+04  0.91101488985E+02 0.  0.
         23    2    4    4    0    0 -0.26669712834E+02 -0.16153561665E+03  0.88247111402E+02  0.20816427503E+03  0.93486810288E+02 0.  0.
          2    1    3    3  502    0  0.93345163453E+03 -0.31780975313E+03 -0.56509927129E+03  0.11365175668E+04  0.00000000000E+00 0. -1.
         -1    1    3    3    0  502  0.43181685976E+03 -0.12061652340E+03 -0.31425212755E+03  0.54751122889E+03  0.00000000000E+00 0.  1.
         11    1    5    5    0    0 -0.42304064338E+03  0.22845686003E+03 -0.63695881723E+02  0.48498771963E+03  0.00000000000E+00 0. -1.
        -11    1    5    5    0    0 -0.91555813808E+03  0.37150503315E+03 -0.20489346540E+03  0.10090807827E+04  0.00000000000E+00 0.  1.
          1    1    6    6  503    0 -0.15772191926E+02 -0.13098986154E+03  0.21123261057E+02  0.13361623412E+03  0.00000000000E+00 0. -1.
         -1    1    6    6    0  503 -0.10897520908E+02 -0.30545755110E+02  0.67123850345E+02  0.74548040901E+02  0.00000000000E+00 0.  1.
<mgrwt>
<rscale>  0 0.32161805E+04</rscale>
<asrwt>0</asrwt>
<pdfrwt beam="1">  1        2 0.34199655E+00 0.32161805E+04</pdfrwt>
<pdfrwt beam="2">  1       -1 0.17896677E+00 0.32161805E+04</pdfrwt>
<totfact> 0.10144959E+00</totfact>
</mgrwt>
</event>
<event>
12    6  0.1530720E-007  0.1918968E+04  0.7818608E-02  0.8645472E-01
         -1   -1    0    0    0  501 -0.00000000000E+00  0.00000000000E+00  0.34487242237E+03  0.34487242237E+03  0.00000000000E+00 0.  1.
          2   -1    0    0  501    0  0.00000000000E+00 -0.00000000000E+00 -0.26694192028E+04  0.26694192028E+04  0.00000000000E+00 0. -1.
         24    2    1    2    0    0 -0.46128410949E+03  0.30828646133E+03 -0.12708187590E+03  0.57469725507E+03  0.79394961424E+02 0.  0.
        254    2    1    2    0    0  0.46128410949E+03 -0.30828646133E+03 -0.21974649045E+04  0.24395943701E+04  0.90274310412E+03 0.  0.
         23    2    4    4    0    0  0.10989295864E+02  0.65838643133E+02  0.44457150112E+02  0.12099234719E+03  0.90593699173E+02 0.  0.
         23    2    4    4    0    0  0.45029481363E+03 -0.37412510446E+03 -0.22419220546E+04  0.23186020229E+04  0.83461539334E+02 0.  0.
          2    1    3    3  502    0 -0.44418894785E+02  0.61932827986E+02 -0.19579675531E+02  0.78689752129E+02  0.00000000000E+00 0. -1.
         -1    1    3    3    0  502 -0.41686521471E+03  0.24635363335E+03 -0.10750220037E+03  0.49600750295E+03  0.00000000000E+00 0.  1.
         11    1    5    5    0    0  0.10721006304E+02 -0.22022328731E+02  0.69513666735E+01  0.25460644876E+02  0.00000000000E+00 0.  1.
        -11    1    5    5    0    0  0.26828955988E+00  0.87860971864E+02  0.37505783438E+02  0.95531702316E+02  0.00000000000E+00 0. -1.
          2    1    6    6  503    0  0.21082158906E+03 -0.16711510946E+03 -0.87048571456E+03  0.91110843563E+03  0.00000000000E+00 0. -1.
         -2    1    6    6    0  503  0.23947322457E+03 -0.20700999501E+03 -0.13714363401E+04  0.14074935872E+04  0.00000000000E+00 0.  1.
<mgrwt>
<rscale>  0 0.19189675E+04</rscale>
<asrwt>0</asrwt>
<pdfrwt beam="1">  1        2 0.41067987E+00 0.19189675E+04</pdfrwt>
<pdfrwt beam="2">  1       -1 0.53057297E-01 0.19189675E+04</pdfrwt>
<totfact> 0.10573670E+01</totfact>
</mgrwt>
</event>
<event>
12    6  0.1530720E-007  0.1151283E+04  0.7818608E-02  0.9156601E-01
         -1   -1    0    0    0  501 -0.00000000000E+00  0.00000000000E+00  0.17441326979E+04  0.17441326979E+04  0.00000000000E+00 0.  1.
          2   -1    0    0  501    0  0.00000000000E+00 -0.00000000000E+00 -0.18998719601E+03  0.18998719601E+03  0.00000000000E+00 0. -1.
         24    2    1    2    0    0 -0.74278193826E+02 -0.19066798661E+03  0.27076324957E+03  0.34863039095E+03  0.79742592023E+02 0.  0.
        254    2    1    2    0    0  0.74278193826E+02  0.19066798661E+03  0.12833822523E+04  0.15854895029E+04  0.90820450736E+03 0.  0.
         23    2    4    4    0    0 -0.88736166331E+02 -0.18185796552E+03 -0.14035745133E+02  0.22271905300E+03  0.91980147798E+02 0.  0.
         23    2    4    4    0    0  0.16301436016E+03  0.37252595213E+03  0.12974179975E+04  0.13627704499E+04  0.92198549406E+02 0.  0.
          2    1    3    3  502    0 -0.51017650857E+02 -0.15394461665E+03  0.15244199218E+03  0.22257651870E+03  0.00000000000E+00 0. -1.
         -1    1    3    3    0  502 -0.23260542970E+02 -0.36723369953E+02  0.11832125739E+03  0.12605387225E+03  0.00000000000E+00 0.  1.
         11    1    5    5    0    0 -0.80047959701E+02 -0.14272272719E+03 -0.47615643151E+02  0.17042506324E+03  0.00000000000E+00 0.  1.
        -11    1    5    5    0    0 -0.86882066296E+01 -0.39135238332E+02  0.33579898018E+02  0.52293989757E+02  0.00000000000E+00 0. -1.
          4    1    6    6  503    0  0.18948657714E+02  0.24638031368E+02  0.20354325369E+03  0.20590274486E+03  0.00000000000E+00 0. -1.
         -4    1    6    6    0  503  0.14406570244E+03  0.34788792076E+03  0.10938747438E+04  0.11568677051E+04  0.00000000000E+00 0.  1.
<mgrwt>
<rscale>  0 0.11512826E+04</rscale>
<asrwt>0</asrwt>
<pdfrwt beam="1">  1        2 0.29228801E-01 0.11512826E+04</pdfrwt>
<pdfrwt beam="2">  1       -1 0.26832810E+00 0.11512826E+04</pdfrwt>
<totfact> 0.11090226E+01</totfact>
</mgrwt>
</event>
<event>
12    6  0.1530720E-007  0.1932692E+04  0.7818608E-02  0.8638752E-01
         -1   -1    0    0    0  501 -0.00000000000E+00  0.00000000000E+00  0.75206185598E+03  0.75206185598E+03  0.00000000000E+00 0.  1.
          2   -1    0    0  501    0  0.00000000000E+00 -0.00000000000E+00 -0.12416860225E+04  0.12416860225E+04  0.00000000000E+00 0. -1.
         24    2    1    2    0    0 -0.25187979711E+03  0.38888941363E+03  0.42642078443E+03  0.63480742807E+03  0.80420004481E+02 0.  0.
        254    2    1    2    0    0  0.25187979711E+03 -0.38888941363E+03 -0.91604495091E+03  0.13589404504E+04  0.89045066530E+03 0.  0.
         23    2    4    4    0    0  0.34975771681E+03 -0.55784770803E+03 -0.92965085114E+03  0.11428731846E+04  0.91563557870E+02 0.  0.
         23    2    4    4    0    0 -0.97877919700E+02  0.16895829441E+03  0.13605900231E+02  0.21606726581E+03  0.91503827352E+02 0.  0.
          2    1    3    3  502    0 -0.17843333614E+02  0.19717902261E+01  0.19093700525E+02  0.26207668933E+02  0.00000000000E+00 0. -1.
         -1    1    3    3    0  502 -0.23403646349E+03  0.38691762340E+03  0.40732708390E+03  0.60859975914E+03  0.00000000000E+00 0.  1.
         11    1    5    5    0    0  0.31254435335E+03 -0.46177135019E+03 -0.82711303069E+03  0.99751326719E+03  0.00000000000E+00 0. -1.
        -11    1    5    5    0    0  0.37213363454E+02 -0.96076357846E+02 -0.10253782045E+03  0.14535991737E+03  0.00000000000E+00 0.  1.
          2    1    6    6  503    0 -0.57536846940E+02  0.16087921000E+03 -0.49591922406E+01  0.17093040266E+03  0.00000000000E+00 0. -1.
         -2    1    6    6    0  503 -0.40341072760E+02  0.80790844027E+01  0.18565092471E+02  0.45136863146E+02  0.00000000000E+00 0.  1.
<mgrwt>
<rscale>  0 0.19326921E+04</rscale>
<asrwt>0</asrwt>
<pdfrwt beam="1">  1        2 0.19102862E+00 0.19326921E+04</pdfrwt>
<pdfrwt beam="2">  1       -1 0.11570182E+00 0.19326921E+04</pdfrwt>
<totfact> 0.12887985E+01</totfact>
</mgrwt>
</event>
<event>
12    6  0.1530720E-007  0.1721576E+04  0.7818608E-02  0.8749154E-01
          2   -1    0    0  501    0  0.00000000000E+00  0.00000000000E+00  0.14973683328E+04  0.14973683328E+04  0.00000000000E+00 0. -1.
         -1   -1    0    0    0  501 -0.00000000000E+00 -0.00000000000E+00 -0.49483859946E+03  0.49483859946E+03  0.00000000000E+00 0.  1.
         24    2    1    2    0    0 -0.51934622637E+03 -0.12979816869E+03  0.73407321246E+03  0.91193579755E+03  0.78710546696E+02 0.  0.
        254    2    1    2    0    0  0.51934622637E+03  0.12979816869E+03  0.26845652085E+03  0.10802711347E+04  0.89908217277E+03 0.  0.
         23    2    4    4    0    0 -0.16068069020E+03  0.26495376267E+03 -0.26026774540E+02  0.32159249736E+03  0.82009516571E+02 0.  0.
         23    2    4    4    0    0  0.68002691657E+03 -0.13515559398E+03  0.29448329539E+03  0.75867863732E+03  0.90383746358E+02 0.  0.
          2    1    3    3  502    0 -0.47254084403E+02 -0.35523216753E+02  0.93661785079E+02  0.11075819340E+03  0.00000000000E+00 0. -1.
         -1    1    3    3    0  502 -0.47209214197E+03 -0.94274951938E+02  0.64041142738E+03  0.80117760415E+03  0.00000000000E+00 0.  1.
         11    1    5    5    0    0 -0.16723293921E+02  0.90580648118E+02 -0.25106685955E+02  0.95471818107E+02  0.00000000000E+00 0.  1.
        -11    1    5    5    0    0 -0.14395739628E+03  0.17437311455E+03 -0.92008858502E+00  0.22612067925E+03  0.00000000000E+00 0. -1.
          1    1    6    6  503    0  0.40834700900E+03 -0.65659785154E+02  0.12985416354E+03  0.43349808642E+03  0.00000000000E+00 0. -1.
         -1    1    6    6    0  503  0.27167990758E+03 -0.69495808825E+02  0.16462913185E+03  0.32518055089E+03  0.00000000000E+00 0.  1.
<mgrwt>
<rscale>  0 0.17215756E+04</rscale>
<asrwt>0</asrwt>
<pdfrwt beam="1">  1        2 0.23036436E+00 0.17215756E+04</pdfrwt>
<pdfrwt beam="2">  1       -1 0.76129016E-01 0.17215756E+04</pdfrwt>
<totfact> 0.23889742E+01</totfact>
</mgrwt>
</event>
<event>
12    6  0.1530720E-007  0.1286647E+04  0.7818608E-02  0.9040222E-01
         -1   -1    0    0    0  501 -0.00000000000E+00  0.00000000000E+00  0.34318376559E+03  0.34318376559E+03  0.00000000000E+00 0.  1.
          2   -1    0    0  501    0  0.00000000000E+00 -0.00000000000E+00 -0.12059580282E+04  0.12059580282E+04  0.00000000000E+00 0. -1.
         24    2    1    2    0    0 -0.11944704464E+03  0.13393857454E+03 -0.52418243809E+03  0.55981733938E+03  0.80131684401E+02 0.  0.
        254    2    1    2    0    0  0.11944704464E+03 -0.13393857454E+03 -0.33859182450E+03  0.98932445439E+03  0.91209172467E+03 0.  0.
         23    2    4    4    0    0  0.48662947554E+03 -0.18445731677E+03 -0.10354975984E+03  0.53897469536E+03  0.94543224539E+02 0.  0.
         23    2    4    4    0    0 -0.36718243090E+03  0.50518742227E+02 -0.23504206466E+03  0.45034975903E+03  0.10097055225E+03 0.  0.
          4    1    3    3  502    0 -0.11806529104E+03  0.13492197818E+03 -0.52692609037E+03  0.55659182338E+03  0.00000000000E+00 0. -1.
         -3    1    3    3    0  502 -0.13817535933E+01 -0.98340363487E+00  0.27436522719E+01  0.32255160038E+01  0.00000000000E+00 0.  1.
         11    1    5    5    0    0  0.36692173423E+03 -0.12348378391E+03 -0.36584553164E+02  0.38886788691E+03  0.00000000000E+00 0. -1.
        -11    1    5    5    0    0  0.11970774130E+03 -0.60973532861E+02 -0.66965206678E+02  0.15010680845E+03  0.00000000000E+00 0.  1.
          1    1    6    6  503    0 -0.27843058430E+03  0.50602924739E+02 -0.22399550917E+03  0.36091305656E+03  0.00000000000E+00 0. -1.
         -1    1    6    6    0  503 -0.88751846596E+02 -0.84182512511E-01 -0.11046555495E+02  0.89436702473E+02  0.00000000000E+00 0.  1.
<mgrwt>
<rscale>  0 0.12866471E+04</rscale>
<asrwt>0</asrwt>
<pdfrwt beam="1">  1        2 0.18553201E+00 0.12866471E+04</pdfrwt>
<pdfrwt beam="2">  1       -1 0.52797502E-01 0.12866471E+04</pdfrwt>
<totfact> 0.75968323E+01</totfact>
</mgrwt>
</event>
<event>
12    6  0.1530720E-007  0.1062382E+04  0.7818608E-02  0.9242653E-01
         -1   -1    0    0    0  501 -0.00000000000E+00  0.00000000000E+00  0.18007622981E+03  0.18007622981E+03  0.00000000000E+00 0.  1.
          2   -1    0    0  501    0  0.00000000000E+00 -0.00000000000E+00 -0.15669132720E+04  0.15669132720E+04  0.00000000000E+00 0. -1.
         24    2    1    2    0    0  0.16427558091E+02  0.10172895119E+03 -0.36547047636E+03  0.38787714000E+03  0.79128771460E+02 0.  0.
        254    2    1    2    0    0 -0.16427558091E+02 -0.10172895119E+03 -0.10213665658E+04  0.13591123618E+04  0.89071774768E+03 0.  0.
         23    2    4    4    0    0 -0.36792235951E+03 -0.13682561480E+03 -0.88025319001E+03  0.96820427709E+03  0.92118033893E+02 0.  0.
         23    2    4    4    0    0  0.35149480141E+03  0.35096663607E+02 -0.14111337580E+03  0.39090808469E+03  0.90087594214E+02 0.  0.
          2    1    3    3  502    0 -0.81333685249E+01  0.38251041783E+02 -0.25601850283E+03  0.25898796820E+03  0.00000000000E+00 0. -1.
         -1    1    3    3    0  502  0.24560926616E+02  0.63477909406E+02 -0.10945197352E+03  0.12888917180E+03  0.00000000000E+00 0.  1.
         11    1    5    5    0    0 -0.14582391750E+03 -0.10072181453E+03 -0.42129882350E+03  0.45705819927E+03  0.00000000000E+00 0. -1.
        -11    1    5    5    0    0 -0.22209844201E+03 -0.36103800269E+02 -0.45895436651E+03  0.51114607782E+03  0.00000000000E+00 0.  1.
          1    1    6    6  503    0  0.17567378349E+03  0.62717441912E+02 -0.75047118623E+02  0.20106423287E+03  0.00000000000E+00 0. -1.
         -1    1    6    6    0  503  0.17582101792E+03 -0.27620778305E+02 -0.66066257180E+02  0.18984385182E+03  0.00000000000E+00 0.  1.
<mgrwt>
<rscale>  0 0.10623819E+04</rscale>
<asrwt>0</asrwt>
<pdfrwt beam="1">  1        2 0.24106357E+00 0.10623819E+04</pdfrwt>
<pdfrwt beam="2">  1       -1 0.27704037E-01 0.10623819E+04</pdfrwt>
<totfact> 0.15466232E+02</totfact>
</mgrwt>
</event>
<event>
12    6  0.1530720E-007  0.1569385E+04  0.7818608E-02  0.8839580E-01
          2   -1    0    0  501    0  0.00000000000E+00  0.00000000000E+00  0.19761520151E+03  0.19761520151E+03  0.00000000000E+00 0. -1.
         -3   -1    0    0    0  501 -0.00000000000E+00 -0.00000000000E+00 -0.31158643957E+04  0.31158643957E+04  0.00000000000E+00 0.  1.
         24    2    1    2    0    0  0.49226799771E+03  0.94685854608E+02 -0.90853523747E+03  0.10406679907E+04  0.79122667008E+02 0.  0.
        254    2    1    2    0    0 -0.49226799771E+03 -0.94685854608E+02 -0.20097139567E+04  0.22728116065E+04  0.93564374546E+03 0.  0.
         23    2    4    4    0    0  0.20589998634E+03  0.18043487623E+03 -0.74769957870E+03  0.80166288165E+03  0.93043897621E+02 0.  0.
         23    2    4    4    0    0 -0.69816798405E+03 -0.27512073084E+03 -0.12620143780E+04  0.14711487249E+04  0.92023529490E+02 0.  0.
          2    1    3    3  502    0  0.48672274946E+03  0.96937389688E+02 -0.90785040788E+03  0.10346440235E+04  0.00000000000E+00 0. -1.
         -1    1    3    3    0  502  0.55452482433E+01 -0.22515350799E+01 -0.68482959116E+00  0.60239671202E+01  0.00000000000E+00 0.  1.
         11    1    5    5    0    0  0.81689138354E+02  0.16564640109E+02 -0.22847895278E+03  0.24320800663E+03  0.00000000000E+00 0. -1.
        -11    1    5    5    0    0  0.12421084799E+03  0.16387023613E+03 -0.51922062592E+03  0.55845487501E+03  0.00000000000E+00 0.  1.
          2    1    6    6  503    0 -0.86405008076E+02 -0.35235491420E+01 -0.15603587876E+03  0.17839685053E+03  0.00000000000E+00 0. -1.
         -2    1    6    6    0  503 -0.61176297597E+03 -0.27159718170E+03 -0.11059784992E+04  0.12927518744E+04  0.00000000000E+00 0.  1.
<mgrwt>
<rscale>  0 0.15693848E+04</rscale>
<asrwt>0</asrwt>
<pdfrwt beam="1">  1        2 0.30402343E-01 0.15693848E+04</pdfrwt>
<pdfrwt beam="2">  1       -3 0.47936369E+00 0.15693848E+04</pdfrwt>
<totfact> 0.41046576E-01</totfact>
</mgrwt>
</event>
<event>
12    6  0.1530720E-007  0.1242890E+04  0.7818608E-02  0.9076122E-01
          2   -1    0    0  501    0  0.00000000000E+00  0.00000000000E+00  0.65318135259E+03  0.65318135259E+03  0.00000000000E+00 0. -1.
         -1   -1    0    0    0  501 -0.00000000000E+00 -0.00000000000E+00 -0.59125067570E+03  0.59125067570E+03  0.00000000000E+00 0.  1.
         24    2    1    2    0    0  0.14790738305E+03 -0.46640704446E+02  0.25481084996E+03  0.30961739532E+03  0.82960309523E+02 0.  0.
        254    2    1    2    0    0 -0.14790738305E+03  0.46640704446E+02 -0.19288017307E+03  0.93481463297E+03  0.90145642578E+03 0.  0.
         23    2    4    4    0    0 -0.44766609475E+03  0.30106604979E+02 -0.35596985877E+03  0.58104224692E+03  0.97898990293E+02 0.  0.
         23    2    4    4    0    0  0.29975871170E+03  0.16534099467E+02  0.16308968571E+03  0.35377238604E+03  0.91804105880E+02 0.  0.
          2    1    3    3  502    0  0.15405038414E+03 -0.33381237518E+02  0.24710058555E+03  0.29309474109E+03  0.00000000000E+00 0. -1.
         -1    1    3    3    0  502 -0.61430010956E+01 -0.13259466928E+02  0.77102644098E+01  0.16522654234E+02  0.00000000000E+00 0.  1.
         11    1    5    5    0    0 -0.39982989802E+03  0.32164163136E+02 -0.27287052124E+03  0.48513585943E+03  0.00000000000E+00 0. -1.
        -11    1    5    5    0    0 -0.47836196727E+02 -0.20575581573E+01 -0.83099337538E+02  0.95906387494E+02  0.00000000000E+00 0.  1.
          2    1    6    6  503    0  0.12048259503E+03 -0.20276522950E+02  0.10685351786E+03  0.16231102047E+03  0.00000000000E+00 0.  1.
         -2    1    6    6    0  503  0.17927611668E+03  0.36810622417E+02  0.56236167849E+02  0.19146136558E+03  0.00000000000E+00 0. -1.
<mgrwt>
<rscale>  0 0.12428900E+04</rscale>
<asrwt>0</asrwt>
<pdfrwt beam="1">  1        2 0.10048944E+00 0.12428900E+04</pdfrwt>
<pdfrwt beam="2">  1       -1 0.90961642E-01 0.12428900E+04</pdfrwt>
<totfact> 0.59308108E+01</totfact>
</mgrwt>
</event>
<event>
12    6  0.1530720E-007  0.3772983E+04  0.7818608E-02  0.8051978E-01
         -1   -1    0    0    0  501 -0.00000000000E+00  0.00000000000E+00  0.14958280002E+04  0.14958280002E+04  0.00000000000E+00 0.  1.
          2   -1    0    0  501    0  0.00000000000E+00 -0.00000000000E+00 -0.23791837634E+04  0.23791837634E+04  0.00000000000E+00 0. -1.
         24    2    1    2    0    0  0.71905257848E+03 -0.10421411078E+04 -0.17011856351E+04  0.21221418008E+04  0.79740570233E+02 0.  0.
        254    2    1    2    0    0 -0.71905257848E+03  0.10421411078E+04  0.81782987190E+03  0.17528699627E+04  0.89476963943E+03 0.  0.
         23    2    4    4    0    0 -0.34950722016E+03  0.58694950090E+02 -0.72412032320E+02  0.37283711833E+03  0.90352754635E+02 0.  0.
         23    2    4    4    0    0 -0.36954535832E+03  0.98344615769E+03  0.89024190422E+03  0.13800328444E+04  0.90718722503E+02 0.  0.
          2    1    3    3  502    0  0.62294132355E+03 -0.87552334144E+03 -0.14815041064E+04  0.18301506580E+04  0.00000000000E+00 0. -1.
         -1    1    3    3    0  502  0.96111254936E+02 -0.16661776634E+03 -0.21968152878E+03  0.29199114280E+03  0.00000000000E+00 0.  1.
         11    1    5    5    0    0 -0.77376699982E+02  0.50910280806E+02 -0.72549105560E+01  0.92906641953E+02  0.00000000000E+00 0.  1.
        -11    1    5    5    0    0 -0.27213052018E+03  0.77846692845E+01 -0.65157121764E+02  0.27993047638E+03  0.00000000000E+00 0. -1.
          2    1    6    6  503    0 -0.24247936493E+03  0.51713380283E+03  0.47789462477E+03  0.74471933292E+03  0.00000000000E+00 0. -1.
         -2    1    6    6    0  503 -0.12706599339E+03  0.46631235486E+03  0.41234727945E+03  0.63531351146E+03  0.00000000000E+00 0.  1.
<mgrwt>
<rscale>  0 0.37729827E+04</rscale>
<asrwt>0</asrwt>
<pdfrwt beam="1">  1        2 0.36602827E+00 0.37729827E+04</pdfrwt>
<pdfrwt beam="2">  1       -1 0.23012738E+00 0.37729827E+04</pdfrwt>
<totfact> 0.35164410E-01</totfact>
</mgrwt>
</event>
<event>
12    6  0.1530720E-007  0.1613508E+04  0.7818608E-02  0.8812292E-01
          2   -1    0    0  501    0  0.00000000000E+00  0.00000000000E+00  0.13843730970E+04  0.13843730970E+04  0.00000000000E+00 0. -1.
         -1   -1    0    0    0  501 -0.00000000000E+00 -0.00000000000E+00 -0.47014214715E+03  0.47014214715E+03  0.00000000000E+00 0.  1.
         24    2    1    2    0    0  0.14013947438E+03 -0.14389511758E+03 -0.26853367557E+03  0.34488602531E+03  0.80567725524E+02 0.  0.
        254    2    1    2    0    0 -0.14013947438E+03  0.14389511758E+03  0.11827646254E+04  0.15096292188E+04  0.91635328452E+03 0.  0.
         23    2    4    4    0    0  0.64749226640E+02 -0.36485435059E+03  0.49565747212E+03  0.62574194090E+03  0.92549918623E+02 0.  0.
         23    2    4    4    0    0 -0.20488870102E+03  0.50874946816E+03  0.68710715330E+03  0.88388727793E+03  0.91296652799E+02 0.  0.
          4    1    3    3  502    0  0.27644839118E+02 -0.69344524419E+02 -0.56813952404E+02  0.93812181429E+02  0.00000000000E+00 0. -1.
         -3    1    3    3    0  502  0.11249463527E+03 -0.74550593157E+02 -0.21171972317E+03  0.25107384388E+03  0.00000000000E+00 0.  1.
         11    1    5    5    0    0  0.41058597272E+02 -0.98206198226E+02  0.20234136828E+03  0.22863135196E+03  0.00000000000E+00 0. -1.
        -11    1    5    5    0    0  0.23690629368E+02 -0.26664815236E+03  0.29331610384E+03  0.39711058894E+03  0.00000000000E+00 0.  1.
          1    1    6    6  503    0 -0.11117399642E+03  0.16064527814E+03  0.23196736241E+03  0.30327449628E+03  0.00000000000E+00 0. -1.
         -1    1    6    6    0  503 -0.93714704602E+02  0.34810419002E+03  0.45513979089E+03  0.58061278165E+03  0.00000000000E+00 0.  1.
<mgrwt>
<rscale>  0 0.16135082E+04</rscale>
<asrwt>0</asrwt>
<pdfrwt beam="1">  1        2 0.21298047E+00 0.16135082E+04</pdfrwt>
<pdfrwt beam="2">  1       -1 0.72329562E-01 0.16135082E+04</pdfrwt>
<totfact> 0.31102153E+01</totfact>
</mgrwt>
</event>
<event>
12    6  0.1530720E-007  0.2629967E+04  0.7818608E-02  0.8358093E-01
         -1   -1    0    0    0  501 -0.00000000000E+00  0.00000000000E+00  0.11496442931E+04  0.11496442931E+04  0.00000000000E+00 0.  1.
          2   -1    0    0  501    0  0.00000000000E+00 -0.00000000000E+00 -0.15041015121E+04  0.15041015121E+04  0.00000000000E+00 0. -1.
         24    2    1    2    0    0 -0.87085853671E+03 -0.76649309013E+03 -0.71306567408E+02  0.11649943669E+04  0.78873316525E+02 0.  0.
        254    2    1    2    0    0  0.87085853671E+03  0.76649309013E+03 -0.28315065160E+03  0.14887514384E+04  0.88898836083E+03 0.  0.
         23    2    4    4    0    0  0.33793507962E+03  0.29582685576E+03 -0.55733115774E+03  0.72132811814E+03  0.89345330023E+02 0.  0.
         23    2    4    4    0    0  0.53292345710E+03  0.47066623437E+03  0.27418050614E+03  0.76742332028E+03  0.90716521407E+02 0.  0.
          4    1    3    3  502    0 -0.26661276782E+03 -0.22686631893E+03 -0.57388710986E+02  0.35474520262E+03  0.00000000000E+00 0. -1.
         -3    1    3    3    0  502 -0.60424576889E+03 -0.53962677120E+03 -0.13917856422E+02  0.81024916424E+03  0.00000000000E+00 0.  1.
         11    1    5    5    0    0  0.11233136477E+03  0.48236677585E+02 -0.16728258394E+03  0.20719212211E+03  0.00000000000E+00 0.  1.
        -11    1    5    5    0    0  0.22560371485E+03  0.24759017817E+03 -0.39004857380E+03  0.51413599602E+03  0.00000000000E+00 0. -1.
          3    1    6    6  503    0  0.46612943421E+03  0.37046586553E+03  0.21315866758E+03  0.63242250476E+03  0.00000000000E+00 0. -1.
         -3    1    6    6    0  503  0.66794022882E+02  0.10020036884E+03  0.61021838561E+02  0.13500081551E+03  0.00000000000E+00 0.  1.
<mgrwt>
<rscale>  0 0.26299671E+04</rscale>
<asrwt>0</asrwt>
<pdfrwt beam="1">  1        2 0.23140023E+00 0.26299671E+04</pdfrwt>
<pdfrwt beam="2">  1       -1 0.17686835E+00 0.26299671E+04</pdfrwt>
<totfact> 0.27817923E+00</totfact>
</mgrwt>
</event>
<event>
12    6  0.1530720E-007  0.2551078E+04  0.7818608E-02  0.8385011E-01
          2   -1    0    0  501    0  0.00000000000E+00  0.00000000000E+00  0.32435177469E+04  0.32435177469E+04  0.00000000000E+00 0. -1.
         -1   -1    0    0    0  501 -0.00000000000E+00 -0.00000000000E+00 -0.50161573208E+03  0.50161573208E+03  0.00000000000E+00 0.  1.
         24    2    1    2    0    0 -0.30804291932E+03 -0.34368991550E+03 -0.28785893013E+03  0.54968182000E+03  0.79209478138E+02 0.  0.
        254    2    1    2    0    0  0.30804291932E+03  0.34368991550E+03  0.30297609449E+04  0.31954516590E+04  0.90468045362E+03 0.  0.
         23    2    4    4    0    0 -0.47443469020E+02 -0.26923320382E+03  0.11093843162E+04  0.11461464911E+04  0.90447870863E+02 0.  0.
         23    2    4    4    0    0  0.35548638834E+03  0.61292311932E+03  0.19203766287E+04  0.20493051678E+04  0.98792470192E+02 0.  0.
          4    1    3    3  502    0 -0.26692011768E+02 -0.71560591844E+02 -0.56408385664E+02  0.94948869243E+02  0.00000000000E+00 0. -1.
         -3    1    3    3    0  502 -0.28135090755E+03 -0.27212932366E+03 -0.23145054446E+03  0.45473295076E+03  0.00000000000E+00 0.  1.
         11    1    5    5    0    0 -0.42924091056E+02 -0.14986580777E+03  0.78819685258E+03  0.80346531745E+03  0.00000000000E+00 0. -1.
        -11    1    5    5    0    0 -0.45193779645E+01 -0.11936739605E+03  0.32118746360E+03  0.34268117368E+03  0.00000000000E+00 0.  1.
          2    1    6    6  503    0  0.28987004750E+03  0.43321121066E+03  0.13202529405E+04  0.14194239762E+04  0.00000000000E+00 0. -1.
         -2    1    6    6    0  503  0.65616340835E+02  0.17971190866E+03  0.60012368826E+03  0.62988119158E+03  0.00000000000E+00 0.  1.
<mgrwt>
<rscale>  0 0.25510778E+04</rscale>
<asrwt>0</asrwt>
<pdfrwt beam="1">  1        2 0.49900272E+00 0.25510778E+04</pdfrwt>
<pdfrwt beam="2">  1       -1 0.77171653E-01 0.25510778E+04</pdfrwt>
<totfact> 0.20655077E+00</totfact>
</mgrwt>
</event>
<event>
12    6  0.1530720E-007  0.2173988E+04  0.7818608E-02  0.8529334E-01
         -1   -1    0    0    0  501 -0.00000000000E+00  0.00000000000E+00  0.29362531078E+03  0.29362531078E+03  0.00000000000E+00 0.  1.
          2   -1    0    0  501    0  0.00000000000E+00 -0.00000000000E+00 -0.40240261656E+04  0.40240261656E+04  0.00000000000E+00 0. -1.
         24    2    1    2    0    0 -0.29500527543E+03  0.11476603889E+03  0.12027024536E+03  0.34870944855E+03  0.83270591284E+02 0.  0.
        254    2    1    2    0    0  0.29500527543E+03 -0.11476603889E+03 -0.38506711002E+04  0.39689420278E+04  0.90809335553E+03 0.  0.
         23    2    4    4    0    0 -0.25733434165E+03 -0.26468628623E+03 -0.15658768523E+04  0.16117815965E+04  0.97927548699E+02 0.  0.
         23    2    4    4    0    0  0.55233961708E+03  0.14992024734E+03 -0.22847942478E+04  0.23571604313E+04  0.91462618922E+02 0.  0.
          2    1    3    3  502    0 -0.56761096254E+02 -0.26837147562E+01 -0.72314577995E+00  0.56829106211E+02  0.00000000000E+00 0. -1.
         -1    1    3    3    0  502 -0.23824417918E+03  0.11744975365E+03  0.12099339114E+03  0.29188034234E+03  0.00000000000E+00 0.  1.
         11    1    5    5    0    0 -0.24613894786E+03 -0.27241325037E+03 -0.14814480054E+04  0.15262639199E+04  0.00000000000E+00 0.  1.
        -11    1    5    5    0    0 -0.11195393795E+02  0.77269641416E+01 -0.84428846934E+02  0.85517676604E+02  0.00000000000E+00 0. -1.
          3    1    6    6  503    0  0.19109782823E+03  0.51123469548E+02 -0.62138326885E+03  0.65211130637E+03  0.00000000000E+00 0. -1.
         -3    1    6    6    0  503  0.36124178885E+03  0.98796777792E+02 -0.16634109790E+04  0.17050491249E+04  0.00000000000E+00 0.  1.
<mgrwt>
<rscale>  0 0.21739880E+04</rscale>
<asrwt>0</asrwt>
<pdfrwt beam="1">  1        2 0.61908088E+00 0.21739880E+04</pdfrwt>
<pdfrwt beam="2">  1       -1 0.45173130E-01 0.21739880E+04</pdfrwt>
<totfact> 0.16706007E+00</totfact>
</mgrwt>
</event>
<event>
12    6  0.1530720E-007  0.1591737E+04  0.7818608E-02  0.8825641E-01
         -1   -1    0    0    0  501 -0.00000000000E+00  0.00000000000E+00  0.69600867174E+03  0.69600867174E+03  0.00000000000E+00 0.  1.
          2   -1    0    0  501    0  0.00000000000E+00 -0.00000000000E+00 -0.91005542194E+03  0.91005542194E+03  0.00000000000E+00 0. -1.
         24    2    1    2    0    0 -0.39789558158E+03 -0.17617338903E+01 -0.38204235709E+03  0.55752258574E+03  0.80938701823E+02 0.  0.
        254    2    1    2    0    0  0.39789558158E+03  0.17617338903E+01  0.16799560688E+03  0.10485415079E+04  0.95545422308E+03 0.  0.
         23    2    4    4    0    0  0.42927303166E+03 -0.27440934521E+02  0.52073912250E+03  0.68135351793E+03  0.89694158623E+02 0.  0.
         23    2    4    4    0    0 -0.31377450082E+02  0.29202668411E+02 -0.35274351562E+03  0.36718799001E+03  0.92529411453E+02 0.  0.
          4    1    3    3  502    0 -0.38434861261E+03 -0.32527408802E+01 -0.33942968792E+03  0.51278353073E+03  0.00000000000E+00 0. -1.
         -3    1    3    3    0  502 -0.13546968965E+02  0.14910069898E+01 -0.42612669164E+02  0.44739055011E+02  0.00000000000E+00 0.  1.
         11    1    5    5    0    0  0.23080345169E+02  0.19332103354E+02  0.28615859023E+02  0.41536730021E+02  0.00000000000E+00 0. -1.
        -11    1    5    5    0    0  0.40619268649E+03 -0.46773037875E+02  0.49212326348E+03  0.63981678791E+03  0.00000000000E+00 0.  1.
          4    1    6    6  503    0 -0.24820609604E+02  0.58574385247E+02 -0.29802951852E+03  0.30474352361E+03  0.00000000000E+00 0.  1.
         -4    1    6    6    0  503 -0.65568404780E+01 -0.29371716836E+02 -0.54713997094E+02  0.62444466408E+02  0.00000000000E+00 0. -1.
<mgrwt>
<rscale>  0 0.15917367E+04</rscale>
<asrwt>0</asrwt>
<pdfrwt beam="1">  1        2 0.14000853E+00 0.15917367E+04</pdfrwt>
<pdfrwt beam="2">  1       -1 0.10707826E+00 0.15917367E+04</pdfrwt>
<totfact> 0.25712268E+01</totfact>
</mgrwt>
</event>
<event>
12    6  0.1530720E-007  0.1401238E+04  0.7818608E-02  0.8952923E-01
          2   -1    0    0  501    0  0.00000000000E+00  0.00000000000E+00  0.75692725257E+03  0.75692725257E+03  0.00000000000E+00 0. -1.
         -1   -1    0    0    0  501 -0.00000000000E+00 -0.00000000000E+00 -0.64849930459E+03  0.64849930459E+03  0.00000000000E+00 0.  1.
         24    2    1    2    0    0  0.46669032362E+02 -0.45725416066E+02 -0.39436713165E+03  0.40782042760E+03  0.80766666346E+02 0.  0.
        254    2    1    2    0    0 -0.46669032362E+02  0.45725416066E+02  0.50279507963E+03  0.99760612955E+03  0.85915440136E+03 0.  0.
         23    2    4    4    0    0  0.34693342896E+03  0.10430162913E+03  0.32392883911E+02  0.37467236404E+03  0.89935796436E+02 0.  0.
         23    2    4    4    0    0 -0.39360246132E+03 -0.58576213063E+02  0.47040219572E+03  0.62293376551E+03  0.91728840530E+02 0.  0.
          4    1    3    3  502    0  0.44834449546E+02 -0.81195858005E+01 -0.87502468260E+02  0.98654637454E+02  0.00000000000E+00 0. -1.
         -3    1    3    3    0  502  0.18345828164E+01 -0.37605830266E+02 -0.30686466339E+03  0.30916579015E+03  0.00000000000E+00 0.  1.
         11    1    5    5    0    0  0.34667733379E+03  0.91664474779E+02  0.38467908952E+02  0.36064848498E+03  0.00000000000E+00 0.  1.
        -11    1    5    5    0    0  0.25609517416E+00  0.12637154350E+02 -0.60750250404E+01  0.14023879066E+02  0.00000000000E+00 0. -1.
          3    1    6    6  503    0  0.30407099401E+01  0.36096559635E+01  0.15475149831E+02  0.16178868792E+02  0.00000000000E+00 0. -1.
         -3    1    6    6    0  503 -0.39664317126E+03 -0.62185869027E+02  0.45492704589E+03  0.60675489672E+03  0.00000000000E+00 0.  1.
<mgrwt>
<rscale>  0 0.14012377E+04</rscale>
<asrwt>0</asrwt>
<pdfrwt beam="1">  1        2 0.11645035E+00 0.14012377E+04</pdfrwt>
<pdfrwt beam="2">  1       -1 0.99769124E-01 0.14012377E+04</pdfrwt>
<totfact> 0.39474458E+01</totfact>
</mgrwt>
</event>
<event>
12    6  0.1530720E-007  0.3545173E+04  0.7818608E-02  0.8103167E-01
          2   -1    0    0  501    0  0.00000000000E+00  0.00000000000E+00  0.16914412171E+04  0.16914412171E+04  0.00000000000E+00 0. -1.
         -1   -1    0    0    0  501 -0.00000000000E+00 -0.00000000000E+00 -0.18576245026E+04  0.18576245026E+04  0.00000000000E+00 0.  1.
         24    2    1    2    0    0  0.45242880884E+03 -0.10594820657E+04  0.11144831337E+04  0.16048190226E+04  0.78596216497E+02 0.  0.
        254    2    1    2    0    0 -0.45242880884E+03  0.10594820657E+04 -0.12806664192E+04  0.19442466971E+04  0.90155125595E+03 0.  0.
         23    2    4    4    0    0 -0.10673690362E+03  0.73288422286E+03 -0.21958290211E+03  0.77790501384E+03  0.91692469427E+02 0.  0.
         23    2    4    4    0    0 -0.34569190521E+03  0.32659784286E+03 -0.10610835171E+04  0.11663416832E+04  0.91025531871E+02 0.  0.
          2    1    3    3  502    0  0.39647561328E+03 -0.89494716428E+03  0.97963712544E+03  0.13848509798E+04  0.00000000000E+00 0. -1.
         -1    1    3    3    0  502  0.55953195559E+02 -0.16453490144E+03  0.13484600825E+03  0.21996804274E+03  0.00000000000E+00 0.  1.
         11    1    5    5    0    0  0.31204274347E+01  0.17303580194E+03 -0.23645653899E+02  0.17467181447E+03  0.00000000000E+00 0.  1.
        -11    1    5    5    0    0 -0.10985733106E+03  0.55984842092E+03 -0.19593724821E+03  0.60323319938E+03  0.00000000000E+00 0. -1.
          1    1    6    6  503    0 -0.12965797999E+03  0.81164550333E+02 -0.41368714866E+03  0.44106227789E+03  0.00000000000E+00 0. -1.
         -1    1    6    6    0  503 -0.21603392522E+03  0.24543329253E+03 -0.64739636846E+03  0.72527940535E+03  0.00000000000E+00 0.  1.
<mgrwt>
<rscale>  0 0.35451729E+04</rscale>
<asrwt>0</asrwt>
<pdfrwt beam="1">  1        2 0.26022173E+00 0.35451729E+04</pdfrwt>
<pdfrwt beam="2">  1       -1 0.28578838E+00 0.35451729E+04</pdfrwt>
<totfact> 0.37716976E-01</totfact>
</mgrwt>
</event>
<event>
12    6  0.1530720E-007  0.1261605E+04  0.7818608E-02  0.9060579E-01
          2   -1    0    0  501    0  0.00000000000E+00  0.00000000000E+00  0.26470593580E+04  0.26470593580E+04  0.00000000000E+00 0. -1.
         -1   -1    0    0    0  501 -0.00000000000E+00 -0.00000000000E+00 -0.15032223940E+03  0.15032223940E+03  0.00000000000E+00 0.  1.
         24    2    1    2    0    0 -0.15494054115E+03  0.12338523815E+03  0.10730280172E+04  0.10938181183E+04  0.76278843640E+02 0.  0.
        254    2    1    2    0    0  0.15494054115E+03 -0.12338523815E+03  0.14237091014E+04  0.17035634791E+04  0.91430325033E+03 0.  0.
         23    2    4    4    0    0  0.39629499654E+03 -0.30736069692E+03  0.12315972407E+04  0.13329280546E+04  0.91351591253E+02 0.  0.
         23    2    4    4    0    0 -0.24135445539E+03  0.18397545878E+03  0.19211186074E+03  0.37063542448E+03  0.91458779109E+02 0.  0.
          2    1    3    3  502    0 -0.13449830339E+03  0.65140306202E+02  0.70700884990E+03  0.72263031140E+03  0.00000000000E+00 0. -1.
         -1    1    3    3    0  502 -0.20442237766E+02  0.58244931945E+02  0.36601916725E+03  0.37118780688E+03  0.00000000000E+00 0.  1.
         11    1    5    5    0    0  0.95452267239E+02 -0.12744099476E+03  0.38145812061E+03  0.41335534380E+03  0.00000000000E+00 0.  1.
        -11    1    5    5    0    0  0.30084272930E+03 -0.17991970216E+03  0.85013912008E+03  0.91957271082E+03  0.00000000000E+00 0. -1.
          1    1    6    6  503    0 -0.12058273768E+03  0.14792239665E+03  0.11972315106E+03  0.22528840395E+03  0.00000000000E+00 0. -1.
         -1    1    6    6    0  503 -0.12077171771E+03  0.36053062130E+02  0.72388709676E+02  0.14534702053E+03  0.00000000000E+00 0.  1.
<mgrwt>
<rscale>  0 0.12616052E+04</rscale>
<asrwt>0</asrwt>
<pdfrwt beam="1">  1        2 0.40723987E+00 0.12616052E+04</pdfrwt>
<pdfrwt beam="2">  1       -1 0.23126500E-01 0.12616052E+04</pdfrwt>
<totfact> 0.51503794E+01</totfact>
</mgrwt>
</event>
<event>
12    6  0.1530720E-007  0.2794944E+04  0.7818608E-02  0.8304840E-01
         -1   -1    0    0    0  501 -0.00000000000E+00  0.00000000000E+00  0.14332751820E+04  0.14332751820E+04  0.00000000000E+00 0.  1.
          2   -1    0    0  501    0  0.00000000000E+00 -0.00000000000E+00 -0.13625628647E+04  0.13625628647E+04  0.00000000000E+00 0. -1.
         24    2    1    2    0    0  0.48385025881E+03 -0.71267770479E+03 -0.86891188906E+03  0.12262434553E+04  0.81514150634E+02 0.  0.
        254    2    1    2    0    0 -0.48385025881E+03  0.71267770479E+03  0.93962420641E+03  0.15695945915E+04  0.91581272567E+03 0.  0.
         23    2    4    4    0    0 -0.33325437809E+03 -0.10037123332E+03  0.53374301142E+03  0.64383637267E+03  0.92254038048E+02 0.  0.
         23    2    4    4    0    0 -0.15059588072E+03  0.81304893811E+03  0.40588119499E+03  0.92575821882E+03  0.92525889432E+02 0.  0.
          2    1    3    3  502    0  0.45359559798E+03 -0.69280091450E+03 -0.84332826390E+03  0.11819156630E+04  0.00000000000E+00 0. -1.
         -1    1    3    3    0  502  0.30254660829E+02 -0.19876790292E+02 -0.25583625151E+02  0.44327792299E+02  0.00000000000E+00 0.  1.
         11    1    5    5    0    0 -0.61219786585E+01 -0.23137215798E+02  0.35066401366E+02  0.42455410519E+02  0.00000000000E+00 0. -1.
        -11    1    5    5    0    0 -0.32713239943E+03 -0.77234017522E+02  0.49867661005E+03  0.60138096215E+03  0.00000000000E+00 0.  1.
          1    1    6    6  503    0  0.15272731268E+01  0.10750188041E+03  0.28182283904E+02  0.11114507628E+03  0.00000000000E+00 0. -1.
         -1    1    6    6    0  503 -0.15212315385E+03  0.70554705769E+03  0.37769891109E+03  0.81461314254E+03  0.00000000000E+00 0.  1.
<mgrwt>
<rscale>  0 0.27949437E+04</rscale>
<asrwt>0</asrwt>
<pdfrwt beam="1">  1        2 0.20962505E+00 0.27949437E+04</pdfrwt>
<pdfrwt beam="2">  1       -1 0.22050388E+00 0.27949437E+04</pdfrwt>
<totfact> 0.16464826E+00</totfact>
</mgrwt>
</event>
<event>
12    6  0.1530720E-007  0.1417604E+04  0.7818608E-02  0.8941174E-01
         -1   -1    0    0    0  501 -0.00000000000E+00  0.00000000000E+00  0.16068582796E+03  0.16068582796E+03  0.00000000000E+00 0.  1.
          2   -1    0    0  501    0  0.00000000000E+00 -0.00000000000E+00 -0.31265992675E+04  0.31265992675E+04  0.00000000000E+00 0. -1.
         24    2    1    2    0    0 -0.18213840992E+03  0.24616576949E+03 -0.16444775619E+04  0.16746523472E+04  0.79887709696E+02 0.  0.
        254    2    1    2    0    0  0.18213840992E+03 -0.24616576949E+03 -0.13214358777E+04  0.16126327483E+04  0.87213509013E+03 0.  0.
         23    2    4    4    0    0 -0.86194412442E+02 -0.35974776650E+03 -0.16329433246E+03  0.41486652914E+03  0.92743009164E+02 0.  0.
         23    2    4    4    0    0  0.26833282237E+03  0.11358199701E+03 -0.11581415452E+04  0.11977662191E+04  0.91916827821E+02 0.  0.
          2    1    3    3  502    0 -0.18355453282E+03  0.21642827553E+03 -0.14084812005E+04  0.14367855641E+04  0.00000000000E+00 0. -1.
         -1    1    3    3    0  502  0.14161228943E+01  0.29737493956E+02 -0.23599636133E+03  0.23786678312E+03  0.00000000000E+00 0.  1.
         11    1    5    5    0    0 -0.48199712435E+02 -0.31888379931E+03 -0.11949811967E+03  0.34393297362E+03  0.00000000000E+00 0. -1.
        -11    1    5    5    0    0 -0.37994700008E+02 -0.40863967189E+02 -0.43796212793E+02  0.70933555516E+02  0.00000000000E+00 0.  1.
          2    1    6    6  503    0  0.78704192952E+02  0.30344984345E+02 -0.19253822767E+03  0.21020498847E+03  0.00000000000E+00 0. -1.
         -2    1    6    6    0  503  0.18962862941E+03  0.83237012667E+02 -0.96560331757E+03  0.98756123065E+03  0.00000000000E+00 0.  1.
<mgrwt>
<rscale>  0 0.14176039E+04</rscale>
<asrwt>0</asrwt>
<pdfrwt beam="1">  1        2 0.48101526E+00 0.14176039E+04</pdfrwt>
<pdfrwt beam="2">  1       -1 0.24720897E-01 0.14176039E+04</pdfrwt>
<totfact> 0.23114448E+01</totfact>
</mgrwt>
</event>
<event>
12    6  0.1530720E-007  0.1613746E+04  0.7818608E-02  0.8812148E-01
         -1   -1    0    0    0  501 -0.00000000000E+00  0.00000000000E+00  0.89580555880E+03  0.89580555880E+03  0.00000000000E+00 0.  1.
          2   -1    0    0  501    0  0.00000000000E+00 -0.00000000000E+00 -0.72676914776E+03  0.72676914776E+03  0.00000000000E+00 0. -1.
         24    2    1    2    0    0 -0.59674974384E+02 -0.28362477751E+03 -0.41998710625E+03  0.51634740622E+03  0.78875582452E+02 0.  0.
        254    2    1    2    0    0  0.59674974384E+02  0.28362477751E+03  0.58902351729E+03  0.11062273003E+04  0.89038532059E+03 0.  0.
         23    2    4    4    0    0  0.38134895124E+03 -0.12173297755E+03  0.27428991731E+03  0.49399815415E+03  0.92483929032E+02 0.  0.
         23    2    4    4    0    0 -0.32167397686E+03  0.40535775506E+03  0.31473359999E+03  0.61222914620E+03  0.89320946681E+02 0.  0.
          4    1    3    3  502    0 -0.44774345301E+02 -0.20907351694E+03 -0.36316863189E+03  0.42143556171E+03  0.00000000000E+00 0. -1.
         -3    1    3    3    0  502 -0.14900629083E+02 -0.74551260570E+02 -0.56818474355E+02  0.94911844507E+02  0.00000000000E+00 0.  1.
         11    1    5    5    0    0  0.13963842184E+03 -0.55263805864E+02  0.51913734761E+02  0.15889623328E+03  0.00000000000E+00 0. -1.
        -11    1    5    5    0    0  0.24171052940E+03 -0.66469171688E+02  0.22237618254E+03  0.33510192087E+03  0.00000000000E+00 0.  1.
          1    1    6    6  503    0 -0.71633754167E+02  0.12620528744E+03  0.12809109812E+03  0.19356264808E+03  0.00000000000E+00 0. -1.
         -1    1    6    6    0  503 -0.25004022269E+03  0.27915246762E+03  0.18664250187E+03  0.41866649812E+03  0.00000000000E+00 0.  1.
<mgrwt>
<rscale>  0 0.16137458E+04</rscale>
<asrwt>0</asrwt>
<pdfrwt beam="1">  1        2 0.11181064E+00 0.16137458E+04</pdfrwt>
<pdfrwt beam="2">  1       -1 0.13781624E+00 0.16137458E+04</pdfrwt>
<totfact> 0.18661160E+01</totfact>
</mgrwt>
</event>
<event>
12    6  0.1530720E-007  0.1149123E+04  0.7818608E-02  0.9158593E-01
          2   -1    0    0  501    0  0.00000000000E+00  0.00000000000E+00  0.14964948648E+04  0.14964948648E+04  0.00000000000E+00 0. -1.
         -1   -1    0    0    0  501 -0.00000000000E+00 -0.00000000000E+00 -0.22059600831E+03  0.22059600831E+03  0.00000000000E+00 0.  1.
         24    2    1    2    0    0  0.83068912692E+00 -0.21062034517E+03  0.13834704546E+03  0.26421107650E+03  0.79410126005E+02 0.  0.
        254    2    1    2    0    0 -0.83068912692E+00  0.21062034517E+03  0.11375518110E+04  0.14528797966E+04  0.87890497825E+03 0.  0.
         23    2    4    4    0    0 -0.42552091587E+03  0.14299838840E+03  0.49641960137E+03  0.67547566947E+03  0.91205101259E+02 0.  0.
         23    2    4    4    0    0  0.42469022674E+03  0.67621956769E+02  0.64113220967E+03  0.77740412715E+03  0.91499447626E+02 0.  0.
          2    1    3    3  502    0  0.29263443008E+01 -0.35204030604E+02  0.65176801227E+02  0.74134355598E+02  0.00000000000E+00 0. -1.
         -1    1    3    3    0  502 -0.20956551739E+01 -0.17541631457E+03  0.73170244232E+02  0.19007672090E+03  0.00000000000E+00 0.  1.
         11    1    5    5    0    0 -0.97177185181E+02  0.26035099094E+02  0.17223998180E+03  0.19946890243E+03  0.00000000000E+00 0.  1.
        -11    1    5    5    0    0 -0.32834373069E+03  0.11696328931E+03  0.32417961956E+03  0.47600676704E+03  0.00000000000E+00 0. -1.
          3    1    6    6  503    0  0.23550327083E+03  0.52261528565E+02  0.43341057022E+03  0.49602195548E+03  0.00000000000E+00 0. -1.
         -3    1    6    6    0  503  0.18918695591E+03  0.15360428203E+02  0.20772163945E+03  0.28138217167E+03  0.00000000000E+00 0.  1.
<mgrwt>
<rscale>  0 0.11491228E+04</rscale>
<asrwt>0</asrwt>
<pdfrwt beam="1">  1        2 0.23022997E+00 0.11491228E+04</pdfrwt>
<pdfrwt beam="2">  1       -1 0.33937848E-01 0.11491228E+04</pdfrwt>
<totfact> 0.11787351E+02</totfact>
</mgrwt>
</event>
<event>
12    6  0.1530720E-007  0.1050218E+04  0.7818608E-02  0.9255119E-01
          4   -1    0    0  501    0  0.00000000000E+00  0.00000000000E+00  0.18931699988E+03  0.18931699988E+03  0.00000000000E+00 0. -1.
         -3   -1    0    0    0  501 -0.00000000000E+00 -0.00000000000E+00 -0.14564966203E+04  0.14564966203E+04  0.00000000000E+00 0.  1.
         24    2    1    2    0    0  0.89064109233E+02  0.36945912612E+02 -0.81080153314E+02  0.14876468353E+03  0.79117152333E+02 0.  0.
        254    2    1    2    0    0 -0.89064109233E+02 -0.36945912612E+02 -0.11860994671E+04  0.14970489367E+04  0.90830950500E+03 0.  0.
         23    2    4    4    0    0 -0.58386437848E+01 -0.15713422758E+03 -0.12849100119E+04  0.12976979625E+04  0.91109867880E+02 0.  0.
         23    2    4    4    0    0 -0.83225465448E+02  0.12018831497E+03  0.98810544785E+02  0.19935097414E+03  0.92766254498E+02 0.  0.
          2    1    3    3  502    0  0.82020644463E+02  0.18588846208E+02 -0.22624288200E+02  0.87090698344E+02  0.00000000000E+00 0. -1.
         -1    1    3    3    0  502  0.70434647700E+01  0.18357066404E+02 -0.58455865114E+02  0.61673985190E+02  0.00000000000E+00 0.  1.
         11    1    5    5    0    0  0.16357811939E+02 -0.13182674455E+03 -0.74578279203E+03  0.75752085218E+03  0.00000000000E+00 0. -1.
        -11    1    5    5    0    0 -0.22196455724E+02 -0.25307483035E+02 -0.53912721988E+03  0.54017711036E+03  0.00000000000E+00 0.  1.
          4    1    6    6  503    0 -0.55815189657E+02  0.13029665849E+03  0.93086319223E+02  0.16958071069E+03  0.00000000000E+00 0. -1.
         -4    1    6    6    0  503 -0.27410275792E+02 -0.10108343518E+02  0.57242255625E+01  0.29770263451E+02  0.00000000000E+00 0.  1.
<mgrwt>
<rscale>  0 0.10502182E+04</rscale>
<asrwt>0</asrwt>
<pdfrwt beam="1">  1        4 0.29125692E-01 0.10502182E+04</pdfrwt>
<pdfrwt beam="2">  1       -3 0.22407641E+00 0.10502182E+04</pdfrwt>
<totfact> 0.27106968E+00</totfact>
</mgrwt>
</event>
<event>
12    6  0.2517550E-007  0.1967369E+04  0.7818608E-02  0.8622031E-01
         -1   -1    0    0    0  501 -0.00000000000E+00  0.00000000000E+00  0.33195042187E+03  0.33195042187E+03  0.00000000000E+00 0.  1.
          2   -1    0    0  501    0  0.00000000000E+00 -0.00000000000E+00 -0.29149981680E+04  0.29149981680E+04  0.00000000000E+00 0. -1.
         24    2    1    2    0    0 -0.62759693707E+03  0.37399201841E+03 -0.14408503227E+04  0.16185855720E+04  0.10010822263E+03 0.  0.
        254    2    1    2    0    0  0.62759693707E+03 -0.37399201841E+03 -0.11421974234E+04  0.16283630178E+04  0.90177780996E+03 0.  0.
         23    2    4    4    0    0 -0.21390099467E+03  0.79148327588E+01 -0.24861958659E+03  0.33964217730E+03  0.87913762690E+02 0.  0.
         23    2    4    4    0    0  0.84149793175E+03 -0.38190685117E+03 -0.89357783678E+03  0.12887208405E+04  0.91369810321E+02 0.  0.
          2    1    3    3  502    0 -0.59675617688E+03  0.37778003904E+03 -0.13838959353E+04  0.15537064241E+04  0.00000000000E+00 0. -1.
         -1    1    3    3    0  502 -0.30840760194E+02 -0.37880206365E+01 -0.56954387429E+02  0.64879147937E+02  0.00000000000E+00 0.  1.
         11    1    5    5    0    0 -0.21876443753E+03  0.14839212846E+02 -0.24818339033E+03  0.33116925672E+03  0.00000000000E+00 0. -1.
        -11    1    5    5    0    0  0.48634428537E+01 -0.69243800873E+01 -0.43619625727E+00  0.84729205802E+01  0.00000000000E+00 0.  1.
          3    1    6    6  503    0  0.78547383822E+03 -0.36863074488E+03 -0.80836419559E+03  0.11858796100E+04  0.00000000000E+00 0. -1.
         -3    1    6    6    0  503  0.56024093529E+02 -0.13276106285E+02 -0.85213641191E+02  0.10284123054E+03  0.00000000000E+00 0.  1.
<mgrwt>
<rscale>  0 0.19673687E+04</rscale>
<asrwt>0</asrwt>
<pdfrwt beam="1">  1        2 0.44846126E+00 0.19673687E+04</pdfrwt>
<pdfrwt beam="2">  1       -1 0.51069296E-01 0.19673687E+04</pdfrwt>
<totfact> 0.80561927E+00</totfact>
</mgrwt>
</event>
<event>
12    6  0.1530720E-007  0.1755693E+04  0.7818608E-02  0.8730223E-01
          2   -1    0    0  501    0  0.00000000000E+00  0.00000000000E+00  0.15262812452E+04  0.15262812452E+04  0.00000000000E+00 0. -1.
         -1   -1    0    0    0  501 -0.00000000000E+00 -0.00000000000E+00 -0.50489685873E+03  0.50489685873E+03  0.00000000000E+00 0.  1.
         24    2    1    2    0    0 -0.92290585918E+02 -0.62832806137E+03  0.65880869936E+03  0.91812934125E+03  0.74959188611E+02 0.  0.
        254    2    1    2    0    0  0.92290585918E+02  0.62832806137E+03  0.36257568712E+03  0.11130487627E+04  0.83910828519E+03 0.  0.
         23    2    4    4    0    0 -0.16460708596E+03  0.21827917202E+03  0.52143457009E+03  0.59563892320E+03  0.90279711239E+02 0.  0.
         23    2    4    4    0    0  0.25689767188E+03  0.41004888935E+03 -0.15885888298E+03  0.51740983948E+03  0.91325198148E+02 0.  0.
          2    1    3    3  502    0 -0.10196955502E+02 -0.22436743627E+03  0.19316326767E+03  0.29623769567E+03  0.00000000000E+00 0. -1.
         -1    1    3    3    0  502 -0.82093630417E+02 -0.40396062510E+03  0.46564543169E+03  0.62189164558E+03  0.00000000000E+00 0.  1.
         11    1    5    5    0    0 -0.11645946524E+02 -0.74722308214E+01  0.40186293494E+02  0.42501770418E+02  0.00000000000E+00 0. -1.
        -11    1    5    5    0    0 -0.15296113944E+03  0.22575140284E+03  0.48124827660E+03  0.55313715278E+03  0.00000000000E+00 0.  1.
          3    1    6    6  503    0  0.48822481161E+02  0.15896470354E+03 -0.50941592466E+02  0.17392083682E+03  0.00000000000E+00 0. -1.
         -3    1    6    6    0  503  0.20807519072E+03  0.25108418582E+03 -0.10791729051E+03  0.34348900266E+03  0.00000000000E+00 0.  1.
<mgrwt>
<rscale>  0 0.17556931E+04</rscale>
<asrwt>0</asrwt>
<pdfrwt beam="1">  1        2 0.23481250E+00 0.17556931E+04</pdfrwt>
<pdfrwt beam="2">  1       -1 0.77676440E-01 0.17556931E+04</pdfrwt>
<totfact> 0.21991643E+01</totfact>
</mgrwt>
</event>
<event>
12    6  0.1530720E-007  0.2016768E+04  0.7818608E-02  0.8598821E-01
          2   -1    0    0  501    0  0.00000000000E+00  0.00000000000E+00  0.12421133716E+04  0.12421133716E+04  0.00000000000E+00 0. -1.
         -1   -1    0    0    0  501 -0.00000000000E+00 -0.00000000000E+00 -0.81863555280E+03  0.81863555280E+03  0.00000000000E+00 0.  1.
         24    2    1    2    0    0  0.23604011967E+03 -0.25312780867E+03  0.90978157322E+03  0.97632907134E+03  0.75679052410E+02 0.  0.
        254    2    1    2    0    0 -0.23604011967E+03  0.25312780867E+03 -0.48630375443E+03  0.10844198530E+04  0.90536536849E+03 0.  0.
         23    2    4    4    0    0 -0.46986818754E+03  0.41896924493E+03 -0.19237550522E+03  0.66462614262E+03  0.91696415370E+02 0.  0.
         23    2    4    4    0    0  0.23382806787E+03 -0.16584143626E+03 -0.29392824922E+03  0.41979371042E+03  0.87487120836E+02 0.  0.
          4    1    3    3  502    0  0.13611493210E+03 -0.18016435857E+03  0.66050097226E+03  0.69803152163E+03  0.00000000000E+00 0. -1.
         -3    1    3    3    0  502  0.99925187571E+02 -0.72963450102E+02  0.24928060096E+03  0.27829754971E+03  0.00000000000E+00 0.  1.
         11    1    5    5    0    0 -0.28875160034E+02  0.20593424025E+02  0.99595760197E+01  0.36838256400E+02  0.00000000000E+00 0. -1.
        -11    1    5    5    0    0 -0.44099302750E+03  0.39837582090E+03 -0.20233508124E+03  0.62778788622E+03  0.00000000000E+00 0.  1.
          1    1    6    6  503    0  0.12592499100E+03 -0.50790153077E+02 -0.17880107662E+03  0.22451407085E+03  0.00000000000E+00 0. -1.
         -1    1    6    6    0  503  0.10790307687E+03 -0.11505128318E+03 -0.11512717260E+03  0.19527963957E+03  0.00000000000E+00 0.  1.
<mgrwt>
<rscale>  0 0.20167679E+04</rscale>
<asrwt>0</asrwt>
<pdfrwt beam="1">  1        2 0.19109436E+00 0.20167679E+04</pdfrwt>
<pdfrwt beam="2">  1       -1 0.12594393E+00 0.20167679E+04</pdfrwt>
<totfact> 0.10386933E+01</totfact>
</mgrwt>
</event>
<event>
12    6  0.1530720E-007  0.1597247E+04  0.7818608E-02  0.8822241E-01
          2   -1    0    0  501    0  0.00000000000E+00  0.00000000000E+00  0.22143671801E+04  0.22143671801E+04  0.00000000000E+00 0. -1.
         -1   -1    0    0    0  501 -0.00000000000E+00 -0.00000000000E+00 -0.28802773602E+03  0.28802773602E+03  0.00000000000E+00 0.  1.
         24    2    1    2    0    0  0.50578594752E+01  0.27235667316E+03 -0.71819169301E+02  0.29266532322E+03  0.79317456977E+02 0.  0.
        254    2    1    2    0    0 -0.50578594752E+01 -0.27235667316E+03  0.19981586134E+04  0.22097295929E+04  0.90336221427E+03 0.  0.
         23    2    4    4    0    0  0.29843649526E+03 -0.46046909055E+03  0.97634094586E+03  0.11235829660E+04  0.90005076500E+02 0.  0.
         23    2    4    4    0    0 -0.30349435474E+03  0.18811241739E+03  0.10218176675E+04  0.10861466269E+04  0.90044681167E+02 0.  0.
          2    1    3    3  502    0  0.21106463097E+02  0.15545130062E+02 -0.35677933052E+01  0.26454923968E+02  0.00000000000E+00 0. -1.
         -1    1    3    3    0  502 -0.16048603622E+02  0.25681154309E+03 -0.68251375996E+02  0.26621039925E+03  0.00000000000E+00 0.  1.
         11    1    5    5    0    0  0.14540653367E+03 -0.23570670094E+03  0.40246521770E+03  0.48854780765E+03  0.00000000000E+00 0.  1.
        -11    1    5    5    0    0  0.15302996160E+03 -0.22476238961E+03  0.57387572816E+03  0.63503515832E+03  0.00000000000E+00 0. -1.
          3    1    6    6  503    0 -0.22870810418E+03  0.16867832554E+03  0.70681536663E+03  0.76180557686E+03  0.00000000000E+00 0. -1.
         -3    1    6    6    0  503 -0.74786250555E+02  0.19434091851E+02  0.31500230089E+03  0.32434105008E+03  0.00000000000E+00 0.  1.
<mgrwt>
<rscale>  0 0.15972466E+04</rscale>
<asrwt>0</asrwt>
<pdfrwt beam="1">  1        2 0.34067186E+00 0.15972466E+04</pdfrwt>
<pdfrwt beam="2">  1       -1 0.44311961E-01 0.15972466E+04</pdfrwt>
<totfact> 0.27930150E+01</totfact>
</mgrwt>
</event>
<event>
12    6  0.1739981E-007  0.1361050E+04  0.7818608E-02  0.8982505E-01
          2   -1    0    0  501    0  0.00000000000E+00  0.00000000000E+00  0.19979170874E+04  0.19979170874E+04  0.00000000000E+00 0. -1.
         -1   -1    0    0    0  501 -0.00000000000E+00 -0.00000000000E+00 -0.23179862155E+03  0.23179862155E+03  0.00000000000E+00 0.  1.
         24    2    1    2    0    0 -0.32868122382E+03  0.62153712964E+02  0.78509876111E+03  0.85719467664E+03  0.80673527431E+02 0.  0.
        254    2    1    2    0    0  0.32868122382E+03 -0.62153712964E+02  0.98101970476E+03  0.13725210323E+04  0.89973323388E+03 0.  0.
         23    2    4    4    0    0 -0.23064671802E+03  0.20141397949E+03  0.45213115437E+03  0.55349669807E+03  0.90390897484E+02 0.  0.
         23    2    4    4    0    0  0.55932794185E+03 -0.26356769246E+03  0.52888855038E+03  0.81902433426E+03  0.93606016637E+02 0.  0.
          2    1    3    3  502    0 -0.30917892075E+03  0.74494757863E+02  0.69706210089E+03  0.76618316771E+03  0.00000000000E+00 0. -1.
         -1    1    3    3    0  502 -0.19502303075E+02 -0.12341044899E+02  0.88036660223E+02  0.91011508930E+02  0.00000000000E+00 0.  1.
         11    1    5    5    0    0 -0.67877927907E+01  0.90223067207E+01 -0.23894942680E+01  0.11540616638E+02  0.00000000000E+00 0. -1.
        -11    1    5    5    0    0 -0.22385892523E+03  0.19239167277E+03  0.45452064864E+03  0.54195608143E+03  0.00000000000E+00 0.  1.
          1    1    6    6  503    0  0.36386621480E+02 -0.14332258963E+02  0.78677947300E+01  0.39891127630E+02  0.00000000000E+00 0. -1.
         -1    1    6    6    0  503  0.52294132037E+03 -0.24923543349E+03  0.52102075565E+03  0.77913320663E+03  0.00000000000E+00 0.  1.
<mgrwt>
<rscale>  0 0.13610502E+04</rscale>
<asrwt>0</asrwt>
<pdfrwt beam="1">  1        2 0.30737185E+00 0.13610502E+04</pdfrwt>
<pdfrwt beam="2">  1       -1 0.35661328E-01 0.13610502E+04</pdfrwt>
<totfact> 0.55922295E+01</totfact>
</mgrwt>
</event>
<event>
12    6  0.1530720E-007  0.1137869E+04  0.7818608E-02  0.9169048E-01
          2   -1    0    0  501    0  0.00000000000E+00  0.00000000000E+00  0.19565144391E+04  0.19565144391E+04  0.00000000000E+00 0. -1.
         -1   -1    0    0    0  501 -0.00000000000E+00 -0.00000000000E+00 -0.16544050256E+03  0.16544050256E+03  0.00000000000E+00 0.  1.
         24    2    1    2    0    0  0.13730688268E+03  0.11808274594E+03  0.48309398440E+03  0.52204329889E+03  0.79703784307E+02 0.  0.
        254    2    1    2    0    0 -0.13730688268E+03 -0.11808274594E+03  0.13079799522E+04  0.15999116428E+04  0.90338751074E+03 0.  0.
         23    2    4    4    0    0 -0.43822397926E+03 -0.19367076113E+03  0.38280834435E+03  0.62004718616E+03  0.91474941090E+02 0.  0.
         23    2    4    4    0    0  0.30091709658E+03  0.75588015194E+02  0.92517160783E+03  0.97986445664E+03  0.89034838075E+02 0.  0.
          4    1    3    3  502    0  0.14055374020E+03  0.84244396255E+02  0.40074736618E+03  0.43295602974E+03  0.00000000000E+00 0. -1.
         -3    1    3    3    0  502 -0.32468575209E+01  0.33838349681E+02  0.82346618215E+02  0.89087269148E+02  0.00000000000E+00 0.  1.
         11    1    5    5    0    0 -0.33967814187E+03 -0.13938804882E+03  0.33764640943E+03  0.49881395933E+03  0.00000000000E+00 0. -1.
        -11    1    5    5    0    0 -0.98545837392E+02 -0.54282712310E+02  0.45161934914E+02  0.12123322683E+03  0.00000000000E+00 0.  1.
          3    1    6    6  503    0  0.29073177821E+03  0.62812705195E+02  0.79768752546E+03  0.85133764810E+03  0.00000000000E+00 0. -1.
         -3    1    6    6    0  503  0.10185318377E+02  0.12775310000E+02  0.12748408237E+03  0.12852680854E+03  0.00000000000E+00 0.  1.
<mgrwt>
<rscale>  0 0.11378695E+04</rscale>
<asrwt>0</asrwt>
<pdfrwt beam="1">  1        2 0.30100221E+00 0.11378695E+04</pdfrwt>
<pdfrwt beam="2">  1       -1 0.25452386E-01 0.11378695E+04</pdfrwt>
<totfact> 0.10842440E+02</totfact>
</mgrwt>
</event>
<event>
12    6  0.1530720E-007  0.1571790E+04  0.7818608E-02  0.8838068E-01
          2   -1    0    0  501    0  0.00000000000E+00  0.00000000000E+00  0.31609410450E+04  0.31609410450E+04  0.00000000000E+00 0. -1.
         -1   -1    0    0    0  501 -0.00000000000E+00 -0.00000000000E+00 -0.19539476086E+03  0.19539476086E+03  0.00000000000E+00 0.  1.
         24    2    1    2    0    0  0.12524195512E+03  0.47886974133E+03  0.13852242319E+04  0.14732785443E+04  0.81864033804E+02 0.  0.
        254    2    1    2    0    0 -0.12524195512E+03 -0.47886974133E+03  0.15803220522E+04  0.18830572615E+04  0.89637329556E+03 0.  0.
         23    2    4    4    0    0 -0.65960357921E+02  0.15829861364E+03  0.20648426982E+02  0.19470465659E+03  0.89857252702E+02 0.  0.
         23    2    4    4    0    0 -0.59281597199E+02 -0.63716835497E+03  0.15596736253E+04  0.16883526050E+04  0.91950426800E+02 0.  0.
          2    1    3    3  502    0  0.81208678251E+02  0.35941312868E+03  0.11205003304E+04  0.11795311089E+04  0.00000000000E+00 0. -1.
         -1    1    3    3    0  502  0.44033276869E+02  0.11945661265E+03  0.26472390151E+03  0.29374743541E+03  0.00000000000E+00 0.  1.
         11    1    5    5    0    0 -0.76027346548E+02  0.15919493183E+03  0.32225380405E+02  0.17933671929E+03  0.00000000000E+00 0.  1.
        -11    1    5    5    0    0  0.10066988627E+02 -0.89631818757E+00 -0.11576953423E+02  0.15367937301E+02  0.00000000000E+00 0. -1.
          4    1    6    6  503    0 -0.97662449524E+01 -0.12843375376E+03  0.41996673950E+03  0.43927516539E+03  0.00000000000E+00 0. -1.
         -4    1    6    6    0  503 -0.49515352246E+02 -0.50873460121E+03  0.11397068858E+04  0.12490774396E+04  0.00000000000E+00 0.  1.
<mgrwt>
<rscale>  0 0.15717905E+04</rscale>
<asrwt>0</asrwt>
<pdfrwt beam="1">  1        2 0.48629859E+00 0.15717905E+04</pdfrwt>
<pdfrwt beam="2">  1       -1 0.30060735E-01 0.15717905E+04</pdfrwt>
<totfact> 0.15420835E+01</totfact>
</mgrwt>
</event>
<event>
12    6  0.1530720E-007  0.1732981E+04  0.7818608E-02  0.8742774E-01
          2   -1    0    0  501    0  0.00000000000E+00  0.00000000000E+00  0.10318788710E+04  0.10318788710E+04  0.00000000000E+00 0. -1.
         -1   -1    0    0    0  501 -0.00000000000E+00 -0.00000000000E+00 -0.72761047995E+03  0.72761047995E+03  0.00000000000E+00 0.  1.
         24    2    1    2    0    0  0.38243673102E+03 -0.53140062252E+02  0.60737663842E+03  0.72539227965E+03  0.90586196638E+02 0.  0.
        254    2    1    2    0    0 -0.38243673102E+03  0.53140062252E+02 -0.30310824734E+03  0.10340970713E+04  0.91016505309E+03 0.  0.
         23    2    4    4    0    0  0.28375716281E+03 -0.57983287366E+02 -0.56530635323E+02  0.30939597387E+03  0.93005198019E+02 0.  0.
         23    2    4    4    0    0 -0.66619389383E+03  0.11112334962E+03 -0.24657761202E+03  0.72470109746E+03  0.90710853258E+02 0.  0.
          2    1    3    3  502    0  0.35262660061E+03 -0.73876046858E+02  0.55172398173E+03  0.65894046906E+03  0.00000000000E+00 0. -1.
         -1    1    3    3    0  502  0.29810130412E+02  0.20735984606E+02  0.55652656692E+02  0.66451810582E+02  0.00000000000E+00 0.  1.
         11    1    5    5    0    0  0.20759468644E+03 -0.12350358018E+02 -0.70353300826E+02  0.21953968234E+03  0.00000000000E+00 0. -1.
        -11    1    5    5    0    0  0.76162476364E+02 -0.45632929348E+02  0.13822665503E+02  0.89856291534E+02  0.00000000000E+00 0.  1.
          2    1    6    6  503    0 -0.24339616914E+03  0.47287222994E+02 -0.45076364585E+02  0.25201122050E+03  0.00000000000E+00 0. -1.
         -2    1    6    6    0  503 -0.42279772469E+03  0.63836126624E+02 -0.20150124743E+03  0.47268987696E+03  0.00000000000E+00 0.  1.
<mgrwt>
<rscale>  0 0.17329811E+04</rscale>
<asrwt>0</asrwt>
<pdfrwt beam="1">  1        2 0.15875060E+00 0.17329811E+04</pdfrwt>
<pdfrwt beam="2">  1       -1 0.11194007E+00 0.17329811E+04</pdfrwt>
<totfact> 0.19055074E+01</totfact>
</mgrwt>
</event>
<event>
12    6  0.1530720E-007  0.1745560E+04  0.7818608E-02  0.8735798E-01
          2   -1    0    0  501    0  0.00000000000E+00  0.00000000000E+00  0.86950886870E+03  0.86950886870E+03  0.00000000000E+00 0. -1.
         -1   -1    0    0    0  501 -0.00000000000E+00 -0.00000000000E+00 -0.87606349934E+03  0.87606349934E+03  0.00000000000E+00 0.  1.
         24    2    1    2    0    0  0.31954584506E+03 -0.54516091980E+03  0.41481807947E+02  0.63813055811E+03  0.78612296946E+02 0.  0.
        254    2    1    2    0    0 -0.31954584506E+03  0.54516091980E+03 -0.48036438583E+02  0.11074418099E+04  0.90819044665E+03 0.  0.
         23    2    4    4    0    0 -0.55912658412E+03  0.11871639397E+03 -0.15444886340E+03  0.59867123828E+03  0.88525029676E+02 0.  0.
         23    2    4    4    0    0  0.23958073906E+03  0.42644452583E+03  0.10641242482E+03  0.50877057165E+03  0.90939684839E+02 0.  0.
          4    1    3    3  502    0  0.35374752267E+02 -0.22708754802E+02  0.36113405952E+01  0.42191260037E+02  0.00000000000E+00 0. -1.
         -1    1    3    3    0  502  0.28417109279E+03 -0.52245216500E+03  0.37870467352E+02  0.59593929807E+03  0.00000000000E+00 0.  1.
         11    1    5    5    0    0 -0.66437133694E+02  0.44661020830E+02 -0.25762197418E+02  0.84096315799E+02  0.00000000000E+00 0. -1.
        -11    1    5    5    0    0 -0.49268945043E+03  0.74055373135E+02 -0.12868666598E+03  0.51457492249E+03  0.00000000000E+00 0.  1.
          2    1    6    6  503    0  0.63404672306E+02  0.61753002449E+02 -0.51908325117E+01  0.88659633001E+02  0.00000000000E+00 0. -1.
         -2    1    6    6    0  503  0.17617606676E+03  0.36469152338E+03  0.11160325733E+03  0.42011093865E+03  0.00000000000E+00 0.  1.
<mgrwt>
<rscale>  0 0.17455601E+04</rscale>
<asrwt>0</asrwt>
<pdfrwt beam="1">  1        2 0.13377060E+00 0.17455601E+04</pdfrwt>
<pdfrwt beam="2">  1       -1 0.13477900E+00 0.17455601E+04</pdfrwt>
<totfact> 0.15401734E+01</totfact>
</mgrwt>
</event>
<event>
12    6  0.1530720E-007  0.1652378E+04  0.7818608E-02  0.8789001E-01
          2   -1    0    0  501    0  0.00000000000E+00  0.00000000000E+00  0.93721763371E+03  0.93721763371E+03  0.00000000000E+00 0. -1.
         -1   -1    0    0    0  501 -0.00000000000E+00 -0.00000000000E+00 -0.72831331169E+03  0.72831331169E+03  0.00000000000E+00 0.  1.
         24    2    1    2    0    0 -0.23466760518E+02 -0.51161719517E+03 -0.17526540094E+03  0.54887050923E+03  0.90763604458E+02 0.  0.
        254    2    1    2    0    0  0.23466760518E+02  0.51161719517E+03  0.38416972295E+03  0.11166604362E+04  0.91489961768E+03 0.  0.
         23    2    4    4    0    0 -0.13107155383E+03 -0.22080503176E+03  0.20723991904E+03  0.34202828600E+03  0.90001945046E+02 0.  0.
         23    2    4    4    0    0  0.15453831435E+03  0.73242222693E+03  0.17692980391E+03  0.77463215017E+03  0.91795443588E+02 0.  0.
          2    1    3    3  502    0  0.24078671471E+02 -0.71620546414E+02 -0.43152838977E+02  0.87014094262E+02  0.00000000000E+00 0. -1.
         -1    1    3    3    0  502 -0.47545431989E+02 -0.43999664876E+03 -0.13211256196E+03  0.46185641497E+03  0.00000000000E+00 0.  1.
         11    1    5    5    0    0 -0.13545651123E+03 -0.22371555616E+03  0.21060194663E+03  0.33578310920E+03  0.00000000000E+00 0. -1.
        -11    1    5    5    0    0  0.43849573988E+01  0.29105244023E+01 -0.33620275968E+01  0.62451767987E+01  0.00000000000E+00 0.  1.
          4    1    6    6  503    0  0.14101140965E+03  0.47154684297E+03  0.99086047823E+02  0.50205446681E+03  0.00000000000E+00 0. -1.
         -4    1    6    6    0  503  0.13526904701E+02  0.26087538395E+03  0.77843756092E+02  0.27257768336E+03  0.00000000000E+00 0.  1.
<mgrwt>
<rscale>  0 0.16523778E+04</rscale>
<asrwt>0</asrwt>
<pdfrwt beam="1">  1        2 0.14418733E+00 0.16523778E+04</pdfrwt>
<pdfrwt beam="2">  1       -1 0.11204820E+00 0.16523778E+04</pdfrwt>
<totfact> 0.22044214E+01</totfact>
</mgrwt>
</event>
<event>
12    6  0.1530720E-007  0.1430876E+04  0.7818608E-02  0.8931767E-01
          2   -1    0    0  501    0  0.00000000000E+00  0.00000000000E+00  0.19194670345E+04  0.19194670345E+04  0.00000000000E+00 0. -1.
         -1   -1    0    0    0  501 -0.00000000000E+00 -0.00000000000E+00 -0.26666339011E+03  0.26666339011E+03  0.00000000000E+00 0.  1.
         24    2    1    2    0    0 -0.72769453822E+02 -0.10857520687E+03  0.11518907288E+04  0.11620420644E+04  0.80034613498E+02 0.  0.
        254    2    1    2    0    0  0.72769453822E+02  0.10857520687E+03  0.50091291556E+03  0.10240883602E+04  0.88360582362E+03 0.  0.
         23    2    4    4    0    0 -0.60791235583E+02 -0.26630974324E+02 -0.23390994100E+03  0.25956536862E+03  0.90859985544E+02 0.  0.
         23    2    4    4    0    0  0.13356068940E+03  0.13520618119E+03  0.73482285656E+03  0.76452299157E+03  0.91714802121E+02 0.  0.
          2    1    3    3  502    0 -0.49713087009E+02 -0.10580346083E+02  0.30763452036E+03  0.31180495965E+03  0.00000000000E+00 0. -1.
         -1    1    3    3    0  502 -0.23056366814E+02 -0.97994860784E+02  0.84425620844E+03  0.85023710474E+03  0.00000000000E+00 0.  1.
         11    1    5    5    0    0 -0.78725577961E+02 -0.41668305370E+02 -0.18234441510E+03  0.20293705925E+03  0.00000000000E+00 0.  1.
        -11    1    5    5    0    0  0.17934342378E+02  0.15037331046E+02 -0.51565525895E+02  0.56628309372E+02  0.00000000000E+00 0. -1.
          3    1    6    6  503    0 -0.65992925116E+01  0.25169655410E+02  0.44279232571E+02  0.51358666768E+02  0.00000000000E+00 0. -1.
         -3    1    6    6    0  503  0.14015998192E+03  0.11003652578E+03  0.69054362399E+03  0.71316432480E+03  0.00000000000E+00 0.  1.
<mgrwt>
<rscale>  0 0.14308761E+04</rscale>
<asrwt>0</asrwt>
<pdfrwt beam="1">  1        2 0.29530261E+00 0.14308761E+04</pdfrwt>
<pdfrwt beam="2">  1       -1 0.41025138E-01 0.14308761E+04</pdfrwt>
<totfact> 0.47655219E+01</totfact>
</mgrwt>
</event>
<event>
12    6  0.1530720E-007  0.1985559E+04  0.7818608E-02  0.8613402E-01
         -1   -1    0    0    0  501 -0.00000000000E+00  0.00000000000E+00  0.64730292528E+03  0.64730292528E+03  0.00000000000E+00 0.  1.
          2   -1    0    0  501    0  0.00000000000E+00 -0.00000000000E+00 -0.15226423570E+04  0.15226423570E+04  0.00000000000E+00 0. -1.
         24    2    1    2    0    0 -0.30003954126E+03  0.11992062761E+03 -0.11278186974E+04  0.11759418755E+04  0.80371619752E+02 0.  0.
        254    2    1    2    0    0  0.30003954126E+03 -0.11992062761E+03  0.25247926562E+03  0.99400340678E+03  0.90547904993E+03 0.  0.
         23    2    4    4    0    0  0.17203971581E+03 -0.29425286948E+03  0.52572889964E+03  0.63336534745E+03  0.92619503457E+02 0.  0.
         23    2    4    4    0    0  0.12799982544E+03  0.17433224187E+03 -0.27324963402E+03  0.36063805933E+03  0.92837284920E+02 0.  0.
          4    1    3    3  502    0 -0.24734842625E+03  0.99256522074E+02 -0.10190816901E+04  0.10533568210E+04  0.00000000000E+00 0. -1.
         -3    1    3    3    0  502 -0.52691115011E+02  0.20664105536E+02 -0.10873700727E+03  0.12258505459E+03  0.00000000000E+00 0.  1.
         11    1    5    5    0    0  0.10227461595E+03 -0.87812131007E+02  0.18465823370E+03  0.22862574372E+03  0.00000000000E+00 0.  1.
        -11    1    5    5    0    0  0.69765099859E+02 -0.20644073847E+03  0.34107066594E+03  0.40473960373E+03  0.00000000000E+00 0. -1.
          4    1    6    6  503    0  0.75429380013E+02  0.33800286629E+02 -0.12385658300E+03  0.14890434479E+03  0.00000000000E+00 0. -1.
         -4    1    6    6    0  503  0.52570445432E+02  0.14053195524E+03 -0.14939305103E+03  0.21173371454E+03  0.00000000000E+00 0.  1.
<mgrwt>
<rscale>  0 0.19855587E+04</rscale>
<asrwt>0</asrwt>
<pdfrwt beam="1">  1        2 0.23425267E+00 0.19855587E+04</pdfrwt>
<pdfrwt beam="2">  1       -1 0.99585066E-01 0.19855587E+04</pdfrwt>
<totfact> 0.12568864E+01</totfact>
</mgrwt>
</event>
<event>
12    6  0.1530720E-007  0.2367185E+04  0.7818608E-02  0.8451892E-01
          2   -1    0    0  501    0  0.00000000000E+00  0.00000000000E+00  0.83113835725E+03  0.83113835725E+03  0.00000000000E+00 0. -1.
         -1   -1    0    0    0  501 -0.00000000000E+00 -0.00000000000E+00 -0.16855087520E+04  0.16855087520E+04  0.00000000000E+00 0.  1.
         24    2    1    2    0    0  0.52256835980E+03 -0.81231535415E+03 -0.68656690794E+03  0.11877227945E+04  0.79858577303E+02 0.  0.
        254    2    1    2    0    0 -0.52256835980E+03  0.81231535415E+03 -0.16780348684E+03  0.13289243147E+04  0.89718888695E+03 0.  0.
         23    2    4    4    0    0 -0.28908246181E+03  0.87237583854E+03 -0.37593323972E+03  0.99738767225E+03  0.94064311168E+02 0.  0.
         23    2    4    4    0    0 -0.23348589799E+03 -0.60060484388E+02  0.20812975287E+03  0.33153664249E+03  0.92063157341E+02 0.  0.
          2    1    3    3  502    0  0.23674302151E+03 -0.41861133627E+03 -0.30568468362E+03  0.56984720310E+03  0.00000000000E+00 0. -1.
         -1    1    3    3    0  502  0.28582533829E+03 -0.39370401788E+03 -0.38088222431E+03  0.61787559144E+03  0.00000000000E+00 0.  1.
         11    1    5    5    0    0 -0.18136672320E+02  0.14687360640E+03 -0.40578083339E+02  0.15345154280E+03  0.00000000000E+00 0. -1.
        -11    1    5    5    0    0 -0.27094578949E+03  0.72550223214E+03 -0.33535515638E+03  0.84393612945E+03  0.00000000000E+00 0.  1.
          4    1    6    6  503    0 -0.31010316247E+02 -0.16505160004E+02 -0.36525030364E+01  0.35318561677E+02  0.00000000000E+00 0. -1.
         -4    1    6    6    0  503 -0.20247558174E+03 -0.43555324384E+02  0.21178225591E+03  0.29621808082E+03  0.00000000000E+00 0.  1.
<mgrwt>
<rscale>  0 0.23671848E+04</rscale>
<asrwt>0</asrwt>
<pdfrwt beam="1">  1        2 0.12786744E+00 0.23671848E+04</pdfrwt>
<pdfrwt beam="2">  1       -1 0.25930904E+00 0.23671848E+04</pdfrwt>
<totfact> 0.20403098E+00</totfact>
</mgrwt>
</event>
<event>
12    6  0.1530720E-007  0.1396305E+04  0.7818608E-02  0.8956498E-01
          2   -1    0    0  501    0  0.00000000000E+00  0.00000000000E+00  0.51375634834E+03  0.51375634834E+03  0.00000000000E+00 0. -1.
         -1   -1    0    0    0  501 -0.00000000000E+00 -0.00000000000E+00 -0.94873111183E+03  0.94873111183E+03  0.00000000000E+00 0.  1.
         24    2    1    2    0    0 -0.24192815121E+03 -0.23273223935E+03 -0.35509858514E+03  0.49504319277E+03  0.79241604947E+02 0.  0.
        254    2    1    2    0    0  0.24192815121E+03  0.23273223935E+03 -0.79876178347E+02  0.96744426740E+03  0.90381119770E+03 0.  0.
         23    2    4    4    0    0  0.13245492456E+02  0.53104919836E+02  0.39150577181E+03  0.40595808897E+03  0.92355969291E+02 0.  0.
         23    2    4    4    0    0  0.22868265875E+03  0.17962731952E+03 -0.47138195015E+03  0.56148617843E+03  0.92217424105E+02 0.  0.
          4    1    3    3  502    0 -0.21239805377E+03 -0.17064976019E+03 -0.31052345773E+03  0.41310905546E+03  0.00000000000E+00 0. -1.
         -3    1    3    3    0  502 -0.29530097436E+02 -0.62082479157E+02 -0.44575127413E+02  0.81934137310E+02  0.00000000000E+00 0.  1.
         11    1    5    5    0    0  0.27862586998E+02  0.27275471769E+02  0.36204994960E+03  0.36414343482E+03  0.00000000000E+00 0.  1.
        -11    1    5    5    0    0 -0.14617094542E+02  0.25829448067E+02  0.29455822203E+02  0.41814654153E+02  0.00000000000E+00 0. -1.
          4    1    6    6  503    0  0.12897856010E+03  0.74804718201E+02 -0.16330239869E+03  0.22113093010E+03  0.00000000000E+00 0. -1.
         -4    1    6    6    0  503  0.99704098653E+02  0.10482260131E+03 -0.30807955147E+03  0.34035524833E+03  0.00000000000E+00 0.  1.
<mgrwt>
<rscale>  0 0.13963046E+04</rscale>
<asrwt>0</asrwt>
<pdfrwt beam="1">  1        2 0.79039440E-01 0.13963046E+04</pdfrwt>
<pdfrwt beam="2">  1       -1 0.14595863E+00 0.13963046E+04</pdfrwt>
<totfact> 0.24934073E+01</totfact>
</mgrwt>
</event>
<event>
12    6  0.1530720E-007  0.1754053E+04  0.7818608E-02  0.8731122E-01
         -1   -1    0    0    0  501 -0.00000000000E+00  0.00000000000E+00  0.40497460203E+03  0.40497460203E+03  0.00000000000E+00 0.  1.
          2   -1    0    0  501    0  0.00000000000E+00 -0.00000000000E+00 -0.18993187227E+04  0.18993187227E+04  0.00000000000E+00 0. -1.
         24    2    1    2    0    0  0.14370251120E+03  0.61394515567E+03 -0.72201144510E+03  0.96199176787E+03  0.80923227124E+02 0.  0.
        254    2    1    2    0    0 -0.14370251120E+03 -0.61394515567E+03 -0.77233267559E+03  0.13423015569E+04  0.89871944563E+03 0.  0.
         23    2    4    4    0    0  0.48996692970E+02  0.21638013871E+03 -0.18427840250E+03  0.30276618492E+03  0.92129217690E+02 0.  0.
         23    2    4    4    0    0 -0.19269920417E+03 -0.83032529438E+03 -0.58805427309E+03  0.10395353720E+04  0.90845383519E+02 0.  0.
          2    1    3    3  502    0  0.10751543855E+03  0.55184834886E+03 -0.66056163091E+03  0.86743174826E+03  0.00000000000E+00 0. -1.
         -1    1    3    3    0  502  0.36187072651E+02  0.62096806808E+02 -0.61449814196E+02  0.94560019604E+02  0.00000000000E+00 0.  1.
         11    1    5    5    0    0  0.56208123538E+02  0.79527370212E+02 -0.44689731861E+02  0.10715002519E+03  0.00000000000E+00 0.  1.
        -11    1    5    5    0    0 -0.72114305676E+01  0.13685276850E+03 -0.13958867064E+03  0.19561615973E+03  0.00000000000E+00 0. -1.
          1    1    6    6  503    0 -0.10832111048E+03 -0.56395017826E+03 -0.35042223366E+03  0.67273249392E+03  0.00000000000E+00 0. -1.
         -1    1    6    6    0  503 -0.84378093696E+02 -0.26637511612E+03 -0.23763203943E+03  0.36680287805E+03  0.00000000000E+00 0.  1.
<mgrwt>
<rscale>  0 0.17540534E+04</rscale>
<asrwt>0</asrwt>
<pdfrwt beam="1">  1        2 0.29220288E+00 0.17540534E+04</pdfrwt>
<pdfrwt beam="2">  1       -1 0.62303785E-01 0.17540534E+04</pdfrwt>
<totfact> 0.21430617E+01</totfact>
</mgrwt>
</event>
<event>
12    6  0.1530720E-007  0.1682235E+04  0.7818608E-02  0.8771562E-01
          2   -1    0    0  501    0  0.00000000000E+00  0.00000000000E+00  0.14880324362E+04  0.14880324362E+04  0.00000000000E+00 0. -1.
         -1   -1    0    0    0  501 -0.00000000000E+00 -0.00000000000E+00 -0.47544552913E+03  0.47544552913E+03  0.00000000000E+00 0.  1.
         24    2    1    2    0    0 -0.63642878654E+02 -0.42530611871E+03 -0.12913712845E+03  0.45414147200E+03  0.68061501890E+02 0.  0.
        254    2    1    2    0    0  0.63642878654E+02  0.42530611871E+03  0.11417240356E+04  0.15093364934E+04  0.88860968161E+03 0.  0.
         23    2    4    4    0    0 -0.14565168737E+03  0.41086131227E+03  0.11941082340E+04  0.12745079097E+04  0.91948384987E+02 0.  0.
         23    2    4    4    0    0  0.20929456602E+03  0.14444806434E+02 -0.52384198389E+02  0.23482858369E+03  0.91583250000E+02 0.  0.
          4    1    3    3  502    0 -0.68204618295E+02 -0.31731260898E+03 -0.74382601315E+02  0.33297437312E+03  0.00000000000E+00 0. -1.
         -3    1    3    3    0  502  0.45617396415E+01 -0.10799350972E+03 -0.54754527131E+02  0.12116709889E+03  0.00000000000E+00 0.  1.
         11    1    5    5    0    0 -0.93273604534E+02  0.15557157461E+03  0.41318023912E+03  0.45124316076E+03  0.00000000000E+00 0. -1.
        -11    1    5    5    0    0 -0.52378082831E+02  0.25528973766E+03  0.78092799483E+03  0.82326474892E+03  0.00000000000E+00 0.  1.
          1    1    6    6  503    0  0.53579442899E+02  0.30303680775E+02  0.16638894863E+02  0.63764587289E+02  0.00000000000E+00 0. -1.
         -1    1    6    6    0  503  0.15571512312E+03 -0.15858874341E+02 -0.69023093253E+02  0.17106399640E+03  0.00000000000E+00 0.  1.
<mgrwt>
<rscale>  0 0.16822347E+04</rscale>
<asrwt>0</asrwt>
<pdfrwt beam="1">  1        2 0.22892806E+00 0.16822347E+04</pdfrwt>
<pdfrwt beam="2">  1       -1 0.73145467E-01 0.16822347E+04</pdfrwt>
<totfact> 0.26373435E+01</totfact>
</mgrwt>
</event>
<event>
12    6  0.1530720E-007  0.2893053E+04  0.7818608E-02  0.8274947E-01
          2   -1    0    0  501    0  0.00000000000E+00  0.00000000000E+00  0.15602338009E+04  0.15602338009E+04  0.00000000000E+00 0. -1.
         -1   -1    0    0    0  501 -0.00000000000E+00 -0.00000000000E+00 -0.13411061605E+04  0.13411061605E+04  0.00000000000E+00 0.  1.
         24    2    1    2    0    0  0.15740493673E+03  0.99355139239E+03 -0.73627636059E+03  0.12491065704E+04  0.79016843249E+02 0.  0.
        254    2    1    2    0    0 -0.15740493673E+03 -0.99355139239E+03  0.95540400095E+03  0.16522333910E+04  0.89730579504E+03 0.  0.
         23    2    4    4    0    0  0.16299515481E+02 -0.18585528055E+03 -0.15908506988E+03  0.26176798194E+03  0.91687280444E+02 0.  0.
         23    2    4    4    0    0 -0.17370445221E+03 -0.80769611183E+03  0.11144890708E+04  0.13904654090E+04  0.93605122434E+02 0.  0.
          4    1    3    3  502    0  0.57378444628E+02  0.60733494110E+03 -0.45076643335E+03  0.75851064200E+03  0.00000000000E+00 0. -1.
         -3    1    3    3    0  502  0.10002649210E+03  0.38621645129E+03 -0.28550992724E+03  0.49059592836E+03  0.00000000000E+00 0.  1.
         11    1    5    5    0    0 -0.30190731956E+02 -0.86930444646E+02 -0.10562822077E+03  0.14009176823E+03  0.00000000000E+00 0.  1.
        -11    1    5    5    0    0  0.46490247436E+02 -0.98924835909E+02 -0.53456849107E+02  0.12167621371E+03  0.00000000000E+00 0. -1.
          1    1    6    6  503    0  0.10440146161E+02 -0.85518977013E+02  0.11331461820E+03  0.14234709263E+03  0.00000000000E+00 0. -1.
         -1    1    6    6    0  503 -0.18414459837E+03 -0.72217713482E+03  0.10011744526E+04  0.12481183164E+04  0.00000000000E+00 0.  1.
<mgrwt>
<rscale>  0 0.28930532E+04</rscale>
<asrwt>0</asrwt>
<pdfrwt beam="1">  1        2 0.24003597E+00 0.28930532E+04</pdfrwt>
<pdfrwt beam="2">  1       -1 0.20632403E+00 0.28930532E+04</pdfrwt>
<totfact> 0.15719867E+00</totfact>
</mgrwt>
</event>
<event>
12    6  0.1530720E-007  0.1372442E+04  0.7818608E-02  0.8974011E-01
         -1   -1    0    0    0  501 -0.00000000000E+00  0.00000000000E+00  0.80550627944E+03  0.80550627944E+03  0.00000000000E+00 0.  1.
          2   -1    0    0  501    0  0.00000000000E+00 -0.00000000000E+00 -0.58460063696E+03  0.58460063696E+03  0.00000000000E+00 0. -1.
         24    2    1    2    0    0 -0.96905064573E+02  0.32973561984E+03  0.23112339649E+03  0.42208158753E+03  0.81355218593E+02 0.  0.
        254    2    1    2    0    0  0.96905064573E+02 -0.32973561984E+03 -0.10217754010E+02  0.96802532887E+03  0.90490467139E+03 0.  0.
         23    2    4    4    0    0  0.41954477389E+03 -0.36737048216E+03  0.16456567679E+03  0.58832327323E+03  0.89797123471E+02 0.  0.
         23    2    4    4    0    0 -0.32263970932E+03  0.37634862319E+02 -0.17478343080E+03  0.37970205565E+03  0.90064635066E+02 0.  0.
          2    1    3    3  502    0 -0.51536618727E+02  0.13094657806E+03  0.49967582797E+02  0.14933113776E+03  0.00000000000E+00 0. -1.
         -1    1    3    3    0  502 -0.45368445846E+02  0.19878904178E+03  0.18115581370E+03  0.27275044977E+03  0.00000000000E+00 0.  1.
         11    1    5    5    0    0  0.34055847575E+03 -0.30438147635E+03  0.97460648182E+02  0.46704040135E+03  0.00000000000E+00 0.  1.
        -11    1    5    5    0    0  0.78986298144E+02 -0.62989005816E+02  0.67105028604E+02  0.12128287188E+03  0.00000000000E+00 0. -1.
          2    1    6    6  503    0 -0.72417818700E+01  0.54746576405E+01 -0.29685133262E+02  0.31042268244E+02  0.00000000000E+00 0. -1.
         -2    1    6    6    0  503 -0.31539792745E+03  0.32160204678E+02 -0.14509829753E+03  0.34865978740E+03  0.00000000000E+00 0.  1.
<mgrwt>
<rscale>  0 0.13724423E+04</rscale>
<asrwt>0</asrwt>
<pdfrwt beam="1">  1        2 0.89938560E-01 0.13724423E+04</pdfrwt>
<pdfrwt beam="2">  1       -1 0.12392404E+00 0.13724423E+04</pdfrwt>
<totfact> 0.32627854E+01</totfact>
</mgrwt>
</event>
<event>
12    6  0.1530720E-007  0.2548289E+04  0.7818608E-02  0.8385981E-01
          2   -1    0    0  501    0  0.00000000000E+00  0.00000000000E+00  0.60350379748E+03  0.60350379748E+03  0.00000000000E+00 0. -1.
         -1   -1    0    0    0  501 -0.00000000000E+00 -0.00000000000E+00 -0.26900319717E+04  0.26900319717E+04  0.00000000000E+00 0.  1.
         24    2    1    2    0    0 -0.37910343149E+03  0.62058246461E+03  0.17579356923E+03  0.75244915481E+03  0.80214365558E+02 0.  0.
        254    2    1    2    0    0  0.37910343149E+03 -0.62058246461E+03 -0.22623217435E+04  0.25410866144E+04  0.90009971879E+03 0.  0.
         23    2    4    4    0    0 -0.19770531180E+03 -0.14514233956E+03 -0.12628966868E+04  0.12897572627E+04  0.91717316771E+02 0.  0.
         23    2    4    4    0    0  0.57680874328E+03 -0.47544012505E+03 -0.99942505670E+03  0.12513293517E+04  0.90681109507E+02 0.  0.
          2    1    3    3  502    0 -0.35870695059E+03  0.58941167467E+03  0.18443707867E+03  0.71420853721E+03  0.00000000000E+00 0. -1.
         -1    1    3    3    0  502 -0.20396480894E+02  0.31170789942E+02 -0.86435094452E+01  0.38240617594E+02  0.00000000000E+00 0.  1.
         11    1    5    5    0    0 -0.28916055562E+02 -0.53005319838E+02 -0.17832620599E+03  0.18827091635E+03  0.00000000000E+00 0. -1.
        -11    1    5    5    0    0 -0.16878925623E+03 -0.92137019718E+02 -0.10845704808E+04  0.11014863464E+04  0.00000000000E+00 0.  1.
          4    1    6    6  503    0  0.38029716294E+03 -0.28634327897E+03 -0.57023569594E+03  0.74282377081E+03  0.00000000000E+00 0. -1.
         -4    1    6    6    0  503  0.19651158034E+03 -0.18909684609E+03 -0.42918936076E+03  0.50850558089E+03  0.00000000000E+00 0.  1.
<mgrwt>
<rscale>  0 0.25482892E+04</rscale>
<asrwt>0</asrwt>
<pdfrwt beam="1">  1        2 0.92846739E-01 0.25482892E+04</pdfrwt>
<pdfrwt beam="2">  1       -1 0.41385107E+00 0.25482892E+04</pdfrwt>
<totfact> 0.28684917E-01</totfact>
</mgrwt>
</event>
<event>
12    6  0.1530720E-007  0.2264785E+04  0.7818608E-02  0.8491937E-01
         -1   -1    0    0    0  501 -0.00000000000E+00  0.00000000000E+00  0.71225652914E+03  0.71225652914E+03  0.00000000000E+00 0.  1.
          2   -1    0    0  501    0  0.00000000000E+00 -0.00000000000E+00 -0.18003524175E+04  0.18003524175E+04  0.00000000000E+00 0. -1.
         24    2    1    2    0    0 -0.34120150275E+03 -0.64092445967E+03  0.22440689650E+03  0.76515292249E+03  0.88870192467E+02 0.  0.
        254    2    1    2    0    0  0.34120150275E+03  0.64092445967E+03 -0.13125027848E+04  0.17474560241E+04  0.89651345085E+03 0.  0.
         23    2    4    4    0    0 -0.19172397447E+03 -0.56598747005E+02 -0.85067736434E+02  0.23564704034E+03  0.91277090721E+02 0.  0.
         23    2    4    4    0    0  0.53292547722E+03  0.69752320668E+03 -0.12274350484E+04  0.15118089838E+04  0.91768280242E+02 0.  0.
          2    1    3    3  502    0 -0.17661275512E+03 -0.30440306105E+03  0.15321585602E+03  0.38383380177E+03  0.00000000000E+00 0. -1.
         -1    1    3    3    0  502 -0.16458874763E+03 -0.33652139862E+03  0.71191040479E+02  0.38131912072E+03  0.00000000000E+00 0.  1.
         11    1    5    5    0    0 -0.48438472175E+02 -0.52512417154E+02 -0.52481071125E+02  0.88645938251E+02  0.00000000000E+00 0. -1.
        -11    1    5    5    0    0 -0.14328550230E+03 -0.40863298509E+01 -0.32586665310E+02  0.14700110209E+03  0.00000000000E+00 0.  1.
          4    1    6    6  503    0  0.17582920871E+03  0.30389182558E+03 -0.48251742948E+03  0.59673211916E+03  0.00000000000E+00 0. -1.
         -4    1    6    6    0  503  0.35709626851E+03  0.39363138110E+03 -0.74491761891E+03  0.91507686460E+03  0.00000000000E+00 0.  1.
<mgrwt>
<rscale>  0 0.22647850E+04</rscale>
<asrwt>0</asrwt>
<pdfrwt beam="1">  1        2 0.27697729E+00 0.22647850E+04</pdfrwt>
<pdfrwt beam="2">  1       -1 0.10957793E+00 0.22647850E+04</pdfrwt>
<totfact> 0.68756979E+00</totfact>
</mgrwt>
</event>
<event>
12    6  0.1530720E-007  0.3064547E+04  0.7818608E-02  0.8225536E-01
         -3   -1    0    0    0  501 -0.00000000000E+00  0.00000000000E+00  0.91401676966E+03  0.91401676966E+03  0.00000000000E+00 0.  1.
          2   -1    0    0  501    0  0.00000000000E+00 -0.00000000000E+00 -0.25687297037E+04  0.25687297037E+04  0.00000000000E+00 0. -1.
         24    2    1    2    0    0  0.27985610757E+03  0.10403921081E+04 -0.17719956237E+04  0.20753280005E+04  0.79263103507E+02 0.  0.
        254    2    1    2    0    0 -0.27985610757E+03 -0.10403921081E+04  0.11728268974E+03  0.14074184728E+04  0.89796233143E+03 0.  0.
         23    2    4    4    0    0  0.27786942909E+03 -0.22032933707E+03  0.18299734891E+03  0.40931299832E+03  0.91064068016E+02 0.  0.
         23    2    4    4    0    0 -0.55772553667E+03 -0.82006277106E+03 -0.65714659168E+02  0.99810547449E+03  0.91298406597E+02 0.  0.
          2    1    3    3  502    0  0.23563130241E+03  0.74918844571E+03 -0.12641001589E+04  0.14882051773E+04  0.00000000000E+00 0. -1.
         -1    1    3    3    0  502  0.44224805158E+02  0.29120366242E+03 -0.50789546481E+03  0.58712282325E+03  0.00000000000E+00 0.  1.
         11    1    5    5    0    0  0.58755903821E+02 -0.22476915293E+02  0.18306511901E+01  0.62935039833E+02  0.00000000000E+00 0. -1.
        -11    1    5    5    0    0  0.21911352527E+03 -0.19785242178E+03  0.18116669772E+03  0.34637795849E+03  0.00000000000E+00 0.  1.
          1    1    6    6  503    0 -0.35396192562E+03 -0.47910050847E+03 -0.77678534870E+02  0.60071648619E+03  0.00000000000E+00 0.  1.
         -1    1    6    6    0  503 -0.20376361105E+03 -0.34096226259E+03  0.11963875702E+02  0.39738898830E+03  0.00000000000E+00 0. -1.
<mgrwt>
<rscale>  0 0.30645470E+04</rscale>
<asrwt>0</asrwt>
<pdfrwt beam="1">  1        2 0.39518919E+00 0.30645470E+04</pdfrwt>
<pdfrwt beam="2">  1       -3 0.14061796E+00 0.30645470E+04</pdfrwt>
<totfact> 0.65520938E-01</totfact>
</mgrwt>
</event>
<event>
12    6  0.1530720E-007  0.1265363E+04  0.7818608E-02  0.9057493E-01
         -1   -1    0    0    0  501 -0.00000000000E+00  0.00000000000E+00  0.32195829054E+03  0.32195829054E+03  0.00000000000E+00 0.  1.
          2   -1    0    0  501    0  0.00000000000E+00 -0.00000000000E+00 -0.12432843719E+04  0.12432843719E+04  0.00000000000E+00 0. -1.
         24    2    1    2    0    0  0.27417426768E+03  0.12766786514E+03 -0.35259801093E+03  0.47154490380E+03  0.80985345223E+02 0.  0.
        254    2    1    2    0    0 -0.27417426768E+03 -0.12766786514E+03 -0.56872807045E+03  0.10936977587E+04  0.88388492256E+03 0.  0.
         23    2    4    4    0    0 -0.42822187646E+03  0.17474711392E+03 -0.57401734484E+03  0.74300819679E+03  0.93030849783E+02 0.  0.
         23    2    4    4    0    0  0.15404760878E+03 -0.30241497906E+03  0.52892743964E+01  0.35068956187E+03  0.88145941759E+02 0.  0.
          2    1    3    3  502    0  0.17563476911E+03  0.12154396941E+03 -0.25625713379E+03  0.33359890173E+03  0.00000000000E+00 0. -1.
         -1    1    3    3    0  502  0.98539498572E+02  0.61238957244E+01 -0.96340877144E+02  0.13794600207E+03  0.00000000000E+00 0.  1.
         11    1    5    5    0    0 -0.24695091882E+02 -0.51640603412E+01 -0.60714573370E+02  0.65747809863E+02  0.00000000000E+00 0.  1.
        -11    1    5    5    0    0 -0.40352678458E+03  0.17991117426E+03 -0.51330277147E+03  0.67726038693E+03  0.00000000000E+00 0. -1.
          3    1    6    6  503    0  0.32891214617E+02 -0.84513944324E+02 -0.36749386558E+02  0.97851705129E+02  0.00000000000E+00 0. -1.
         -3    1    6    6    0  503  0.12115639416E+03 -0.21790103474E+03  0.42038660954E+02  0.25283785674E+03  0.00000000000E+00 0.  1.
<mgrwt>
<rscale>  0 0.12653627E+04</rscale>
<asrwt>0</asrwt>
<pdfrwt beam="1">  1        2 0.19127452E+00 0.12653627E+04</pdfrwt>
<pdfrwt beam="2">  1       -1 0.49532045E-01 0.12653627E+04</pdfrwt>
<totfact> 0.81673388E+01</totfact>
</mgrwt>
</event>
<event>
12    6  0.1530720E-007  0.1377713E+04  0.7818608E-02  0.8970111E-01
          2   -1    0    0  501    0  0.00000000000E+00  0.00000000000E+00  0.23834936976E+04  0.23834936976E+04  0.00000000000E+00 0. -1.
         -1   -1    0    0    0  501 -0.00000000000E+00 -0.00000000000E+00 -0.19908720929E+03  0.19908720929E+03  0.00000000000E+00 0.  1.
         24    2    1    2    0    0  0.21074190448E+03 -0.28125261989E+03  0.30260715911E+03  0.47056820243E+03  0.79675302934E+02 0.  0.
        254    2    1    2    0    0 -0.21074190448E+03  0.28125261989E+03  0.18817993292E+04  0.21120127045E+04  0.89213999011E+03 0.  0.
         23    2    4    4    0    0  0.32954855093E+03  0.14547060953E+03  0.98073247424E+03  0.10487524142E+04  0.91002718137E+02 0.  0.
         23    2    4    4    0    0 -0.54029045541E+03  0.13578201036E+03  0.90106685499E+03  0.10632602902E+04  0.90831916795E+02 0.  0.
          4    1    3    3  502    0  0.11587832912E+02 -0.48635041642E+01 -0.29911003923E+01  0.12918135543E+02  0.00000000000E+00 0. -1.
         -3    1    3    3    0  502  0.19915407157E+03 -0.27638911573E+03  0.30559825950E+03  0.45765006689E+03  0.00000000000E+00 0.  1.
         11    1    5    5    0    0  0.33259098161E+03  0.13541207226E+03  0.92954563267E+03  0.99649800481E+03  0.00000000000E+00 0.  1.
        -11    1    5    5    0    0 -0.30424306837E+01  0.10058537274E+02  0.51186841568E+02  0.52254409443E+02  0.00000000000E+00 0. -1.
          3    1    6    6  503    0 -0.17929848997E+03  0.44194280010E+01  0.31598659912E+03  0.36333869966E+03  0.00000000000E+00 0. -1.
         -3    1    6    6    0  503 -0.36099196544E+03  0.13136258235E+03  0.58508025588E+03  0.69992159059E+03  0.00000000000E+00 0.  1.
<mgrwt>
<rscale>  0 0.13777128E+04</rscale>
<asrwt>0</asrwt>
<pdfrwt beam="1">  1        2 0.36669132E+00 0.13777128E+04</pdfrwt>
<pdfrwt beam="2">  1       -1 0.30628803E-01 0.13777128E+04</pdfrwt>
<totfact> 0.44511642E+01</totfact>
</mgrwt>
</event>
<event>
12    6  0.1530720E-007  0.2019749E+04  0.7818608E-02  0.8597442E-01
          2   -1    0    0  501    0  0.00000000000E+00  0.00000000000E+00  0.18510283819E+04  0.18510283819E+04  0.00000000000E+00 0. -1.
         -1   -1    0    0    0  501 -0.00000000000E+00 -0.00000000000E+00 -0.55096236187E+03  0.55096236187E+03  0.00000000000E+00 0.  1.
         24    2    1    2    0    0  0.29895492452E+02 -0.70867455067E+03  0.62366029101E+02  0.71589116077E+03  0.74143598783E+02 0.  0.
        254    2    1    2    0    0 -0.29895492452E+02  0.70867455067E+03  0.12376999909E+04  0.16860995830E+04  0.89884213128E+03 0.  0.
         23    2    4    4    0    0 -0.37980851026E+03  0.55320312763E+03  0.10524515980E+04  0.12515909606E+04  0.92397844219E+02 0.  0.
         23    2    4    4    0    0  0.34991301780E+03  0.15547142304E+03  0.18524839289E+03  0.43450862237E+03  0.88714668630E+02 0.  0.
          4    1    3    3  502    0  0.11713883819E+02 -0.27961296949E+03  0.61063139090E+02  0.28644255050E+03  0.00000000000E+00 0. -1.
         -3    1    3    3    0  502  0.18181608634E+02 -0.42906158119E+03  0.13028900108E+01  0.42944861027E+03  0.00000000000E+00 0.  1.
         11    1    5    5    0    0 -0.19677313146E+03  0.29245414804E+03  0.63736232957E+03  0.72834046512E+03  0.00000000000E+00 0. -1.
        -11    1    5    5    0    0 -0.18303537879E+03  0.26074897959E+03  0.41508926843E+03  0.52325049547E+03  0.00000000000E+00 0.  1.
          3    1    6    6  503    0  0.29853146223E+03  0.13958198992E+03  0.19019813455E+03  0.38049900951E+03  0.00000000000E+00 0. -1.
         -3    1    6    6    0  503  0.51381555578E+02  0.15889433121E+02 -0.49497416623E+01  0.54009612857E+02  0.00000000000E+00 0.  1.
<mgrwt>
<rscale>  0 0.20197495E+04</rscale>
<asrwt>0</asrwt>
<pdfrwt beam="1">  1        2 0.28477359E+00 0.20197495E+04</pdfrwt>
<pdfrwt beam="2">  1       -1 0.84763441E-01 0.20197495E+04</pdfrwt>
<totfact> 0.11760250E+01</totfact>
</mgrwt>
</event>
<event>
12    6  0.1530720E-007  0.2577738E+04  0.7818608E-02  0.8375803E-01
          2   -1    0    0  501    0  0.00000000000E+00  0.00000000000E+00  0.13321286554E+04  0.13321286554E+04  0.00000000000E+00 0. -1.
         -3   -1    0    0    0  501 -0.00000000000E+00 -0.00000000000E+00 -0.12470137620E+04  0.12470137620E+04  0.00000000000E+00 0.  1.
         24    2    1    2    0    0 -0.13472366776E+03  0.11080963531E+04  0.20872189611E+03  0.11383028537E+04  0.78361740818E+02 0.  0.
        254    2    1    2    0    0  0.13472366776E+03 -0.11080963531E+04 -0.12360700268E+03  0.14408395637E+04  0.90261396114E+03 0.  0.
         23    2    4    4    0    0 -0.35605774781E+03 -0.56920943265E+03  0.68717936497E+02  0.68114050354E+03  0.91944182931E+02 0.  0.
         23    2    4    4    0    0  0.49078141557E+03 -0.53888692045E+03 -0.19232493918E+03  0.75969906017E+03  0.94277616101E+02 0.  0.
          4    1    3    3  502    0 -0.95676331563E+02  0.99013653588E+03  0.18583878744E+03  0.10119586825E+04  0.00000000000E+00 0. -1.
         -3    1    3    3    0  502 -0.39047336194E+02  0.11795981722E+03  0.22883108669E+02  0.12634417123E+03  0.00000000000E+00 0.  1.
         11    1    5    5    0    0 -0.16574269038E+03 -0.33809561758E+03  0.14022368739E+02  0.37679691197E+03  0.00000000000E+00 0. -1.
        -11    1    5    5    0    0 -0.19031505743E+03 -0.23111381507E+03  0.54695567758E+02  0.30434359158E+03  0.00000000000E+00 0.  1.
          2    1    6    6  503    0  0.39182607807E+03 -0.38393147667E+03 -0.11641749657E+03  0.56078880850E+03  0.00000000000E+00 0. -1.
         -2    1    6    6    0  503  0.98955337503E+02 -0.15495544378E+03 -0.75907442609E+02  0.19891025167E+03  0.00000000000E+00 0.  1.
<mgrwt>
<rscale>  0 0.25777376E+04</rscale>
<asrwt>0</asrwt>
<pdfrwt beam="1">  1        2 0.20494287E+00 0.25777376E+04</pdfrwt>
<pdfrwt beam="2">  1       -3 0.19184827E+00 0.25777376E+04</pdfrwt>
<totfact> 0.14627534E+00</totfact>
</mgrwt>
</event>
<event>
12    6  0.1530720E-007  0.2358967E+04  0.7818608E-02  0.8455027E-01
          2   -1    0    0  501    0  0.00000000000E+00  0.00000000000E+00  0.20041041791E+04  0.20041041791E+04  0.00000000000E+00 0. -1.
         -1   -1    0    0    0  501 -0.00000000000E+00 -0.00000000000E+00 -0.69416636033E+03  0.69416636033E+03  0.00000000000E+00 0.  1.
         24    2    1    2    0    0 -0.56389436013E+03  0.38223660142E+03 -0.28643092314E+03  0.74329985617E+03  0.79814369631E+02 0.  0.
        254    2    1    2    0    0  0.56389436013E+03 -0.38223660142E+03  0.15963687419E+04  0.19549706833E+04  0.89968635835E+03 0.  0.
         23    2    4    4    0    0  0.53742129569E+03 -0.37962870735E+03  0.44465656236E+03  0.79948470157E+03  0.92286104520E+02 0.  0.
         23    2    4    4    0    0  0.26473064437E+02 -0.26078940646E+01  0.11517121796E+04  0.11554859817E+04  0.89438722567E+02 0.  0.
          2    1    3    3  502    0 -0.11119229505E+03  0.11018699966E+03 -0.84206136209E+02  0.17775144092E+03  0.00000000000E+00 0. -1.
         -1    1    3    3    0  502 -0.45270206508E+03  0.27204960175E+03 -0.20222478693E+03  0.56554841525E+03  0.00000000000E+00 0.  1.
         11    1    5    5    0    0  0.33478731777E+03 -0.28117215835E+03  0.32195247410E+03  0.54294910107E+03  0.00000000000E+00 0.  1.
        -11    1    5    5    0    0  0.20263397792E+03 -0.98456549001E+02  0.12270408826E+03  0.25653560050E+03  0.00000000000E+00 0. -1.
          1    1    6    6  503    0  0.42559493408E+02  0.23632790364E+02  0.37267608124E+03  0.37584209555E+03  0.00000000000E+00 0. -1.
         -1    1    6    6    0  503 -0.16086428971E+02 -0.26240684428E+02  0.77903609833E+03  0.77964388615E+03  0.00000000000E+00 0.  1.
<mgrwt>
<rscale>  0 0.23589673E+04</rscale>
<asrwt>0</asrwt>
<pdfrwt beam="1">  1        2 0.30832372E+00 0.23589673E+04</pdfrwt>
<pdfrwt beam="2">  1       -1 0.10679483E+00 0.23589673E+04</pdfrwt>
<totfact> 0.55836774E+00</totfact>
</mgrwt>
</event>
<event>
12    6  0.1530720E-007  0.2602972E+04  0.7818608E-02  0.8367192E-01
          2   -1    0    0  501    0  0.00000000000E+00  0.00000000000E+00  0.10286391988E+04  0.10286391988E+04  0.00000000000E+00 0. -1.
         -1   -1    0    0    0  501 -0.00000000000E+00 -0.00000000000E+00 -0.16467058149E+04  0.16467058149E+04  0.00000000000E+00 0.  1.
         24    2    1    2    0    0 -0.45893870231E+03 -0.10263872408E+04 -0.39430908291E+02  0.11281268865E+04  0.83785291171E+02 0.  0.
        254    2    1    2    0    0  0.45893870231E+03  0.10263872408E+04 -0.57863570776E+03  0.15472181273E+04  0.89161042533E+03 0.  0.
         23    2    4    4    0    0  0.53611032110E+03  0.31142814900E+03 -0.52976872080E+03  0.82064487086E+03  0.91658813802E+02 0.  0.
         23    2    4    4    0    0 -0.77171618787E+02  0.71495909175E+03 -0.48866986966E+02  0.72657325640E+03  0.91644710039E+02 0.  0.
          4    1    3    3  502    0 -0.44786082507E+03 -0.95164067140E+03 -0.40805619103E+02  0.10525513691E+04  0.00000000000E+00 0. -1.
         -3    1    3    3    0  502 -0.11077877244E+02 -0.74746569357E+02  0.13747108122E+01  0.75575517363E+02  0.00000000000E+00 0.  1.
         11    1    5    5    0    0  0.13763018968E+03  0.12570250327E+03 -0.14013887591E+03  0.23319968478E+03  0.00000000000E+00 0.  1.
        -11    1    5    5    0    0  0.39848013142E+03  0.18572564573E+03 -0.38962984489E+03  0.58744518608E+03  0.00000000000E+00 0. -1.
          1    1    6    6  503    0 -0.51838815843E+02  0.63037692083E+03 -0.68249988985E+02  0.63617637974E+03  0.00000000000E+00 0. -1.
         -1    1    6    6    0  503 -0.25332802943E+02  0.84582170925E+02  0.19383002020E+02  0.90396876665E+02  0.00000000000E+00 0.  1.
<mgrwt>
<rscale>  0 0.26029723E+04</rscale>
<asrwt>0</asrwt>
<pdfrwt beam="1">  1        2 0.15825218E+00 0.26029723E+04</pdfrwt>
<pdfrwt beam="2">  1       -1 0.25333936E+00 0.26029723E+04</pdfrwt>
<totfact> 0.16140247E+00</totfact>
</mgrwt>
</event>
<event>
12    6  0.1530720E-007  0.1755539E+04  0.7818608E-02  0.8730307E-01
         -1   -1    0    0    0  501 -0.00000000000E+00  0.00000000000E+00  0.10940528769E+04  0.10940528769E+04  0.00000000000E+00 0.  1.
          2   -1    0    0  501    0  0.00000000000E+00 -0.00000000000E+00 -0.70424296370E+03  0.70424296370E+03  0.00000000000E+00 0. -1.
         24    2    1    2    0    0 -0.48276760174E+02  0.48036603114E+03 -0.32787136472E+03  0.58897867316E+03  0.79461161504E+02 0.  0.
        254    2    1    2    0    0  0.48276760174E+02 -0.48036603114E+03  0.71768127792E+03  0.12093171674E+04  0.84516236627E+03 0.  0.
         23    2    4    4    0    0  0.16211069248E+03 -0.67743084968E+03  0.64657489950E+03  0.95455302224E+03  0.88994038481E+02 0.  0.
         23    2    4    4    0    0 -0.11383393230E+03  0.19706481854E+03  0.71106378417E+02  0.25476414521E+03  0.89754920657E+02 0.  0.
          4    1    3    3  502    0 -0.67597309364E+01  0.28635283663E+03 -0.23211253061E+03  0.36867311792E+03  0.00000000000E+00 0. -1.
         -3    1    3    3    0  502 -0.41517029238E+02  0.19401319451E+03 -0.95758834107E+02  0.22030555524E+03  0.00000000000E+00 0.  1.
         11    1    5    5    0    0  0.10870546860E+03 -0.36357917483E+03  0.40423881962E+03  0.55445082609E+03  0.00000000000E+00 0. -1.
        -11    1    5    5    0    0  0.53405223879E+02 -0.31385167485E+03  0.24233607988E+03  0.40010219615E+03  0.00000000000E+00 0.  1.
          2    1    6    6  503    0 -0.63166309176E+02  0.90752661757E+02 -0.11121856815E+02  0.11112931175E+03  0.00000000000E+00 0. -1.
         -2    1    6    6    0  503 -0.50667623126E+02  0.10631215678E+03  0.82228235232E+02  0.14363483346E+03  0.00000000000E+00 0.  1.
<mgrwt>
<rscale>  0 0.17555387E+04</rscale>
<asrwt>0</asrwt>
<pdfrwt beam="1">  1        2 0.10834507E+00 0.17555387E+04</pdfrwt>
<pdfrwt beam="2">  1       -1 0.16831583E+00 0.17555387E+04</pdfrwt>
<totfact> 0.11137286E+01</totfact>
</mgrwt>
</event>
<event>
12    6  0.1530720E-007  0.1462266E+04  0.7818608E-02  0.8909941E-01
         -1   -1    0    0    0  501 -0.00000000000E+00  0.00000000000E+00  0.83625906352E+03  0.83625906352E+03  0.00000000000E+00 0.  1.
          2   -1    0    0  501    0  0.00000000000E+00 -0.00000000000E+00 -0.63922252605E+03  0.63922252605E+03  0.00000000000E+00 0. -1.
         24    2    1    2    0    0  0.22167586294E+03  0.25601502626E+02 -0.32003480648E+03  0.39848284086E+03  0.81059681445E+02 0.  0.
        254    2    1    2    0    0 -0.22167586294E+03 -0.25601502626E+02  0.51707134394E+03  0.10769987487E+04  0.91802391300E+03 0.  0.
         23    2    4    4    0    0 -0.26519497085E+03  0.38430032041E+03  0.10539690310E+03  0.48715762649E+03  0.90547981943E+02 0.  0.
         23    2    4    4    0    0  0.43519107902E+02 -0.40990182303E+03  0.41167444085E+03  0.58984112222E+03  0.92321649310E+02 0.  0.
          4    1    3    3  502    0  0.19004395906E+03  0.25793140878E+02 -0.31135208861E+03  0.36568034617E+03  0.00000000000E+00 0. -1.
         -3    1    3    3    0  502  0.31631903885E+02 -0.19163825210E+00 -0.86827178667E+01  0.32802494694E+02  0.00000000000E+00 0.  1.
         11    1    5    5    0    0 -0.15180426527E+03  0.15469734842E+03  0.74687750662E+02  0.22924673315E+03  0.00000000000E+00 0.  1.
        -11    1    5    5    0    0 -0.11339070558E+03  0.22960297199E+03  0.30709152434E+02  0.25791089334E+03  0.00000000000E+00 0. -1.
          2    1    6    6  503    0 -0.87366858990E+01 -0.89602372868E+02  0.14078014182E+03  0.16710464756E+03  0.00000000000E+00 0. -1.
         -2    1    6    6    0  503  0.52255793801E+02 -0.32029945017E+03  0.27089429903E+03  0.42273647466E+03  0.00000000000E+00 0.  1.
<mgrwt>
<rscale>  0 0.14622662E+04</rscale>
<asrwt>0</asrwt>
<pdfrwt beam="1">  1        2 0.98341927E-01 0.14622662E+04</pdfrwt>
<pdfrwt beam="2">  1       -1 0.12865524E+00 0.14622662E+04</pdfrwt>
<totfact> 0.26461351E+01</totfact>
</mgrwt>
</event>
<event>
12    6  0.1530720E-007  0.1021338E+04  0.7818608E-02  0.9285447E-01
          2   -1    0    0  501    0  0.00000000000E+00  0.00000000000E+00  0.70591517676E+03  0.70591517676E+03  0.00000000000E+00 0. -1.
         -3   -1    0    0    0  501 -0.00000000000E+00 -0.00000000000E+00 -0.36942490047E+03  0.36942490047E+03  0.00000000000E+00 0.  1.
         24    2    1    2    0    0  0.13452112271E+02 -0.57495000494E+02 -0.33777844564E+02  0.10408889938E+03  0.78784019857E+02 0.  0.
        254    2    1    2    0    0 -0.13452112271E+02  0.57495000494E+02  0.37026812086E+03  0.97125117785E+03  0.89595967250E+03 0.  0.
         23    2    4    4    0    0 -0.32140420286E+03  0.28240796575E+03  0.10801208279E+02  0.43830107603E+03  0.94531721764E+02 0.  0.
         23    2    4    4    0    0  0.30795209058E+03 -0.22491296526E+03  0.35946691258E+03  0.53295010181E+03  0.96948531435E+02 0.  0.
          2    1    3    3  502    0 -0.69963875173E+01  0.12657920707E+02  0.11192086641E+02  0.18287569502E+02  0.00000000000E+00 0. -1.
         -1    1    3    3    0  502  0.20448499789E+02 -0.70152921201E+02 -0.44969931205E+02  0.85801329880E+02  0.00000000000E+00 0.  1.
         11    1    5    5    0    0 -0.31862380538E+03  0.28203482606E+03  0.22655121978E+02  0.42611973319E+03  0.00000000000E+00 0.  1.
        -11    1    5    5    0    0 -0.27803974784E+01  0.37313968485E+00 -0.11853913699E+02  0.12181342838E+02  0.00000000000E+00 0. -1.
          1    1    6    6  503    0  0.85030045542E+02 -0.17597096098E+02  0.57374927050E+02  0.10407520689E+03  0.00000000000E+00 0. -1.
         -1    1    6    6    0  503  0.22292204504E+03 -0.20731586916E+03  0.30209198553E+03  0.42887489492E+03  0.00000000000E+00 0.  1.
<mgrwt>
<rscale>  0 0.10213376E+04</rscale>
<asrwt>0</asrwt>
<pdfrwt beam="1">  1        2 0.10860234E+00 0.10213376E+04</pdfrwt>
<pdfrwt beam="2">  1       -3 0.56834600E-01 0.10213376E+04</pdfrwt>
<totfact> 0.78048183E+01</totfact>
</mgrwt>
</event>
<event>
12    6  0.1530720E-007  0.3022276E+04  0.7818608E-02  0.8237398E-01
         -1   -1    0    0    0  501 -0.00000000000E+00  0.00000000000E+00  0.98257066292E+03  0.98257066292E+03  0.00000000000E+00 0.  1.
          2   -1    0    0  501    0  0.00000000000E+00 -0.00000000000E+00 -0.23240447459E+04  0.23240447459E+04  0.00000000000E+00 0. -1.
         24    2    1    2    0    0 -0.32622015661E+03  0.89311411624E+03 -0.17884487808E+04  0.20270696444E+04  0.79936766827E+02 0.  0.
        254    2    1    2    0    0  0.32622015661E+03 -0.89311411624E+03  0.44697469781E+03  0.12795457644E+04  0.73032771235E+03 0.  0.
         23    2    4    4    0    0  0.12058399087E+03 -0.91569178098E+03  0.49238427444E+03  0.10505820295E+04  0.90820650097E+02 0.  0.
         23    2    4    4    0    0  0.20563616574E+03  0.22577664735E+02 -0.45409576632E+02  0.22896373482E+03  0.86984933226E+02 0.  0.
          2    1    3    3  502    0 -0.30050266028E+03  0.77189068811E+03 -0.15965772692E+04  0.17986595175E+04  0.00000000000E+00 0. -1.
         -1    1    3    3    0  502 -0.25717496335E+02  0.12122342814E+03 -0.19187151154E+03  0.22841012693E+03  0.00000000000E+00 0.  1.
         11    1    5    5    0    0 -0.14350166601E+01 -0.21065912113E+03  0.84538109516E+02  0.22699342843E+03  0.00000000000E+00 0.  1.
        -11    1    5    5    0    0  0.12201900753E+03 -0.70503265985E+03  0.40784616493E+03  0.82358860112E+03  0.00000000000E+00 0. -1.
          2    1    6    6  503    0  0.15995894692E+03  0.34968943017E+02 -0.67036767690E+02  0.17692829027E+03  0.00000000000E+00 0. -1.
         -2    1    6    6    0  503  0.45677218821E+02 -0.12391278282E+02  0.21627191058E+02  0.52035444553E+02  0.00000000000E+00 0.  1.
<mgrwt>
<rscale>  0 0.30222761E+04</rscale>
<asrwt>0</asrwt>
<pdfrwt beam="1">  1        2 0.35754534E+00 0.30222761E+04</pdfrwt>
<pdfrwt beam="2">  1       -1 0.15116472E+00 0.30222761E+04</pdfrwt>
<totfact> 0.14579393E+00</totfact>
</mgrwt>
</event>
<event>
12    6  0.1530720E-007  0.1195047E+04  0.7818608E-02  0.9117203E-01
         -1   -1    0    0    0  501 -0.00000000000E+00  0.00000000000E+00  0.25892632263E+03  0.25892632263E+03  0.00000000000E+00 0.  1.
          2   -1    0    0  501    0  0.00000000000E+00 -0.00000000000E+00 -0.13789020665E+04  0.13789020665E+04  0.00000000000E+00 0. -1.
         24    2    1    2    0    0 -0.55206314901E+01 -0.12937764933E+03 -0.54233972322E+03  0.56409627612E+03  0.85458643928E+02 0.  0.
        254    2    1    2    0    0  0.55206314901E+01  0.12937764933E+03 -0.57763602062E+03  0.10737321130E+04  0.89580590790E+03 0.  0.
         23    2    4    4    0    0 -0.29357922938E+03  0.34064418105E+03 -0.10807225049E+03  0.47149739851E+03  0.91667679490E+02 0.  0.
         23    2    4    4    0    0  0.29909986087E+03 -0.21126653172E+03 -0.46956377014E+03  0.60223471448E+03  0.90012459702E+02 0.  0.
          4    1    3    3  502    0  0.35647383997E+02 -0.49281934641E+02 -0.28604431414E+03  0.29243938640E+03  0.00000000000E+00 0. -1.
         -3    1    3    3    0  502 -0.41168015487E+02 -0.80095714689E+02 -0.25629540909E+03  0.27165688972E+03  0.00000000000E+00 0.  1.
         11    1    5    5    0    0 -0.10140860966E+03  0.97064637206E+02 -0.75884136064E+02  0.15957334368E+03  0.00000000000E+00 0. -1.
        -11    1    5    5    0    0 -0.19217061973E+03  0.24357954385E+03 -0.32188114421E+02  0.31192405482E+03  0.00000000000E+00 0.  1.
          4    1    6    6  503    0  0.13712719034E+03 -0.43451562186E+02 -0.17689067328E+03  0.22799608523E+03  0.00000000000E+00 0. -1.
         -4    1    6    6    0  503  0.16197267053E+03 -0.16781496954E+03 -0.29267309686E+03  0.37423862925E+03  0.00000000000E+00 0.  1.
<mgrwt>
<rscale>  0 0.11950465E+04</rscale>
<asrwt>0</asrwt>
<pdfrwt beam="1">  1        2 0.21213878E+00 0.11950465E+04</pdfrwt>
<pdfrwt beam="2">  1       -1 0.39834819E-01 0.11950465E+04</pdfrwt>
<totfact> 0.10266608E+02</totfact>
</mgrwt>
</event>
<event>
12    6  0.1530720E-007  0.1550927E+04  0.7818608E-02  0.8851276E-01
          2   -1    0    0  501    0  0.00000000000E+00  0.00000000000E+00  0.31105686133E+04  0.31105686133E+04  0.00000000000E+00 0. -1.
         -1   -1    0    0    0  501 -0.00000000000E+00 -0.00000000000E+00 -0.19332274922E+03  0.19332274922E+03  0.00000000000E+00 0.  1.
         24    2    1    2    0    0 -0.36516883726E+03 -0.11878930662E+03  0.17710431984E+04  0.18133514746E+04  0.64733149600E+02 0.  0.
        254    2    1    2    0    0  0.36516883726E+03  0.11878930662E+03  0.11462026657E+04  0.14905398880E+04  0.87204898238E+03 0.  0.
         23    2    4    4    0    0  0.45860449769E+03 -0.15119724391E+03  0.26299826418E+03  0.55751355772E+03  0.92057526664E+02 0.  0.
         23    2    4    4    0    0 -0.93435660422E+02  0.26998655052E+03  0.88320440151E+03  0.93302633024E+03  0.94154967801E+02 0.  0.
          4    1    3    3  502    0 -0.35084860981E+03 -0.12445993625E+03  0.17277351138E+04  0.17673861056E+04  0.00000000000E+00 0. -1.
         -3    1    3    3    0  502 -0.14320227456E+02  0.56706296345E+01  0.43308084577E+02  0.45965368970E+02  0.00000000000E+00 0.  1.
         11    1    5    5    0    0  0.23613314308E+03 -0.32407778617E+02  0.14588722831E+03  0.27944983228E+03  0.00000000000E+00 0. -1.
        -11    1    5    5    0    0  0.22247135460E+03 -0.11878946529E+03  0.11711103587E+03  0.27806372544E+03  0.00000000000E+00 0.  1.
          4    1    6    6  503    0 -0.59615495428E+02  0.59760871431E+02  0.31901113826E+03  0.32999011407E+03  0.00000000000E+00 0. -1.
         -4    1    6    6    0  503 -0.33820164993E+02  0.21022567909E+03  0.56419326325E+03  0.60303621616E+03  0.00000000000E+00 0.  1.
<mgrwt>
<rscale>  0 0.15509270E+04</rscale>
<asrwt>0</asrwt>
<pdfrwt beam="1">  1        2 0.47854898E+00 0.15509270E+04</pdfrwt>
<pdfrwt beam="2">  1       -1 0.29741964E-01 0.15509270E+04</pdfrwt>
<totfact> 0.16954435E+01</totfact>
</mgrwt>
</event>
<event>
12    6  0.1530720E-007  0.1404766E+04  0.7818608E-02  0.8950376E-01
         -1   -1    0    0    0  501 -0.00000000000E+00  0.00000000000E+00  0.64899086572E+03  0.64899086572E+03  0.00000000000E+00 0.  1.
          2   -1    0    0  501    0  0.00000000000E+00 -0.00000000000E+00 -0.76016772574E+03  0.76016772574E+03  0.00000000000E+00 0. -1.
         24    2    1    2    0    0 -0.17999307360E+03 -0.33844810098E+03  0.79954843863E+02  0.39970915040E+03  0.80187307282E+02 0.  0.
        254    2    1    2    0    0  0.17999307360E+03  0.33844810098E+03 -0.19113170388E+03  0.10094494411E+04  0.91406357670E+03 0.  0.
         23    2    4    4    0    0  0.20029044003E+03 -0.28160377822E+03 -0.12225924237E+02  0.35750975846E+03  0.90811925931E+02 0.  0.
         23    2    4    4    0    0 -0.20297366427E+02  0.62005187920E+03 -0.17890577964E+03  0.65193968261E+03  0.90231678402E+02 0.  0.
          2    1    3    3  502    0 -0.62283123421E+02 -0.83509050898E+02 -0.10481848945E+02  0.10470347751E+03  0.00000000000E+00 0. -1.
         -1    1    3    3    0  502 -0.11770995018E+03 -0.25493905008E+03  0.90436692808E+02  0.29500567289E+03  0.00000000000E+00 0.  1.
         11    1    5    5    0    0  0.15708295372E+03 -0.24700784238E+03 -0.40231744437E+02  0.29547677033E+03  0.00000000000E+00 0. -1.
        -11    1    5    5    0    0  0.43207486315E+02 -0.34595935840E+02  0.28005820200E+02  0.62032988123E+02  0.00000000000E+00 0.  1.
          2    1    6    6  503    0 -0.30708907230E+02  0.51435335805E+03 -0.11486741098E+03  0.52791754662E+03  0.00000000000E+00 0. -1.
         -2    1    6    6    0  503  0.10411540803E+02  0.10569852116E+03 -0.64038368663E+02  0.12402213600E+03  0.00000000000E+00 0.  1.
<mgrwt>
<rscale>  0 0.14047660E+04</rscale>
<asrwt>0</asrwt>
<pdfrwt beam="1">  1        2 0.11694888E+00 0.14047660E+04</pdfrwt>
<pdfrwt beam="2">  1       -1 0.99844749E-01 0.14047660E+04</pdfrwt>
<totfact> 0.39176374E+01</totfact>
</mgrwt>
</event>
<event>
12    6  0.1530720E-007  0.1159551E+04  0.7818608E-02  0.9149018E-01
         -1   -1    0    0    0  501 -0.00000000000E+00  0.00000000000E+00  0.50998335533E+03  0.50998335533E+03  0.00000000000E+00 0.  1.
          2   -1    0    0  501    0  0.00000000000E+00 -0.00000000000E+00 -0.65911835813E+03  0.65911835813E+03  0.00000000000E+00 0. -1.
         24    2    1    2    0    0  0.77046937474E+02  0.19490836118E+03 -0.79677173534E+02  0.23816979158E+03  0.80317481320E+02 0.  0.
        254    2    1    2    0    0 -0.77046937474E+02 -0.19490836118E+03 -0.69457829270E+02  0.93093192189E+03  0.90436958889E+03 0.  0.
         23    2    4    4    0    0  0.31405125055E+02  0.26011798471E+03  0.23668416113E+03  0.36469037168E+03  0.91279938721E+02 0.  0.
         23    2    4    4    0    0 -0.10845206253E+03 -0.45502634589E+03 -0.30614199040E+03  0.56624155021E+03  0.89976383458E+02 0.  0.
          4    1    3    3  502    0  0.85273186691E+02  0.19685330007E+03 -0.70795870357E+02  0.22590881651E+03  0.00000000000E+00 0. -1.
         -1    1    3    3    0  502 -0.82262492167E+01 -0.19449388917E+01 -0.88813031770E+01  0.12260975067E+02  0.00000000000E+00 0.  1.
         11    1    5    5    0    0 -0.25002702224E+02  0.26739838019E+02  0.40861954283E+02  0.54862130506E+02  0.00000000000E+00 0. -1.
        -11    1    5    5    0    0  0.56407827280E+02  0.23337814669E+03  0.19582220685E+03  0.30982824117E+03  0.00000000000E+00 0.  1.
          4    1    6    6  503    0  0.11932823468E+02 -0.15198167618E+02 -0.20437580167E+02  0.28125989013E+02  0.00000000000E+00 0. -1.
         -4    1    6    6    0  503 -0.12038488600E+03 -0.43982817827E+03 -0.28570441023E+03  0.53811556120E+03  0.00000000000E+00 0.  1.
<mgrwt>
<rscale>  0 0.11595506E+04</rscale>
<asrwt>0</asrwt>
<pdfrwt beam="1">  1        2 0.10140282E+00 0.11595506E+04</pdfrwt>
<pdfrwt beam="2">  1       -1 0.78458978E-01 0.11595506E+04</pdfrwt>
<totfact> 0.81238909E+01</totfact>
</mgrwt>
</event>
<event>
12    6  0.1530720E-007  0.1410536E+04  0.7818608E-02  0.8946227E-01
         -1   -1    0    0    0  501 -0.00000000000E+00  0.00000000000E+00  0.18455270526E+03  0.18455270526E+03  0.00000000000E+00 0.  1.
          2   -1    0    0  501    0  0.00000000000E+00 -0.00000000000E+00 -0.26951808645E+04  0.26951808645E+04  0.00000000000E+00 0. -1.
         24    2    1    2    0    0 -0.31767405237E+03  0.60544795264E+02 -0.20843445316E+03  0.39297960703E+03  0.80034833029E+02 0.  0.
        254    2    1    2    0    0  0.31767405237E+03 -0.60544795264E+02 -0.23021937061E+04  0.24867539628E+04  0.88276097280E+03 0.  0.
         23    2    4    4    0    0  0.40113108122E+03  0.30708151588E+03 -0.16418961072E+04  0.17202691049E+04  0.91092068357E+02 0.  0.
         23    2    4    4    0    0 -0.83457028847E+02 -0.36762631115E+03 -0.66029759894E+03  0.76648485783E+03  0.96912010682E+02 0.  0.
          4    1    3    3  502    0 -0.20774638664E+03  0.96765253175E+01 -0.16054447852E+03  0.26272937767E+03  0.00000000000E+00 0. -1.
         -3    1    3    3    0  502 -0.10992766572E+03  0.50868269947E+02 -0.47889974639E+02  0.13025022937E+03  0.00000000000E+00 0.  1.
         11    1    5    5    0    0  0.10541541025E+03  0.58083712426E+02 -0.51608166799E+03  0.52993057507E+03  0.00000000000E+00 0.  1.
        -11    1    5    5    0    0  0.29571567096E+03  0.24899780346E+03 -0.11258144392E+04  0.11903385299E+04  0.00000000000E+00 0. -1.
          1    1    6    6  503    0 -0.50659030125E+02 -0.10598890519E+03 -0.28069786528E+03  0.30428814786E+03  0.00000000000E+00 0. -1.
         -1    1    6    6    0  503 -0.32797998723E+02 -0.26163740596E+03 -0.37959973366E+03  0.46219670997E+03  0.00000000000E+00 0.  1.
<mgrwt>
<rscale>  0 0.14105360E+04</rscale>
<asrwt>0</asrwt>
<pdfrwt beam="1">  1        2 0.41464321E+00 0.14105360E+04</pdfrwt>
<pdfrwt beam="2">  1       -1 0.28392724E-01 0.14105360E+04</pdfrwt>
<totfact> 0.33450830E+01</totfact>
</mgrwt>
</event>
<event>
12    6  0.1530720E-007  0.1388983E+04  0.7818608E-02  0.8961832E-01
         -1   -1    0    0    0  501 -0.00000000000E+00  0.00000000000E+00  0.22337753480E+03  0.22337753480E+03  0.00000000000E+00 0.  1.
          2   -1    0    0  501    0  0.00000000000E+00 -0.00000000000E+00 -0.21592085552E+04  0.21592085552E+04  0.00000000000E+00 0. -1.
         24    2    1    2    0    0 -0.10850680499E+03  0.21009395628E+03 -0.97162985565E+01  0.24976328572E+03  0.79837931088E+02 0.  0.
        254    2    1    2    0    0  0.10850680499E+03 -0.21009395628E+03 -0.19261147219E+04  0.21328228043E+04  0.88493050325E+03 0.  0.
         23    2    4    4    0    0 -0.49385455633E+01 -0.30427588473E+03 -0.15571604580E+03  0.35400041502E+03  0.91981539737E+02 0.  0.
         23    2    4    4    0    0  0.11344535055E+03  0.94181928446E+02 -0.17703986761E+04  0.17788223893E+04  0.90319085651E+02 0.  0.
          4    1    3    3  502    0 -0.62436952812E+02  0.14991915167E+03 -0.41441638972E+02  0.16760529393E+03  0.00000000000E+00 0. -1.
         -1    1    3    3    0  502 -0.46069852177E+02  0.60174804611E+02  0.31725340416E+02  0.82157991784E+02  0.00000000000E+00 0.  1.
         11    1    5    5    0    0  0.31590354992E+02 -0.15300796909E+03 -0.11240739473E+03  0.19247028738E+03  0.00000000000E+00 0.  1.
        -11    1    5    5    0    0 -0.36528900555E+02 -0.15126791563E+03 -0.43308651073E+02  0.16153012763E+03  0.00000000000E+00 0. -1.
          2    1    6    6  503    0  0.48761596133E+02  0.90469684152E+02 -0.85956558065E+03  0.86568784469E+03  0.00000000000E+00 0.  1.
         -2    1    6    6    0  503  0.64683754420E+02  0.37122442935E+01 -0.91083309540E+03  0.91313454459E+03  0.00000000000E+00 0. -1.
<mgrwt>
<rscale>  0 0.13889833E+04</rscale>
<asrwt>0</asrwt>
<pdfrwt beam="1">  1        2 0.33218593E+00 0.13889833E+04</pdfrwt>
<pdfrwt beam="2">  1       -1 0.34365775E-01 0.13889833E+04</pdfrwt>
<totfact> 0.48497381E+01</totfact>
</mgrwt>
</event>
<event>
12    6  0.1530720E-007  0.1133164E+04  0.7818608E-02  0.9173458E-01
         -1   -1    0    0    0  501 -0.00000000000E+00  0.00000000000E+00  0.15330037461E+03  0.15330037461E+03  0.00000000000E+00 0.  1.
          2   -1    0    0  501    0  0.00000000000E+00 -0.00000000000E+00 -0.20940256792E+04  0.20940256792E+04  0.00000000000E+00 0. -1.
         24    2    1    2    0    0 -0.14645658900E+03  0.28466306926E+02 -0.11466207495E+03  0.20472892708E+03  0.80663988618E+02 0.  0.
        254    2    1    2    0    0  0.14645658900E+03 -0.28466306926E+02 -0.18260632297E+04  0.20425971268E+04  0.90301508317E+03 0.  0.
         23    2    4    4    0    0  0.33213873448E+03  0.34327134797E+03 -0.10488509412E+04  0.11567233957E+04  0.98840073273E+02 0.  0.
         23    2    4    4    0    0 -0.18568214547E+03 -0.37173765490E+03 -0.77721228846E+03  0.88587373103E+03  0.89702746774E+02 0.  0.
          4    1    3    3  502    0 -0.21667649620E+02 -0.43191560915E+01  0.10949458229E+02  0.24658320804E+02  0.00000000000E+00 0. -1.
         -3    1    3    3    0  502 -0.12478893938E+03  0.32785463017E+02 -0.12561153318E+03  0.18007060628E+03  0.00000000000E+00 0.  1.
         11    1    5    5    0    0  0.19558782589E+03  0.26531592547E+03 -0.67622542573E+03  0.75228183838E+03  0.00000000000E+00 0. -1.
        -11    1    5    5    0    0  0.13655090859E+03  0.77955422504E+02 -0.37262551548E+03  0.40444155737E+03  0.00000000000E+00 0.  1.
          2    1    6    6  503    0 -0.91969206737E+02 -0.24637513925E+03 -0.55405043997E+03  0.61329514449E+03  0.00000000000E+00 0. -1.
         -2    1    6    6    0  503 -0.93712938738E+02 -0.12536251565E+03 -0.22316184848E+03  0.27257858653E+03  0.00000000000E+00 0.  1.
<mgrwt>
<rscale>  0 0.11331636E+04</rscale>
<asrwt>0</asrwt>
<pdfrwt beam="1">  1        2 0.32215778E+00 0.11331636E+04</pdfrwt>
<pdfrwt beam="2">  1       -1 0.23584674E-01 0.11331636E+04</pdfrwt>
<totfact> 0.10372621E+02</totfact>
</mgrwt>
</event>
<event>
12    6  0.1530720E-007  0.1094717E+04  0.7818608E-02  0.9210356E-01
         -3   -1    0    0    0  501 -0.00000000000E+00  0.00000000000E+00  0.47122549640E+03  0.47122549640E+03  0.00000000000E+00 0.  1.
          4   -1    0    0  501    0  0.00000000000E+00 -0.00000000000E+00 -0.63579236423E+03  0.63579236423E+03  0.00000000000E+00 0. -1.
         24    2    1    2    0    0 -0.50237388195E+02 -0.43194201610E+02  0.12640273255E+03  0.16295473995E+03  0.78657881054E+02 0.  0.
        254    2    1    2    0    0  0.50237388195E+02  0.43194201610E+02 -0.29096960038E+03  0.94406312068E+03  0.89565748657E+03 0.  0.
         23    2    4    4    0    0  0.35456049235E+03  0.13787120736E+03 -0.43219839504E+03  0.58301944849E+03  0.91622115716E+02 0.  0.
         23    2    4    4    0    0 -0.30432310415E+03 -0.94677005746E+02  0.14122879466E+03  0.36104367219E+03  0.93971664083E+02 0.  0.
          4    1    3    3  502    0 -0.22830545385E+01 -0.53100071418E+02  0.75414191352E+02  0.92261206257E+02  0.00000000000E+00 0. -1.
         -3    1    3    3    0  502 -0.47954333656E+02  0.99058698081E+01  0.50988541193E+02  0.70693533694E+02  0.00000000000E+00 0.  1.
         11    1    5    5    0    0  0.32387082394E+03  0.10515332092E+03 -0.41001735015E+03  0.53297632116E+03  0.00000000000E+00 0.  1.
        -11    1    5    5    0    0  0.30689668407E+02  0.32717886435E+02 -0.22181044893E+02  0.50043127323E+02  0.00000000000E+00 0. -1.
          4    1    6    6  503    0 -0.73873146985E+02 -0.35457955859E+02 -0.44310611404E+01  0.82061822926E+02  0.00000000000E+00 0. -1.
         -4    1    6    6    0  503 -0.23044995717E+03 -0.59219049887E+02  0.14565985580E+03  0.27898184927E+03  0.00000000000E+00 0.  1.
<mgrwt>
<rscale>  0 0.10947174E+04</rscale>
<asrwt>0</asrwt>
<pdfrwt beam="1">  1        4 0.97814210E-01 0.10947174E+04</pdfrwt>
<pdfrwt beam="2">  1       -3 0.72496230E-01 0.10947174E+04</pdfrwt>
<totfact> 0.35673271E+00</totfact>
</mgrwt>
</event>
<event>
12    6  0.1530720E-007  0.2522577E+04  0.7818608E-02  0.8394986E-01
         -1   -1    0    0    0  501 -0.00000000000E+00  0.00000000000E+00  0.44310633778E+03  0.44310633778E+03  0.00000000000E+00 0.  1.
          2   -1    0    0  501    0  0.00000000000E+00 -0.00000000000E+00 -0.35902178836E+04  0.35902178836E+04  0.00000000000E+00 0. -1.
         24    2    1    2    0    0  0.42607966619E+01  0.52503671932E+03  0.20168363903E+03  0.56822899621E+03  0.80784843018E+02 0.  0.
        254    2    1    2    0    0 -0.42607966619E+01 -0.52503671932E+03 -0.33487951849E+04  0.34650952252E+04  0.71886995936E+03 0.  0.
         23    2    4    4    0    0 -0.23518716706E+03  0.36505931912E+02 -0.13656190315E+04  0.13890197858E+04  0.88402147440E+02 0.  0.
         23    2    4    4    0    0  0.23092637040E+03 -0.56154265123E+03 -0.19831761534E+04  0.20760754394E+04  0.91893617238E+02 0.  0.
          4    1    3    3  502    0 -0.12009270651E+02  0.89776003434E+02  0.65823916913E+02  0.11196759090E+03  0.00000000000E+00 0. -1.
         -3    1    3    3    0  502  0.16270067313E+02  0.43526071588E+03  0.13585972212E+03  0.45626140531E+03  0.00000000000E+00 0.  1.
         11    1    5    5    0    0 -0.23646228875E+03  0.23489627667E+02 -0.12279372580E+04  0.12507182281E+04  0.00000000000E+00 0.  1.
        -11    1    5    5    0    0  0.12751216956E+01  0.13016304245E+02 -0.13768177346E+03  0.13830155768E+03  0.00000000000E+00 0. -1.
          1    1    6    6  503    0  0.70631814609E+02 -0.10567240177E+03 -0.51337317874E+03  0.52887383220E+03  0.00000000000E+00 0. -1.
         -1    1    6    6    0  503  0.16029455579E+03 -0.45587024946E+03 -0.14698029746E+04  0.15472016072E+04  0.00000000000E+00 0.  1.
<mgrwt>
<rscale>  0 0.25225767E+04</rscale>
<asrwt>0</asrwt>
<pdfrwt beam="1">  1        2 0.55234124E+00 0.25225767E+04</pdfrwt>
<pdfrwt beam="2">  1       -1 0.68170202E-01 0.25225767E+04</pdfrwt>
<totfact> 0.15496174E+00</totfact>
</mgrwt>
</event>
<event>
12    6  0.1530720E-007  0.2629409E+04  0.7818608E-02  0.8358280E-01
          2   -1    0    0  501    0  0.00000000000E+00  0.00000000000E+00  0.40801408037E+04  0.40801408037E+04  0.00000000000E+00 0. -1.
         -1   -1    0    0    0  501 -0.00000000000E+00 -0.00000000000E+00 -0.42362456568E+03  0.42362456568E+03  0.00000000000E+00 0.  1.
         24    2    1    2    0    0  0.10078483016E+04  0.48519283656E+03  0.10808818686E+04  0.15576349469E+04  0.82162803281E+02 0.  0.
        254    2    1    2    0    0 -0.10078483016E+04 -0.48519283656E+03  0.25756343695E+04  0.29461304225E+04  0.89141560084E+03 0.  0.
         23    2    4    4    0    0 -0.74846798863E+03 -0.65623036056E+03  0.23418073929E+04  0.25465990462E+04  0.10130261855E+03 0.  0.
         23    2    4    4    0    0 -0.25938031301E+03  0.17103752400E+03  0.23382697652E+03  0.39953137626E+03  0.91751208570E+02 0.  0.
          4    1    3    3  502    0  0.27825793013E+03  0.14712428442E+03  0.35382746191E+03  0.47356826704E+03  0.00000000000E+00 0. -1.
         -3    1    3    3    0  502  0.72959037151E+03  0.33806855214E+03  0.72705440670E+03  0.10840666799E+04  0.00000000000E+00 0.  1.
         11    1    5    5    0    0 -0.70074348911E+03 -0.58698251479E+03  0.21886077467E+04  0.23718334214E+04  0.00000000000E+00 0. -1.
        -11    1    5    5    0    0 -0.47724499515E+02 -0.69247845768E+02  0.15319964629E+03  0.17476562482E+03  0.00000000000E+00 0.  1.
          2    1    6    6  503    0 -0.10856887046E+03  0.36947034344E+02  0.12728984707E+03  0.17133297449E+03  0.00000000000E+00 0.  1.
         -2    1    6    6    0  503 -0.15081144255E+03  0.13409048965E+03  0.10653712945E+03  0.22819840177E+03  0.00000000000E+00 0. -1.
<mgrwt>
<rscale>  0 0.26294090E+04</rscale>
<asrwt>0</asrwt>
<pdfrwt beam="1">  1        2 0.62771394E+00 0.26294090E+04</pdfrwt>
<pdfrwt beam="2">  1       -1 0.65173013E-01 0.26294090E+04</pdfrwt>
<totfact> 0.70576484E-01</totfact>
</mgrwt>
</event>
<event>
12    6  0.1530720E-007  0.1485721E+04  0.7818608E-02  0.8894004E-01
         -1   -1    0    0    0  501 -0.00000000000E+00  0.00000000000E+00  0.23500733632E+03  0.23500733632E+03  0.00000000000E+00 0.  1.
          2   -1    0    0  501    0  0.00000000000E+00 -0.00000000000E+00 -0.23481880096E+04  0.23481880096E+04  0.00000000000E+00 0. -1.
         24    2    1    2    0    0 -0.46606611149E+03  0.52018532459E+02 -0.71383836483E+03  0.85797412097E+03  0.81429927795E+02 0.  0.
        254    2    1    2    0    0  0.46606611149E+03 -0.52018532459E+02 -0.13993423084E+04  0.17252212249E+04  0.89347961970E+03 0.  0.
         23    2    4    4    0    0  0.33123020982E+03 -0.41410129942E+03 -0.11110366583E+04  0.12341317763E+04  0.86518478556E+02 0.  0.
         23    2    4    4    0    0  0.13483590166E+03  0.36208276696E+03 -0.28830565009E+03  0.49108944859E+03  0.93616495001E+02 0.  0.
          4    1    3    3  502    0 -0.39397257352E+03  0.68186299800E+02 -0.63062350838E+03  0.74669255352E+03  0.00000000000E+00 0. -1.
         -3    1    3    3    0  502 -0.72093537972E+02 -0.16167767341E+02 -0.83214856456E+02  0.11128156745E+03  0.00000000000E+00 0.  1.
         11    1    5    5    0    0  0.18043779827E+02 -0.67598107804E+02 -0.13226202927E+03  0.14962729215E+03  0.00000000000E+00 0. -1.
        -11    1    5    5    0    0  0.31318643000E+03 -0.34650319162E+03 -0.97877462905E+03  0.10845044842E+04  0.00000000000E+00 0.  1.
          3    1    6    6  503    0  0.28447694472E+00  0.12445683940E+03 -0.87934900168E+02  0.15238809819E+03  0.00000000000E+00 0. -1.
         -3    1    6    6    0  503  0.13455142472E+03  0.23762592756E+03 -0.20037074992E+03  0.33870135041E+03  0.00000000000E+00 0.  1.
<mgrwt>
<rscale>  0 0.14857206E+04</rscale>
<asrwt>0</asrwt>
<pdfrwt beam="1">  1        2 0.36125968E+00 0.14857206E+04</pdfrwt>
<pdfrwt beam="2">  1       -1 0.36154976E-01 0.14857206E+04</pdfrwt>
<totfact> 0.34383635E+01</totfact>
</mgrwt>
</event>
<event>
12    6  0.1530720E-007  0.1701059E+04  0.7818608E-02  0.8760761E-01
          2   -1    0    0  501    0  0.00000000000E+00  0.00000000000E+00  0.37984168822E+04  0.37984168822E+04  0.00000000000E+00 0. -1.
         -1   -1    0    0    0  501 -0.00000000000E+00 -0.00000000000E+00 -0.19044784052E+03  0.19044784052E+03  0.00000000000E+00 0.  1.
         24    2    1    2    0    0  0.26460550475E+03 -0.48400690616E+03  0.63667040596E+03  0.84598044044E+03  0.77813504165E+02 0.  0.
        254    2    1    2    0    0 -0.26460550475E+03  0.48400690616E+03  0.29712986357E+04  0.31428842823E+04  0.86303375993E+03 0.  0.
         23    2    4    4    0    0 -0.49543930660E+03  0.48724605828E+02  0.17808847750E+04  0.18514513791E+04  0.92127268594E+02 0.  0.
         23    2    4    4    0    0  0.23083380185E+03  0.43528230033E+03  0.11904138607E+04  0.12914329032E+04  0.89212434939E+02 0.  0.
          2    1    3    3  502    0  0.99407176033E+01 -0.21829629790E+02  0.82023244048E+01  0.25350122857E+02  0.00000000000E+00 0. -1.
         -1    1    3    3    0  502  0.25466478714E+03 -0.46217727637E+03  0.62846808156E+03  0.82063031759E+03  0.00000000000E+00 0.  1.
         11    1    5    5    0    0 -0.38085348818E+03  0.16909988303E+02  0.12233285449E+04  0.12813539932E+04  0.00000000000E+00 0. -1.
        -11    1    5    5    0    0 -0.11458581841E+03  0.31814617525E+02  0.55755623010E+03  0.57009738588E+03  0.00000000000E+00 0.  1.
          3    1    6    6  503    0  0.20627116378E+03  0.42669692290E+03  0.11426919811E+04  0.12370784214E+04  0.00000000000E+00 0. -1.
         -3    1    6    6    0  503  0.24562638067E+02  0.85853774284E+01  0.47721879612E+02  0.54354481767E+02  0.00000000000E+00 0.  1.
<mgrwt>
<rscale>  0 0.17010588E+04</rscale>
<asrwt>0</asrwt>
<pdfrwt beam="1">  1        2 0.58437177E+00 0.17010588E+04</pdfrwt>
<pdfrwt beam="2">  1       -1 0.29299671E-01 0.17010588E+04</pdfrwt>
<totfact> 0.57542840E+00</totfact>
</mgrwt>
</event>
<event>
12    6  0.1530720E-007  0.1460592E+04  0.7818608E-02  0.8911090E-01
          2   -1    0    0  501    0  0.00000000000E+00  0.00000000000E+00  0.12857585192E+04  0.12857585192E+04  0.00000000000E+00 0. -1.
         -1   -1    0    0    0  501 -0.00000000000E+00 -0.00000000000E+00 -0.41479976291E+03  0.41479976291E+03  0.00000000000E+00 0.  1.
         24    2    1    2    0    0 -0.61378009370E+02 -0.20440472045E+03  0.73736913550E+03  0.77182823299E+03  0.80355643720E+02 0.  0.
        254    2    1    2    0    0  0.61378009370E+02  0.20440472045E+03  0.13358962075E+03  0.92873004908E+03  0.89394897366E+03 0.  0.
         23    2    4    4    0    0 -0.35976345336E+03  0.23845856273E+02  0.24911853578E+03  0.44761105201E+03  0.91089196817E+02 0.  0.
         23    2    4    4    0    0  0.42114146273E+03  0.18055886418E+03 -0.11552891502E+03  0.48111899707E+03  0.90371035540E+02 0.  0.
          4    1    3    3  502    0 -0.80920737045E+02 -0.15393399822E+03  0.56640172235E+03  0.59249873635E+03  0.00000000000E+00 0. -1.
         -3    1    3    3    0  502  0.19542727674E+02 -0.50470722233E+02  0.17096741315E+03  0.17932949664E+03  0.00000000000E+00 0.  1.
         11    1    5    5    0    0 -0.20244608808E+03 -0.31959850314E+02  0.13606916561E+03  0.24600948852E+03  0.00000000000E+00 0. -1.
        -11    1    5    5    0    0 -0.15731736528E+03  0.55805706588E+02  0.11304937017E+03  0.20160156349E+03  0.00000000000E+00 0.  1.
          1    1    6    6  503    0  0.42296858765E+03  0.16923576174E+03 -0.11298817441E+03  0.46937138467E+03  0.00000000000E+00 0. -1.
         -1    1    6    6    0  503 -0.18271249119E+01  0.11323102436E+02 -0.25407406117E+01  0.11747612399E+02  0.00000000000E+00 0.  1.
<mgrwt>
<rscale>  0 0.14605921E+04</rscale>
<asrwt>0</asrwt>
<pdfrwt beam="1">  1        2 0.19780900E+00 0.14605921E+04</pdfrwt>
<pdfrwt beam="2">  1       -1 0.63815349E-01 0.14605921E+04</pdfrwt>
<totfact> 0.46358331E+01</totfact>
</mgrwt>
</event>
<event>
12    6  0.1530720E-007  0.2252925E+04  0.7818608E-02  0.8496717E-01
          2   -1    0    0  501    0  0.00000000000E+00  0.00000000000E+00  0.13776300162E+04  0.13776300162E+04  0.00000000000E+00 0. -1.
         -1   -1    0    0    0  501 -0.00000000000E+00 -0.00000000000E+00 -0.92108740693E+03  0.92108740693E+03  0.00000000000E+00 0.  1.
         24    2    1    2    0    0 -0.48719890122E+03 -0.39145515827E+02 -0.62233283122E+03  0.79532739663E+03  0.79701783225E+02 0.  0.
        254    2    1    2    0    0  0.48719890122E+03  0.39145515827E+02  0.10788754405E+04  0.15033900265E+04  0.92591263894E+03 0.  0.
         23    2    4    4    0    0  0.41036925418E+02 -0.59266175559E+02  0.10281201660E+04  0.10347459497E+04  0.92041272574E+02 0.  0.
         23    2    4    4    0    0  0.44616197580E+03  0.98411691386E+02  0.50755274463E+02  0.46864407678E+03  0.91136179233E+02 0.  0.
          2    1    3    3  502    0 -0.11907925209E+03 -0.41789347518E+02 -0.13856053349E+03  0.18741728652E+03  0.00000000000E+00 0. -1.
         -1    1    3    3    0  502 -0.36811964913E+03  0.26438316911E+01 -0.48377229773E+03  0.60791011011E+03  0.00000000000E+00 0.  1.
         11    1    5    5    0    0 -0.19194723201E+02 -0.52795234415E+02  0.46801894920E+03  0.47137830984E+03  0.00000000000E+00 0.  1.
        -11    1    5    5    0    0  0.60231648619E+02 -0.64709411440E+01  0.56010121685E+03  0.56336763990E+03  0.00000000000E+00 0. -1.
          2    1    6    6  503    0  0.35034922192E+03  0.94194750493E+02  0.60757050428E+01  0.36284175960E+03  0.00000000000E+00 0. -1.
         -2    1    6    6    0  503  0.95812753877E+02  0.42169408928E+01  0.44679569420E+02  0.10580231717E+03  0.00000000000E+00 0.  1.
<mgrwt>
<rscale>  0 0.22529249E+04</rscale>
<asrwt>0</asrwt>
<pdfrwt beam="1">  1        2 0.21194308E+00 0.22529249E+04</pdfrwt>
<pdfrwt beam="2">  1       -1 0.14170575E+00 0.22529249E+04</pdfrwt>
<totfact> 0.62765461E+00</totfact>
</mgrwt>
</event>
<event>
12    6  0.1530720E-007  0.1062855E+04  0.7818608E-02  0.9242171E-01
          2   -1    0    0  501    0  0.00000000000E+00  0.00000000000E+00  0.12898444647E+04  0.12898444647E+04  0.00000000000E+00 0. -1.
         -1   -1    0    0    0  501 -0.00000000000E+00 -0.00000000000E+00 -0.21895308438E+03  0.21895308438E+03  0.00000000000E+00 0.  1.
         24    2    1    2    0    0 -0.19388611884E+03 -0.54520597382E+02  0.21453188756E+03  0.30525518191E+03  0.81194043387E+02 0.  0.
        254    2    1    2    0    0  0.19388611884E+03  0.54520597382E+02  0.85635949271E+03  0.12035423671E+04  0.82133934892E+03 0.  0.
         23    2    4    4    0    0  0.13950318028E+03  0.24564091290E+03  0.92690808429E+03  0.97305994778E+03  0.88805798597E+02 0.  0.
         23    2    4    4    0    0  0.54382938565E+02 -0.19112031551E+03 -0.70548591577E+02  0.23048241934E+03  0.93062145051E+02 0.  0.
          4    1    3    3  502    0 -0.17872046133E+03 -0.67680879131E+02  0.16752173490E+03  0.25413625551E+03  0.00000000000E+00 0. -1.
         -1    1    3    3    0  502 -0.15165657515E+02  0.13160281749E+02  0.47010152656E+02  0.51118926400E+02  0.00000000000E+00 0.  1.
         11    1    5    5    0    0  0.37835584873E+02  0.36331916276E+02  0.87714075734E+02  0.10220224413E+03  0.00000000000E+00 0. -1.
        -11    1    5    5    0    0  0.10166759540E+03  0.20930899662E+03  0.83919400856E+03  0.87085770366E+03  0.00000000000E+00 0.  1.
          3    1    6    6  503    0 -0.19621314130E+02 -0.98677910499E+02 -0.39301790342E+02  0.10801368762E+03  0.00000000000E+00 0. -1.
         -3    1    6    6    0  503  0.74004252695E+02 -0.92442405016E+02 -0.31246801235E+02  0.12246873172E+03  0.00000000000E+00 0.  1.
<mgrwt>
<rscale>  0 0.10628554E+04</rscale>
<asrwt>0</asrwt>
<pdfrwt beam="1">  1        2 0.19843760E+00 0.10628554E+04</pdfrwt>
<pdfrwt beam="2">  1       -1 0.33685091E-01 0.10628554E+04</pdfrwt>
<totfact> 0.15775582E+02</totfact>
</mgrwt>
</event>
<event>
12    6  0.1530720E-007  0.3550880E+04  0.7818608E-02  0.8101837E-01
          2   -1    0    0  501    0  0.00000000000E+00  0.00000000000E+00  0.20185591892E+04  0.20185591892E+04  0.00000000000E+00 0. -1.
         -1   -1    0    0    0  501 -0.00000000000E+00 -0.00000000000E+00 -0.15616022414E+04  0.15616022414E+04  0.00000000000E+00 0.  1.
         24    2    1    2    0    0  0.11585327424E+03 -0.10919587791E+04 -0.10367275254E+04  0.15122692891E+04  0.79740104503E+02 0.  0.
        254    2    1    2    0    0 -0.11585327424E+03  0.10919587791E+04  0.14936844733E+04  0.20678921415E+04  0.91612698177E+03 0.  0.
         23    2    4    4    0    0  0.95134451491E+02  0.44287074513E+03  0.45717642970E+02  0.46446483546E+03  0.91937042307E+02 0.  0.
         23    2    4    4    0    0 -0.21098772573E+03  0.64908803398E+03  0.14479668303E+04  0.16034273061E+04  0.92412595363E+02 0.  0.
          4    1    3    3  502    0  0.86427895349E+02 -0.58228898205E+03 -0.51208157608E+03  0.78022931262E+03  0.00000000000E+00 0. -1.
         -3    1    3    3    0  502  0.29425378894E+02 -0.50966979707E+03 -0.52464594935E+03  0.73203997646E+03  0.00000000000E+00 0.  1.
         11    1    5    5    0    0  0.83521254637E+02  0.34785324441E+03 -0.14673588151E+01  0.35774269073E+03  0.00000000000E+00 0.  1.
        -11    1    5    5    0    0  0.11613196853E+02  0.95017500721E+02  0.47185001785E+02  0.10672214474E+03  0.00000000000E+00 0. -1.
          4    1    6    6  503    0 -0.24614965188E+02  0.85193327294E+02  0.27046272569E+03  0.28462938273E+03  0.00000000000E+00 0. -1.
         -4    1    6    6    0  503 -0.18637276055E+03  0.56389470669E+03  0.11775041046E+04  0.13187979233E+04  0.00000000000E+00 0.  1.
<mgrwt>
<rscale>  0 0.35508796E+04</rscale>
<asrwt>0</asrwt>
<pdfrwt beam="1">  1        2 0.31054757E+00 0.35508796E+04</pdfrwt>
<pdfrwt beam="2">  1       -1 0.24024650E+00 0.35508796E+04</pdfrwt>
<totfact> 0.49050202E-01</totfact>
</mgrwt>
</event>
<event>
12    6  0.1530720E-007  0.1228842E+04  0.7818608E-02  0.9087979E-01
         -1   -1    0    0    0  501 -0.00000000000E+00  0.00000000000E+00  0.21467066856E+03  0.21467066856E+03  0.00000000000E+00 0.  1.
          2   -1    0    0  501    0  0.00000000000E+00 -0.00000000000E+00 -0.17585695310E+04  0.17585695310E+04  0.00000000000E+00 0. -1.
         24    2    1    2    0    0  0.10881009008E+03  0.20829639360E+03 -0.13930061687E+03  0.28434583087E+03  0.78872469115E+02 0.  0.
        254    2    1    2    0    0 -0.10881009008E+03 -0.20829639360E+03 -0.14045982456E+04  0.16888943687E+04  0.90787715793E+03 0.  0.
         23    2    4    4    0    0  0.27436814335E+03 -0.25123242756E+03 -0.22413720781E+03  0.44356507048E+03  0.90093690564E+02 0.  0.
         23    2    4    4    0    0 -0.38317823343E+03  0.42936033960E+02 -0.11804610378E+04  0.12453292983E+04  0.93208034782E+02 0.  0.
          4    1    3    3  502    0  0.34797813155E+02  0.88583670243E+02 -0.14563282462E+02  0.96281065793E+02  0.00000000000E+00 0. -1.
         -3    1    3    3    0  502  0.74012276920E+02  0.11971272336E+03 -0.12473733441E+03  0.18806476508E+03  0.00000000000E+00 0.  1.
         11    1    5    5    0    0  0.54197395218E+02 -0.89395721778E+02 -0.31317864137E+02  0.10913185298E+03  0.00000000000E+00 0.  1.
        -11    1    5    5    0    0  0.22017074814E+03 -0.16183670578E+03 -0.19281934367E+03  0.33443321750E+03  0.00000000000E+00 0. -1.
          4    1    6    6  503    0 -0.37364479283E+03  0.23497916463E+02 -0.11305002668E+04  0.11908792703E+04  0.00000000000E+00 0. -1.
         -4    1    6    6    0  503 -0.95334405977E+01  0.19438117497E+02 -0.49960771021E+02  0.54450027938E+02  0.00000000000E+00 0.  1.
<mgrwt>
<rscale>  0 0.12288422E+04</rscale>
<asrwt>0</asrwt>
<pdfrwt beam="1">  1        2 0.27054916E+00 0.12288422E+04</pdfrwt>
<pdfrwt beam="2">  1       -1 0.33026256E-01 0.12288422E+04</pdfrwt>
<totfact> 0.87883741E+01</totfact>
</mgrwt>
</event>
<event>
12    6  0.1530720E-007  0.2383361E+04  0.7818608E-02  0.8445759E-01
         -1   -1    0    0    0  501 -0.00000000000E+00  0.00000000000E+00  0.92751873078E+03  0.92751873078E+03  0.00000000000E+00 0.  1.
          2   -1    0    0  501    0  0.00000000000E+00 -0.00000000000E+00 -0.15310773791E+04  0.15310773791E+04  0.00000000000E+00 0. -1.
         24    2    1    2    0    0 -0.70612647717E+03 -0.72641103975E+02  0.50344718766E+03  0.87404634100E+03  0.81281016915E+02 0.  0.
        254    2    1    2    0    0  0.70612647717E+03  0.72641103975E+02 -0.11070058360E+04  0.15845497689E+04  0.88399361847E+03 0.  0.
         23    2    4    4    0    0 -0.10323279034E+03 -0.17839450126E+03 -0.46835385217E+03  0.51956179170E+03  0.90041754040E+02 0.  0.
         23    2    4    4    0    0  0.80935926750E+03  0.25103560523E+03 -0.63865198385E+03  0.10649879772E+04  0.90784008450E+02 0.  0.
          4    1    3    3  502    0 -0.93909495130E+02 -0.37348580908E+02  0.78431510783E+02  0.12792736867E+03  0.00000000000E+00 0. -1.
         -3    1    3    3    0  502 -0.61221698204E+03 -0.35292523067E+02  0.42501567688E+03  0.74611897233E+03  0.00000000000E+00 0.  1.
         11    1    5    5    0    0  0.68140120513E+01 -0.65873497983E+02 -0.16537092291E+03  0.17813840305E+03  0.00000000000E+00 0. -1.
        -11    1    5    5    0    0 -0.11004680239E+03 -0.11252100327E+03 -0.30298292926E+03  0.34142338864E+03  0.00000000000E+00 0.  1.
          1    1    6    6  503    0  0.45113015863E+02  0.18748176132E+02 -0.13547157405E+02  0.50697177261E+02  0.00000000000E+00 0. -1.
         -1    1    6    6    0  503  0.76424625164E+03  0.23228742910E+03 -0.62510482645E+03  0.10142908000E+04  0.00000000000E+00 0.  1.
<mgrwt>
<rscale>  0 0.23833614E+04</rscale>
<asrwt>0</asrwt>
<pdfrwt beam="1">  1        2 0.23555037E+00 0.23833614E+04</pdfrwt>
<pdfrwt beam="2">  1       -1 0.14269519E+00 0.23833614E+04</pdfrwt>
<totfact> 0.49849439E+00</totfact>
</mgrwt>
</event>
<event>
12    6  0.1530720E-007  0.2643656E+04  0.7818608E-02  0.8353522E-01
          2   -1    0    0  501    0  0.00000000000E+00  0.00000000000E+00  0.19158455275E+04  0.19158455275E+04  0.00000000000E+00 0. -1.
         -1   -1    0    0    0  501 -0.00000000000E+00 -0.00000000000E+00 -0.91198859197E+03  0.91198859197E+03  0.00000000000E+00 0.  1.
         24    2    1    2    0    0 -0.30731486761E+03  0.10013591990E+04 -0.11212534496E+03  0.10563809869E+04  0.78778317508E+02 0.  0.
        254    2    1    2    0    0  0.30731486761E+03 -0.10013591990E+04  0.11159822805E+04  0.17714531325E+04  0.89188961041E+03 0.  0.
         23    2    4    4    0    0  0.91087250074E+02 -0.50041277756E+02  0.68850858390E+03  0.70240211717E+03  0.92323602076E+02 0.  0.
         23    2    4    4    0    0  0.21622761754E+03 -0.95131792123E+03  0.42747369661E+03  0.10690510154E+04  0.91521267141E+02 0.  0.
          4    1    3    3  502    0 -0.16026369387E+02  0.33118450196E+02 -0.17831868320E+02  0.40885838464E+02  0.00000000000E+00 0. -1.
         -3    1    3    3    0  502 -0.29128849822E+03  0.96824074879E+03 -0.94293476641E+02  0.10154951485E+04  0.00000000000E+00 0.  1.
         11    1    5    5    0    0 -0.51851685671E+01 -0.37349537674E+02  0.27906735600E+03  0.28160337910E+03  0.00000000000E+00 0. -1.
        -11    1    5    5    0    0  0.96272418641E+02 -0.12691740082E+02  0.40944122790E+03  0.42079873807E+03  0.00000000000E+00 0.  1.
          4    1    6    6  503    0  0.84244972418E+01 -0.22125537179E+02 -0.34604529868E+01  0.23926685606E+02  0.00000000000E+00 0. -1.
         -4    1    6    6    0  503  0.20780312030E+03 -0.92919238406E+03  0.43093414960E+03  0.10451243298E+04  0.00000000000E+00 0.  1.
<mgrwt>
<rscale>  0 0.26436560E+04</rscale>
<asrwt>0</asrwt>
<pdfrwt beam="1">  1        2 0.29474546E+00 0.26436560E+04</pdfrwt>
<pdfrwt beam="2">  1       -1 0.14030594E+00 0.26436560E+04</pdfrwt>
<totfact> 0.31103153E+00</totfact>
</mgrwt>
</event>
<event>
12    6  0.1530720E-007  0.2433480E+04  0.7818608E-02  0.8427074E-01
          2   -1    0    0  501    0  0.00000000000E+00  0.00000000000E+00  0.21717970943E+04  0.21717970943E+04  0.00000000000E+00 0. -1.
         -3   -1    0    0    0  501 -0.00000000000E+00 -0.00000000000E+00 -0.68167333426E+03  0.68167333426E+03  0.00000000000E+00 0.  1.
         24    2    1    2    0    0  0.55901144921E+03  0.83002407251E+03  0.25729970956E+03  0.10363108005E+04  0.79392527471E+02 0.  0.
        254    2    1    2    0    0 -0.55901144921E+03 -0.83002407251E+03  0.12328240505E+04  0.18171596281E+04  0.88361768492E+03 0.  0.
         23    2    4    4    0    0 -0.20465115396E+02 -0.26800671425E+03  0.93827702550E+03  0.97997728071E+03  0.88007239932E+02 0.  0.
         23    2    4    4    0    0 -0.53854633381E+03 -0.56201735825E+03  0.29454702499E+03  0.83718234735E+03  0.90667900356E+02 0.  0.
          4    1    3    3  502    0  0.26924134827E+02  0.28266569353E+02 -0.39133864796E+01  0.39232927152E+02  0.00000000000E+00 0. -1.
         -3    1    3    3    0  502  0.53208731438E+03  0.80175750315E+03  0.26121309604E+03  0.99707787335E+03  0.00000000000E+00 0.  1.
         11    1    5    5    0    0  0.47083579859E+01 -0.24801340170E+03  0.86696070411E+03  0.90175034157E+03  0.00000000000E+00 0.  1.
        -11    1    5    5    0    0 -0.25173473382E+02 -0.19993312560E+02  0.71316321392E+02  0.78226939133E+02  0.00000000000E+00 0. -1.
          4    1    6    6  503    0 -0.39201185263E+02 -0.76870891292E+02  0.47071808561E+02  0.98293550222E+02  0.00000000000E+00 0. -1.
         -4    1    6    6    0  503 -0.49934514855E+03 -0.48514646696E+03  0.24747521643E+03  0.73888879713E+03  0.00000000000E+00 0.  1.
<mgrwt>
<rscale>  0 0.24334799E+04</rscale>
<asrwt>0</asrwt>
<pdfrwt beam="1">  1        2 0.33412263E+00 0.24334799E+04</pdfrwt>
<pdfrwt beam="2">  1       -3 0.10487282E+00 0.24334799E+04</pdfrwt>
<totfact> 0.23931979E+00</totfact>
</mgrwt>
</event>
<event>
12    6  0.1530720E-007  0.2344738E+04  0.7818608E-02  0.8460488E-01
          2   -1    0    0  501    0  0.00000000000E+00  0.00000000000E+00  0.12914960028E+04  0.12914960028E+04  0.00000000000E+00 0. -1.
         -1   -1    0    0    0  501 -0.00000000000E+00 -0.00000000000E+00 -0.10642300578E+04  0.10642300578E+04  0.00000000000E+00 0.  1.
         24    2    1    2    0    0 -0.32556563805E+03 -0.41987349782E+03 -0.77376697497E+03  0.94225071657E+03  0.82670082099E+02 0.  0.
        254    2    1    2    0    0  0.32556563805E+03  0.41987349782E+03  0.10010329200E+04  0.14134753441E+04  0.84472415772E+03 0.  0.
         23    2    4    4    0    0  0.25430426861E+03 -0.17851697886E+03  0.60478608346E+03  0.68615455230E+03  0.92211117122E+02 0.  0.
         23    2    4    4    0    0  0.71261369441E+02  0.59839047668E+03  0.39624683650E+03  0.72732079178E+03  0.93992730405E+02 0.  0.
          4    1    3    3  502    0 -0.40383205193E+02 -0.99969445751E+02 -0.18311876240E+03  0.21250217525E+03  0.00000000000E+00 0. -1.
         -3    1    3    3    0  502 -0.28518243286E+03 -0.31990405207E+03 -0.59064821257E+03  0.72974854132E+03  0.00000000000E+00 0.  1.
         11    1    5    5    0    0  0.18895323672E+03 -0.83908632671E+02  0.34765706441E+03  0.40448661132E+03  0.00000000000E+00 0. -1.
        -11    1    5    5    0    0  0.65351031886E+02 -0.94608346185E+02  0.25712901905E+03  0.28166794098E+03  0.00000000000E+00 0.  1.
          3    1    6    6  503    0  0.30360622049E+02  0.33008153982E+03  0.27216628872E+03  0.42889401840E+03  0.00000000000E+00 0. -1.
         -3    1    6    6    0  503  0.40900747392E+02  0.26830893686E+03  0.12408054777E+03  0.29842677338E+03  0.00000000000E+00 0.  1.
<mgrwt>
<rscale>  0 0.23447378E+04</rscale>
<asrwt>0</asrwt>
<pdfrwt beam="1">  1        2 0.19869169E+00 0.23447378E+04</pdfrwt>
<pdfrwt beam="2">  1       -1 0.16372770E+00 0.23447378E+04</pdfrwt>
<totfact> 0.47155493E+00</totfact>
</mgrwt>
</event>
<event>
12    6  0.1530720E-007  0.2266578E+04  0.7818608E-02  0.8491217E-01
         -1   -1    0    0    0  501 -0.00000000000E+00  0.00000000000E+00  0.79914054235E+03  0.79914054235E+03  0.00000000000E+00 0.  1.
          2   -1    0    0  501    0  0.00000000000E+00 -0.00000000000E+00 -0.16071566294E+04  0.16071566294E+04  0.00000000000E+00 0. -1.
         24    2    1    2    0    0 -0.35954724537E+03 -0.29602825838E+03  0.53991407934E+03  0.71734716655E+03  0.78567123444E+02 0.  0.
        254    2    1    2    0    0  0.35954724537E+03  0.29602825838E+03 -0.13479301664E+04  0.16889500052E+04  0.90483668980E+03 0.  0.
         23    2    4    4    0    0  0.60655985719E+03  0.34289528517E+03 -0.11797242616E+04  0.13731594484E+04  0.91244180922E+02 0.  0.
         23    2    4    4    0    0 -0.24701261182E+03 -0.46867026788E+02 -0.16820590481E+03  0.31579055675E+03  0.90657050048E+02 0.  0.
          4    1    3    3  502    0 -0.13153900277E+03 -0.15166036266E+03  0.20064148060E+03  0.28383160252E+03  0.00000000000E+00 0. -1.
         -3    1    3    3    0  502 -0.22800824259E+03 -0.14436789573E+03  0.33927259874E+03  0.43351556404E+03  0.00000000000E+00 0.  1.
         11    1    5    5    0    0  0.13856325798E+03  0.75496190483E+02 -0.19784167332E+03  0.25306279643E+03  0.00000000000E+00 0.  1.
        -11    1    5    5    0    0  0.46799659921E+03  0.26739909469E+03 -0.98188258826E+03  0.11200966520E+04  0.00000000000E+00 0. -1.
          2    1    6    6  503    0 -0.12961970190E+03 -0.33697416517E+02 -0.36382193925E+02  0.13878201265E+03  0.00000000000E+00 0. -1.
         -2    1    6    6    0  503 -0.11739290992E+03 -0.13169610271E+02 -0.13182371088E+03  0.17700854410E+03  0.00000000000E+00 0.  1.
<mgrwt>
<rscale>  0 0.22665781E+04</rscale>
<asrwt>0</asrwt>
<pdfrwt beam="1">  1        2 0.24725487E+00 0.22665781E+04</pdfrwt>
<pdfrwt beam="2">  1       -1 0.12294470E+00 0.22665781E+04</pdfrwt>
<totfact> 0.66716707E+00</totfact>
</mgrwt>
</event>
<event>
12    6  0.1530720E-007  0.2169837E+04  0.7818608E-02  0.8531089E-01
         -1   -1    0    0    0  501 -0.00000000000E+00  0.00000000000E+00  0.17491762165E+04  0.17491762165E+04  0.00000000000E+00 0.  1.
          2   -1    0    0  501    0  0.00000000000E+00 -0.00000000000E+00 -0.67291555200E+03  0.67291555200E+03  0.00000000000E+00 0. -1.
         24    2    1    2    0    0  0.80496024158E+03 -0.33510719558E+03  0.58127266609E+03  0.10507814129E+04  0.77497369770E+02 0.  0.
        254    2    1    2    0    0 -0.80496024158E+03  0.33510719558E+03  0.49498799840E+03  0.13713103556E+04  0.93553254871E+03 0.  0.
         23    2    4    4    0    0 -0.82398910114E+03  0.31240443259E+03  0.71034923092E+03  0.11354553921E+04  0.90046372468E+02 0.  0.
         23    2    4    4    0    0  0.19028859565E+02  0.22702762989E+02 -0.21536123252E+03  0.23585496351E+03  0.91485465496E+02 0.  0.
          2    1    3    3  502    0  0.77828972852E+02 -0.14909315527E+02  0.35228521114E+02  0.86721885384E+02  0.00000000000E+00 0. -1.
         -1    1    3    3    0  502  0.72713126872E+03 -0.32019788005E+03  0.54604414498E+03  0.96405952752E+03  0.00000000000E+00 0.  1.
         11    1    5    5    0    0 -0.82392316865E+03  0.31405662852E+03  0.70235047390E+03  0.11272875152E+04  0.00000000000E+00 0. -1.
        -11    1    5    5    0    0 -0.65932495198E-01 -0.16521959332E+01  0.79987570189E+01  0.81678768565E+01  0.00000000000E+00 0.  1.
          1    1    6    6  503    0  0.25027921961E+02 -0.91511568157E+01 -0.19661067047E+03  0.19840840781E+03  0.00000000000E+00 0. -1.
         -1    1    6    6    0  503 -0.59990623959E+01  0.31853919805E+02 -0.18750562054E+02  0.37446555701E+02  0.00000000000E+00 0.  1.
<mgrwt>
<rscale>  0 0.21698367E+04</rscale>
<asrwt>0</asrwt>
<pdfrwt beam="1">  1        2 0.10352547E+00 0.21698367E+04</pdfrwt>
<pdfrwt beam="2">  1       -1 0.26910403E+00 0.21698367E+04</pdfrwt>
<totfact> 0.23585945E+00</totfact>
</mgrwt>
</event>
<event>
12    6  0.1530720E-007  0.2712718E+04  0.7818608E-02  0.8330890E-01
         -1   -1    0    0    0  501 -0.00000000000E+00  0.00000000000E+00  0.10415800339E+04  0.10415800339E+04  0.00000000000E+00 0.  1.
          2   -1    0    0  501    0  0.00000000000E+00 -0.00000000000E+00 -0.17662679326E+04  0.17662679326E+04  0.00000000000E+00 0. -1.
         24    2    1    2    0    0 -0.22342128297E+03  0.11003074995E+04 -0.77611891120E+03  0.13672359851E+04  0.79874974187E+02 0.  0.
        254    2    1    2    0    0  0.22342128297E+03 -0.11003074995E+04  0.51431012500E+02  0.14406119813E+04  0.90117926545E+03 0.  0.
         23    2    4    4    0    0  0.40306451261E+03 -0.43866492790E+03 -0.29032635265E+03  0.66915056642E+03  0.92656188169E+02 0.  0.
         23    2    4    4    0    0 -0.17964322964E+03 -0.66164257161E+03  0.34175736515E+03  0.77146141488E+03  0.91170365267E+02 0.  0.
          4    1    3    3  502    0 -0.15033602470E+03  0.81871289599E+03 -0.61243517433E+03  0.10334256476E+04  0.00000000000E+00 0. -1.
         -3    1    3    3    0  502 -0.73085258263E+02  0.28159460351E+03 -0.16368373688E+03  0.33381033750E+03  0.00000000000E+00 0.  1.
         11    1    5    5    0    0  0.33072699003E+03 -0.34553431218E+03 -0.27073460085E+03  0.54961034099E+03  0.00000000000E+00 0.  1.
        -11    1    5    5    0    0  0.72337522580E+02 -0.93130615715E+02 -0.19591751797E+02  0.11954022543E+03  0.00000000000E+00 0. -1.
          3    1    6    6  503    0 -0.19417495017E+02 -0.15428117704E+03  0.43327151771E+02  0.16142169242E+03  0.00000000000E+00 0. -1.
         -3    1    6    6    0  503 -0.16022573462E+03 -0.50736139456E+03  0.29843021338E+03  0.61003972247E+03  0.00000000000E+00 0.  1.
<mgrwt>
<rscale>  0 0.27127178E+04</rscale>
<asrwt>0</asrwt>
<pdfrwt beam="1">  1        2 0.27173353E+00 0.27127178E+04</pdfrwt>
<pdfrwt beam="2">  1       -1 0.16024308E+00 0.27127178E+04</pdfrwt>
<totfact> 0.26152327E+00</totfact>
</mgrwt>
</event>
<event>
12    6  0.1530720E-007  0.1919345E+04  0.7818608E-02  0.8645287E-01
         -1   -1    0    0    0  501 -0.00000000000E+00  0.00000000000E+00  0.49291257594E+03  0.49291257594E+03  0.00000000000E+00 0.  1.
          2   -1    0    0  501    0  0.00000000000E+00 -0.00000000000E+00 -0.18684271510E+04  0.18684271510E+04  0.00000000000E+00 0. -1.
         24    2    1    2    0    0 -0.52704772191E+03 -0.43374346108E+03 -0.16877332962E+03  0.70765889194E+03  0.79899808217E+02 0.  0.
        254    2    1    2    0    0  0.52704772191E+03  0.43374346108E+03 -0.12067412454E+04  0.16536808350E+04  0.90140067637E+03 0.  0.
         23    2    4    4    0    0 -0.24497122069E+03  0.94292200661E+02 -0.36854244962E+03  0.46116791504E+03  0.89164962931E+02 0.  0.
         23    2    4    4    0    0  0.77201894261E+03  0.33945126042E+03 -0.83819879580E+03  0.11925129199E+04  0.90936444783E+02 0.  0.
          4    1    3    3  502    0 -0.16567054935E+03 -0.11366095440E+03 -0.17072908612E+02  0.20163587896E+03  0.00000000000E+00 0. -1.
         -3    1    3    3    0  502 -0.36137717257E+03 -0.32008250668E+03 -0.15170042100E+03  0.50602301298E+03  0.00000000000E+00 0.  1.
         11    1    5    5    0    0 -0.13829998593E+03  0.77309651888E+02 -0.15391314984E+03  0.22089120869E+03  0.00000000000E+00 0. -1.
        -11    1    5    5    0    0 -0.10667123476E+03  0.16982548773E+02 -0.21462929978E+03  0.24027670634E+03  0.00000000000E+00 0.  1.
          4    1    6    6  503    0  0.91853914194E+02  0.23997338833E+02 -0.13153340658E+03  0.16221606230E+03  0.00000000000E+00 0. -1.
         -4    1    6    6    0  503  0.68016502841E+03  0.31545392159E+03 -0.70666538922E+03  0.10302968576E+04  0.00000000000E+00 0.  1.
<mgrwt>
<rscale>  0 0.19193449E+04</rscale>
<asrwt>0</asrwt>
<pdfrwt beam="1">  1        2 0.28745033E+00 0.19193449E+04</pdfrwt>
<pdfrwt beam="2">  1       -1 0.75832704E-01 0.19193449E+04</pdfrwt>
<totfact> 0.14707269E+01</totfact>
</mgrwt>
</event>
<event>
12    6  0.1530720E-007  0.1915822E+04  0.7818608E-02  0.8647021E-01
         -1   -1    0    0    0  501 -0.00000000000E+00  0.00000000000E+00  0.83016542091E+03  0.83016542091E+03  0.00000000000E+00 0.  1.
          2   -1    0    0  501    0  0.00000000000E+00 -0.00000000000E+00 -0.11053135802E+04  0.11053135802E+04  0.00000000000E+00 0. -1.
         24    2    1    2    0    0 -0.47535079363E+03 -0.44069763235E+03 -0.46780914393E+03  0.80266689358E+03  0.72498046517E+02 0.  0.
        254    2    1    2    0    0  0.47535079363E+03  0.44069763235E+03  0.19266098466E+03  0.11328121075E+04  0.90883014681E+03 0.  0.
         23    2    4    4    0    0  0.34191570045E+03 -0.96201661722E+02 -0.22851899346E+03  0.43177261214E+03  0.89697002685E+02 0.  0.
         23    2    4    4    0    0  0.13343509317E+03  0.53689929407E+03  0.42117997812E+03  0.70103949537E+03  0.89431672443E+02 0.  0.
          4    1    3    3  502    0 -0.41160739320E+03 -0.40450137069E+03 -0.39488685686E+03  0.69926935779E+03  0.00000000000E+00 0. -1.
         -3    1    3    3    0  502 -0.63743400428E+02 -0.36196261660E+02 -0.72922287063E+02  0.10339753579E+03  0.00000000000E+00 0.  1.
         11    1    5    5    0    0  0.15846050523E+03 -0.56096644250E+02 -0.57152981475E+02  0.17754725711E+03  0.00000000000E+00 0.  1.
        -11    1    5    5    0    0  0.18345519522E+03 -0.40105017472E+02 -0.17136601198E+03  0.25422535504E+03  0.00000000000E+00 0. -1.
          4    1    6    6  503    0  0.11341586699E+03  0.34891091868E+03  0.31883211422E+03  0.48606162687E+03  0.00000000000E+00 0. -1.
         -4    1    6    6    0  503  0.20019226182E+02  0.18798837539E+03  0.10234786390E+03  0.21497786850E+03  0.00000000000E+00 0.  1.
<mgrwt>
<rscale>  0 0.19158216E+04</rscale>
<asrwt>0</asrwt>
<pdfrwt beam="1">  1        2 0.17004824E+00 0.19158216E+04</pdfrwt>
<pdfrwt beam="2">  1       -1 0.12771776E+00 0.19158216E+04</pdfrwt>
<totfact> 0.12233248E+01</totfact>
</mgrwt>
</event>
<event>
12    6  0.1530720E-007  0.2875944E+04  0.7818608E-02  0.8280071E-01
         -1   -1    0    0    0  501 -0.00000000000E+00  0.00000000000E+00  0.20890639554E+04  0.20890639554E+04  0.00000000000E+00 0.  1.
          2   -1    0    0  501    0  0.00000000000E+00 -0.00000000000E+00 -0.98980358123E+03  0.98980358123E+03  0.00000000000E+00 0. -1.
         24    2    1    2    0    0  0.91014088131E+03  0.47052323990E+03  0.13398528833E+04  0.16886814580E+04  0.81797155189E+02 0.  0.
        254    2    1    2    0    0 -0.91014088131E+03 -0.47052323990E+03 -0.24059250912E+03  0.13901860786E+04  0.90828631758E+03 0.  0.
         23    2    4    4    0    0  0.95445175676E+01  0.17531244816E+03 -0.16836849008E+03  0.26033688701E+03  0.92745856976E+02 0.  0.
         23    2    4    4    0    0 -0.91968539887E+03 -0.64583568806E+03 -0.72224019034E+02  0.11298491916E+04  0.91749212756E+02 0.  0.
          2    1    3    3  502    0  0.54880966417E+03  0.31850240018E+03  0.86886803346E+03  0.10759031025E+04  0.00000000000E+00 0. -1.
         -1    1    3    3    0  502  0.36133121714E+03  0.15202083972E+03  0.47098484980E+03  0.61277835546E+03  0.00000000000E+00 0.  1.
         11    1    5    5    0    0 -0.13727775807E+02  0.10883333897E+03 -0.45595414885E+02  0.11879431535E+03  0.00000000000E+00 0. -1.
        -11    1    5    5    0    0  0.23272293374E+02  0.66479109190E+02 -0.12277307520E+03  0.14154257166E+03  0.00000000000E+00 0.  1.
          3    1    6    6  503    0 -0.28709154476E+03 -0.20708950788E+03 -0.65326903253E+02  0.35996558674E+03  0.00000000000E+00 0. -1.
         -3    1    6    6    0  503 -0.63259385412E+03 -0.43874618019E+03 -0.68971157807E+01  0.76988360490E+03  0.00000000000E+00 0.  1.
<mgrwt>
<rscale>  0 0.28759437E+04</rscale>
<asrwt>0</asrwt>
<pdfrwt beam="1">  1        2 0.15227747E+00 0.28759437E+04</pdfrwt>
<pdfrwt beam="2">  1       -1 0.32139445E+00 0.28759437E+04</pdfrwt>
<totfact> 0.60403938E-01</totfact>
</mgrwt>
</event>
<event>
12    6  0.1530720E-007  0.1073994E+04  0.7818608E-02  0.9230916E-01
          2   -1    0    0  501    0  0.00000000000E+00  0.00000000000E+00  0.18137380505E+04  0.18137380505E+04  0.00000000000E+00 0. -1.
         -1   -1    0    0    0  501 -0.00000000000E+00 -0.00000000000E+00 -0.15898987543E+03  0.15898987543E+03  0.00000000000E+00 0.  1.
         24    2    1    2    0    0 -0.65714948230E+02  0.13983885046E+02  0.23737744012E+02  0.10726494492E+03  0.80176582960E+02 0.  0.
        254    2    1    2    0    0  0.65714948230E+02 -0.13983885046E+02  0.16310104310E+04  0.18654629810E+04  0.90290813700E+03 0.  0.
         23    2    4    4    0    0 -0.37359120503E+03 -0.11565629764E+03  0.47880754394E+03  0.62495661681E+03  0.91473171546E+02 0.  0.
         23    2    4    4    0    0  0.43930615325E+03  0.10167241259E+03  0.11522028871E+04  0.12405063642E+04  0.89204096161E+02 0.  0.
          2    1    3    3  502    0 -0.14640624753E+02 -0.31668381161E+02  0.38677213847E+00  0.34891028234E+02  0.00000000000E+00 0. -1.
         -1    1    3    3    0  502 -0.51074323476E+02  0.45652266207E+02  0.23350971874E+02  0.72373916682E+02  0.00000000000E+00 0.  1.
         11    1    5    5    0    0 -0.19488396946E+03 -0.28985275010E+02  0.18467933847E+03  0.27004882111E+03  0.00000000000E+00 0. -1.
        -11    1    5    5    0    0 -0.17870723556E+03 -0.86671022627E+02  0.29412820546E+03  0.35490779571E+03  0.00000000000E+00 0.  1.
          2    1    6    6  503    0  0.53591286898E+02  0.19059031744E+02  0.24035749471E+03  0.24699594731E+03  0.00000000000E+00 0. -1.
         -2    1    6    6    0  503  0.38571486636E+03  0.82613380847E+02  0.91184539239E+03  0.99351041688E+03  0.00000000000E+00 0.  1.
<mgrwt>
<rscale>  0 0.10739944E+04</rscale>
<asrwt>0</asrwt>
<pdfrwt beam="1">  1        2 0.27903661E+00 0.10739944E+04</pdfrwt>
<pdfrwt beam="2">  1       -1 0.24459982E-01 0.10739944E+04</pdfrwt>
<totfact> 0.13978361E+02</totfact>
</mgrwt>
</event>
<event>
12    6  0.1530720E-007  0.1972414E+04  0.7818608E-02  0.8619627E-01
          2   -1    0    0  501    0  0.00000000000E+00  0.00000000000E+00  0.25547452101E+04  0.25547452101E+04  0.00000000000E+00 0. -1.
         -1   -1    0    0    0  501 -0.00000000000E+00 -0.00000000000E+00 -0.38070515211E+03  0.38070515211E+03  0.00000000000E+00 0.  1.
         24    2    1    2    0    0  0.18349757336E+03  0.73473145769E+03  0.11507965165E+04  0.13799403666E+04  0.80006991298E+02 0.  0.
        254    2    1    2    0    0 -0.18349757336E+03 -0.73473145769E+03  0.10232435415E+04  0.15555099956E+04  0.89391404895E+03 0.  0.
         23    2    4    4    0    0 -0.36309559946E+03  0.79381985441E+01  0.18391902257E+03  0.41691260193E+03  0.89935985224E+02 0.  0.
         23    2    4    4    0    0  0.17959802610E+03 -0.74266965623E+03  0.83932451896E+03  0.11385973937E+04  0.90137159805E+02 0.  0.
          4    1    3    3  502    0  0.54902258406E+02  0.18561344739E+03  0.23545437499E+03  0.30480382631E+03  0.00000000000E+00 0. -1.
         -3    1    3    3    0  502  0.12859531496E+03  0.54911801030E+03  0.91534214147E+03  0.10751365403E+04  0.00000000000E+00 0.  1.
         11    1    5    5    0    0 -0.31151847109E+03  0.32370528085E+02  0.17609806873E+03  0.35930786066E+03  0.00000000000E+00 0.  1.
        -11    1    5    5    0    0 -0.51577128376E+02 -0.24432329541E+02  0.78209538377E+01  0.57604741274E+02  0.00000000000E+00 0. -1.
          1    1    6    6  503    0  0.16444715984E+02 -0.23995208375E+03  0.27809859344E+03  0.36767684025E+03  0.00000000000E+00 0. -1.
         -1    1    6    6    0  503  0.16315331012E+03 -0.50271757248E+03  0.56122592553E+03  0.77092055347E+03  0.00000000000E+00 0.  1.
<mgrwt>
<rscale>  0 0.19724144E+04</rscale>
<asrwt>0</asrwt>
<pdfrwt beam="1">  1        2 0.39303771E+00 0.19724144E+04</pdfrwt>
<pdfrwt beam="2">  1       -1 0.58570025E-01 0.19724144E+04</pdfrwt>
<totfact> 0.10136822E+01</totfact>
</mgrwt>
</event>
<event>
12    6  0.1530720E-007  0.1803244E+04  0.7818608E-02  0.8704576E-01
         -1   -1    0    0    0  501 -0.00000000000E+00  0.00000000000E+00  0.65159402199E+03  0.65159402199E+03  0.00000000000E+00 0.  1.
          2   -1    0    0  501    0  0.00000000000E+00 -0.00000000000E+00 -0.12475897795E+04  0.12475897795E+04  0.00000000000E+00 0. -1.
         24    2    1    2    0    0  0.65434656471E+03 -0.15434739774E+03 -0.25213835914E+03  0.72268189694E+03  0.81870788917E+02 0.  0.
        254    2    1    2    0    0 -0.65434656471E+03  0.15434739774E+03 -0.34385739834E+03  0.11765019045E+04  0.90217862701E+03 0.  0.
         23    2    4    4    0    0  0.29517677413E+02  0.38518510459E+03 -0.96455413152E+02  0.40813455296E+03  0.89617568158E+02 0.  0.
         23    2    4    4    0    0 -0.68386424212E+03 -0.23083770684E+03 -0.24740198519E+03  0.76836735157E+03  0.90687905094E+02 0.  0.
          2    1    3    3  502    0  0.18432098188E+03 -0.48414291595E+02 -0.33147938753E+02  0.19343462419E+03  0.00000000000E+00 0. -1.
         -1    1    3    3    0  502  0.47002558283E+03 -0.10593310615E+03 -0.21899042039E+03  0.52924727275E+03  0.00000000000E+00 0.  1.
         11    1    5    5    0    0  0.11824295608E+02  0.12229334170E+03 -0.74611707310E+02  0.14374415556E+03  0.00000000000E+00 0. -1.
        -11    1    5    5    0    0  0.17693381805E+02  0.26289176289E+03 -0.21843705841E+02  0.26439039740E+03  0.00000000000E+00 0.  1.
          1    1    6    6  503    0 -0.30539598732E+00 -0.78101081430E+01 -0.61656375748E+01  0.99552068094E+01  0.00000000000E+00 0. -1.
         -1    1    6    6    0  503 -0.68355884613E+03 -0.22302759870E+03 -0.24123634762E+03  0.75841214476E+03  0.00000000000E+00 0.  1.
<mgrwt>
<rscale>  0 0.18032438E+04</rscale>
<asrwt>0</asrwt>
<pdfrwt beam="1">  1        2 0.19193689E+00 0.18032438E+04</pdfrwt>
<pdfrwt beam="2">  1       -1 0.10024524E+00 0.18032438E+04</pdfrwt>
<totfact> 0.18100278E+01</totfact>
</mgrwt>
</event>
<event>
12    6  0.1530720E-007  0.2572414E+04  0.7818608E-02  0.8377632E-01
         -1   -1    0    0    0  501 -0.00000000000E+00  0.00000000000E+00  0.91252771810E+03  0.91252771810E+03  0.00000000000E+00 0.  1.
          2   -1    0    0  501    0  0.00000000000E+00 -0.00000000000E+00 -0.18129078888E+04  0.18129078888E+04  0.00000000000E+00 0. -1.
         24    2    1    2    0    0  0.10560834086E+03 -0.21952651000E+03  0.76968434270E+03  0.81143379013E+03  0.81644339160E+02 0.  0.
        254    2    1    2    0    0 -0.10560834086E+03  0.21952651000E+03 -0.16700645134E+04  0.19140018168E+04  0.90274163826E+03 0.  0.
         23    2    4    4    0    0 -0.89266277456E+02  0.50991976529E+03 -0.58247315327E+03  0.78455092430E+03  0.90876527344E+02 0.  0.
         23    2    4    4    0    0 -0.16342063402E+02 -0.29039325529E+03 -0.10875913602E+04  0.11294508925E+04  0.90603786405E+02 0.  0.
          2    1    3    3  502    0  0.43622044940E+02 -0.42350580447E+02  0.11140439050E+03  0.12691490334E+03  0.00000000000E+00 0. -1.
         -1    1    3    3    0  502  0.61986295918E+02 -0.17717592956E+03  0.65827995220E+03  0.68451888679E+03  0.00000000000E+00 0.  1.
         11    1    5    5    0    0 -0.95280356365E+02  0.50957781956E+03 -0.58032668558E+03  0.77815612989E+03  0.00000000000E+00 0. -1.
        -11    1    5    5    0    0  0.60140789088E+01  0.34194573239E+00 -0.21464676880E+01  0.63947944096E+01  0.00000000000E+00 0.  1.
          4    1    6    6  503    0 -0.45200706880E+01 -0.29091833457E+03 -0.10639158568E+04  0.11029827101E+04  0.00000000000E+00 0. -1.
         -4    1    6    6    0  503 -0.11821992714E+02  0.52507928800E+00 -0.23675503381E+02  0.26468182414E+02  0.00000000000E+00 0.  1.
<mgrwt>
<rscale>  0 0.25724142E+04</rscale>
<asrwt>0</asrwt>
<pdfrwt beam="1">  1        2 0.27890891E+00 0.25724142E+04</pdfrwt>
<pdfrwt beam="2">  1       -1 0.14038888E+00 0.25724142E+04</pdfrwt>
<totfact> 0.35640525E+00</totfact>
</mgrwt>
</event>
<event>
12    6  0.1530720E-007  0.1150130E+04  0.7818608E-02  0.9157664E-01
         -3   -1    0    0    0  501 -0.00000000000E+00  0.00000000000E+00  0.28244428241E+03  0.28244428241E+03  0.00000000000E+00 0.  1.
          2   -1    0    0  501    0  0.00000000000E+00 -0.00000000000E+00 -0.11708494925E+04  0.11708494925E+04  0.00000000000E+00 0. -1.
         24    2    1    2    0    0  0.33705360377E+02 -0.14435617663E+03  0.14606111773E+02  0.16893204435E+03  0.79686511131E+02 0.  0.
        254    2    1    2    0    0 -0.33705360377E+02  0.14435617663E+03 -0.90301132185E+03  0.12843617306E+04  0.90121076916E+03 0.  0.
         23    2    4    4    0    0  0.10386714282E+03  0.30169183883E+03 -0.98684259036E+03  0.10410668033E+04  0.90307484708E+02 0.  0.
         23    2    4    4    0    0 -0.13757250319E+03 -0.15733566220E+03  0.83831268509E+02  0.24329492726E+03  0.92108825930E+02 0.  0.
          4    1    3    3  502    0 -0.22974810537E+02 -0.34938419752E+02 -0.10634556310E+02  0.43146597570E+02  0.00000000000E+00 0. -1.
         -1    1    3    3    0  502  0.56680170914E+02 -0.10941775688E+03  0.25240668083E+02  0.12578544678E+03  0.00000000000E+00 0.  1.
         11    1    5    5    0    0  0.66881201214E+02  0.23323740389E+03 -0.84662453487E+03  0.88070760454E+03  0.00000000000E+00 0. -1.
        -11    1    5    5    0    0  0.36985941601E+02  0.68454434942E+02 -0.14021805549E+03  0.16035919875E+03  0.00000000000E+00 0.  1.
          3    1    6    6  503    0 -0.12270358540E+03 -0.75357060398E+02  0.64410578302E+02  0.15774529793E+03  0.00000000000E+00 0. -1.
         -3    1    6    6    0  503 -0.14868917792E+02 -0.81978601801E+02  0.19420690207E+02  0.85549629325E+02  0.00000000000E+00 0.  1.
<mgrwt>
<rscale>  0 0.11501300E+04</rscale>
<asrwt>0</asrwt>
<pdfrwt beam="1">  1        2 0.18013069E+00 0.11501300E+04</pdfrwt>
<pdfrwt beam="2">  1       -3 0.43452966E-01 0.11501300E+04</pdfrwt>
<totfact> 0.65781238E+01</totfact>
</mgrwt>
</event>
<event>
12    6  0.1530720E-007  0.1294351E+04  0.7818608E-02  0.9034057E-01
         -1   -1    0    0    0  501 -0.00000000000E+00  0.00000000000E+00  0.38420769732E+03  0.38420769732E+03  0.00000000000E+00 0.  1.
          2   -1    0    0  501    0  0.00000000000E+00 -0.00000000000E+00 -0.10901287468E+04  0.10901287468E+04  0.00000000000E+00 0. -1.
         24    2    1    2    0    0  0.76188180282E+02  0.65874179099E+02  0.16642432708E+03  0.21058423707E+03  0.80651211859E+02 0.  0.
        254    2    1    2    0    0 -0.76188180282E+02 -0.65874179099E+02 -0.87234537659E+03  0.12637522071E+04  0.90881193795E+03 0.  0.
         23    2    4    4    0    0 -0.48097315725E+02  0.40653953363E+03 -0.51378925255E+03  0.66304306213E+03  0.89771721735E+02 0.  0.
         23    2    4    4    0    0 -0.28090864558E+02 -0.47241371273E+03 -0.35855612404E+03  0.60070914495E+03  0.91242370065E+02 0.  0.
          2    1    3    3  502    0  0.31345181516E+02 -0.10332146289E+02  0.17418893036E+02  0.37318781945E+02  0.00000000000E+00 0. -1.
         -1    1    3    3    0  502  0.44842998766E+02  0.76206325388E+02  0.14900543404E+03  0.17326545513E+03  0.00000000000E+00 0.  1.
         11    1    5    5    0    0 -0.49084669874E+02  0.41129711647E+03 -0.50698284049E+03  0.65468024515E+03  0.00000000000E+00 0.  1.
        -11    1    5    5    0    0  0.98735414899E+00 -0.47575828470E+01 -0.68064120594E+01  0.83628169825E+01  0.00000000000E+00 0. -1.
          1    1    6    6  503    0  0.33698403199E+00 -0.40130620289E+02 -0.29614774657E+01  0.40241155448E+02  0.00000000000E+00 0. -1.
         -1    1    6    6    0  503 -0.28427848590E+02 -0.43228309244E+03 -0.35559464658E+03  0.56046798950E+03  0.00000000000E+00 0.  1.
<mgrwt>
<rscale>  0 0.12943506E+04</rscale>
<asrwt>0</asrwt>
<pdfrwt beam="1">  1        2 0.16771211E+00 0.12943506E+04</pdfrwt>
<pdfrwt beam="2">  1       -1 0.59108877E-01 0.12943506E+04</pdfrwt>
<totfact> 0.71682149E+01</totfact>
</mgrwt>
</event>
<event>
12    6  0.1530720E-007  0.1821237E+04  0.7818608E-02  0.8695087E-01
          2   -1    0    0  501    0  0.00000000000E+00  0.00000000000E+00  0.26714179546E+04  0.26714179546E+04  0.00000000000E+00 0. -1.
         -1   -1    0    0    0  501 -0.00000000000E+00 -0.00000000000E+00 -0.31040660381E+03  0.31040660381E+03  0.00000000000E+00 0.  1.
         24    2    1    2    0    0 -0.56628309382E+02  0.58073257967E+03  0.30604224206E+03  0.66349504866E+03  0.78145576754E+02 0.  0.
        254    2    1    2    0    0  0.56628309382E+02 -0.58073257967E+03  0.20549691087E+04  0.23183295097E+04  0.90072003609E+03 0.  0.
         23    2    4    4    0    0 -0.12309512736E+02 -0.22978811181E+02  0.15635144232E+04  0.15664344452E+04  0.91978093894E+02 0.  0.
         23    2    4    4    0    0  0.68937822118E+02 -0.55775376849E+03  0.49145468556E+03  0.75189506456E+03  0.89312880182E+02 0.  0.
          2    1    3    3  502    0 -0.23925415152E+02  0.11406632148E+03  0.94646985214E+02  0.15013861261E+03  0.00000000000E+00 0. -1.
         -1    1    3    3    0  502 -0.32702894230E+02  0.46666625819E+03  0.21139525685E+03  0.51335643606E+03  0.00000000000E+00 0.  1.
         11    1    5    5    0    0  0.10537559153E+02 -0.12803248662E+02  0.49309402564E+02  0.52022884488E+02  0.00000000000E+00 0.  1.
        -11    1    5    5    0    0 -0.22847071889E+02 -0.10175562519E+02  0.15142050206E+04  0.15144115607E+04  0.00000000000E+00 0. -1.
          2    1    6    6  503    0  0.52723701181E+01 -0.44369030968E+00  0.15053509302E+02  0.15956280583E+02  0.00000000000E+00 0.  1.
         -2    1    6    6    0  503  0.63665452000E+02 -0.55731007818E+03  0.47640117626E+03  0.73593878397E+03  0.00000000000E+00 0. -1.
<mgrwt>
<rscale>  0 0.18212367E+04</rscale>
<asrwt>0</asrwt>
<pdfrwt beam="1">  1        2 0.41098736E+00 0.18212367E+04</pdfrwt>
<pdfrwt beam="2">  1       -1 0.47754864E-01 0.18212367E+04</pdfrwt>
<totfact> 0.13001442E+01</totfact>
</mgrwt>
</event>
<event>
12    6  0.1530720E-007  0.1505918E+04  0.7818608E-02  0.8880527E-01
         -1   -1    0    0    0  501 -0.00000000000E+00  0.00000000000E+00  0.12919132646E+04  0.12919132646E+04  0.00000000000E+00 0.  1.
          2   -1    0    0  501    0  0.00000000000E+00 -0.00000000000E+00 -0.43884291962E+03  0.43884291962E+03  0.00000000000E+00 0. -1.
         24    2    1    2    0    0  0.18657128046E+02  0.34275493359E+01 -0.27544628259E+03  0.28655566044E+03  0.76704989524E+02 0.  0.
        254    2    1    2    0    0 -0.18657128046E+02 -0.34275493359E+01  0.11285166276E+04  0.14442005238E+04  0.90100251811E+03 0.  0.
         23    2    4    4    0    0 -0.36651813153E+03  0.13367537543E+03  0.21947247203E+03  0.45692075226E+03  0.91672030256E+02 0.  0.
         23    2    4    4    0    0  0.34786100348E+03 -0.13710292476E+03  0.90904415554E+03  0.98727977151E+03  0.92496382601E+02 0.  0.
          2    1    3    3  502    0  0.26513872053E+02 -0.19097908746E+02 -0.24819814921E+03  0.25033984262E+03  0.00000000000E+00 0. -1.
         -1    1    3    3    0  502 -0.78567440064E+01  0.22525458081E+02 -0.27248133378E+02  0.36215817825E+02  0.00000000000E+00 0.  1.
         11    1    5    5    0    0 -0.34768238758E+03  0.99347726658E+02  0.19877940531E+03  0.41263333045E+03  0.00000000000E+00 0.  1.
        -11    1    5    5    0    0 -0.18835743952E+02  0.34327648768E+02  0.20693066716E+02  0.44287421806E+02  0.00000000000E+00 0. -1.
          2    1    6    6  503    0  0.57484906589E+02 -0.82372554871E+01  0.23579837379E+03  0.24284406508E+03  0.00000000000E+00 0. -1.
         -2    1    6    6    0  503  0.29037609689E+03 -0.12886566927E+03  0.67324578175E+03  0.74443570643E+03  0.00000000000E+00 0.  1.
<mgrwt>
<rscale>  0 0.15059176E+04</rscale>
<asrwt>0</asrwt>
<pdfrwt beam="1">  1        2 0.67514296E-01 0.15059176E+04</pdfrwt>
<pdfrwt beam="2">  1       -1 0.19875588E+00 0.15059176E+04</pdfrwt>
<totfact> 0.12134617E+01</totfact>
</mgrwt>
</event>
<event>
12    6  0.1530720E-007  0.1218145E+04  0.7818608E-02  0.9097121E-01
         -1   -1    0    0    0  501 -0.00000000000E+00  0.00000000000E+00  0.24086911007E+03  0.24086911007E+03  0.00000000000E+00 0.  1.
          2   -1    0    0  501    0  0.00000000000E+00 -0.00000000000E+00 -0.15401282456E+04  0.15401282456E+04  0.00000000000E+00 0. -1.
         24    2    1    2    0    0  0.55776312067E+02  0.16093074296E+03 -0.11712394914E+01  0.18791023928E+03  0.79367406442E+02 0.  0.
        254    2    1    2    0    0 -0.55776312067E+02 -0.16093074296E+03 -0.12980878961E+04  0.15930871164E+04  0.90768093159E+03 0.  0.
         23    2    4    4    0    0  0.40385792637E+03 -0.18210795054E+03 -0.58846876024E+03  0.74218114623E+03  0.90955163099E+02 0.  0.
         23    2    4    4    0    0 -0.45963423844E+03  0.21177207579E+02 -0.70961913582E+03  0.85090597019E+03  0.93645848335E+02 0.  0.
          2    1    3    3  502    0  0.23175486615E+02  0.26820702227E+02 -0.30558770145E+02  0.46800552140E+02  0.00000000000E+00 0. -1.
         -1    1    3    3    0  502  0.32600825452E+02  0.13411004074E+03  0.29387530654E+02  0.14110968714E+03  0.00000000000E+00 0.  1.
         11    1    5    5    0    0  0.19864591803E+03 -0.13849888336E+03 -0.32880713946E+03  0.40835802477E+03  0.00000000000E+00 0. -1.
        -11    1    5    5    0    0  0.20521200834E+03 -0.43609067186E+02 -0.25966162079E+03  0.33382312146E+03  0.00000000000E+00 0.  1.
          2    1    6    6  503    0 -0.35815386728E+03  0.55213707867E+02 -0.53918291756E+03  0.64964680001E+03  0.00000000000E+00 0. -1.
         -2    1    6    6    0  503 -0.10148037116E+03 -0.34036500288E+02 -0.17043621827E+03  0.20125917018E+03  0.00000000000E+00 0.  1.
<mgrwt>
<rscale>  0 0.12181450E+04</rscale>
<asrwt>0</asrwt>
<pdfrwt beam="1">  1        2 0.23694280E+00 0.12181450E+04</pdfrwt>
<pdfrwt beam="2">  1       -1 0.37056787E-01 0.12181450E+04</pdfrwt>
<totfact> 0.94685266E+01</totfact>
</mgrwt>
</event>
<event>
12    6  0.1530720E-007  0.1897934E+04  0.7818608E-02  0.8655885E-01
          2   -1    0    0  501    0  0.00000000000E+00  0.00000000000E+00  0.72222449240E+03  0.72222449240E+03  0.00000000000E+00 0. -1.
         -1   -1    0    0    0  501 -0.00000000000E+00 -0.00000000000E+00 -0.12468953720E+04  0.12468953720E+04  0.00000000000E+00 0.  1.
         24    2    1    2    0    0  0.30685435762E+03  0.26818657775E+03 -0.83322156835E+03  0.93075964187E+03  0.77276721601E+02 0.  0.
        254    2    1    2    0    0 -0.30685435762E+03 -0.26818657775E+03  0.30855068874E+03  0.10383602225E+04  0.90382785250E+03 0.  0.
         23    2    4    4    0    0 -0.45379505331E+03  0.19021884725E+03  0.18398364154E+03  0.53319359075E+03  0.91281239070E+02 0.  0.
         23    2    4    4    0    0  0.14694069569E+03 -0.45840542500E+03  0.12456704720E+03  0.50516663179E+03  0.89158706282E+02 0.  0.
          2    1    3    3  502    0  0.54289023169E+00 -0.43293239305E+01 -0.14137277585E+02  0.14795282796E+02  0.00000000000E+00 0. -1.
         -1    1    3    3    0  502  0.30631146739E+03  0.27251590168E+03 -0.81908429076E+03  0.91596435908E+03  0.00000000000E+00 0.  1.
         11    1    5    5    0    0 -0.28455126445E+03  0.15857126413E+03  0.94668591401E+02  0.33922914100E+03  0.00000000000E+00 0. -1.
        -11    1    5    5    0    0 -0.16924378886E+03  0.31647583124E+02  0.89315050142E+02  0.19396444975E+03  0.00000000000E+00 0.  1.
          3    1    6    6  503    0  0.52231874652E+02 -0.29690301804E+03  0.91521226071E+02  0.31504873539E+03  0.00000000000E+00 0. -1.
         -3    1    6    6    0  503  0.94708821035E+02 -0.16150240696E+03  0.33045821124E+02  0.19011789640E+03  0.00000000000E+00 0.  1.
<mgrwt>
<rscale>  0 0.18979340E+04</rscale>
<asrwt>0</asrwt>
<pdfrwt beam="1">  1        2 0.11111146E+00 0.18979340E+04</pdfrwt>
<pdfrwt beam="2">  1       -1 0.19183005E+00 0.18979340E+04</pdfrwt>
<totfact> 0.72222518E+00</totfact>
</mgrwt>
</event>
<event>
12    6  0.1530720E-007  0.2082850E+04  0.7818608E-02  0.8568836E-01
         -1   -1    0    0    0  501 -0.00000000000E+00  0.00000000000E+00  0.86225660436E+03  0.86225660436E+03  0.00000000000E+00 0.  1.
          2   -1    0    0  501    0  0.00000000000E+00 -0.00000000000E+00 -0.12578232192E+04  0.12578232192E+04  0.00000000000E+00 0. -1.
         24    2    1    2    0    0  0.27583148800E+02 -0.34395825422E+03  0.56949256728E+03  0.67053212632E+03  0.78888766635E+02 0.  0.
        254    2    1    2    0    0 -0.27583148800E+02  0.34395825422E+03 -0.96505918208E+03  0.14495476972E+04  0.10250761878E+04 0.  0.
         23    2    4    4    0    0 -0.30675875875E+03  0.47164826497E+03 -0.17243525915E+03  0.59544021894E+03  0.90896170498E+02 0.  0.
         23    2    4    4    0    0  0.27917560995E+03 -0.12769001075E+03 -0.79262392294E+03  0.85410747827E+03  0.83684772704E+02 0.  0.
          4    1    3    3  502    0 -0.83906850733E+01 -0.16187219492E+02  0.67573906591E+02  0.69990445940E+02  0.00000000000E+00 0. -1.
         -3    1    3    3    0  502  0.35973833873E+02 -0.32777103473E+03  0.50191866069E+03  0.60054168038E+03  0.00000000000E+00 0.  1.
         11    1    5    5    0    0 -0.18971183569E+03  0.24142979200E+03 -0.13119951844E+03  0.33390453532E+03  0.00000000000E+00 0. -1.
        -11    1    5    5    0    0 -0.11704692306E+03  0.23021847297E+03 -0.41235740702E+02  0.26153568361E+03  0.00000000000E+00 0.  1.
          1    1    6    6  503    0  0.14875216451E+03 -0.53709194399E+02 -0.29951762199E+03  0.33870738093E+03  0.00000000000E+00 0. -1.
         -1    1    6    6    0  503  0.13042344544E+03 -0.73980816350E+02 -0.49310630094E+03  0.51540009734E+03  0.00000000000E+00 0.  1.
<mgrwt>
<rscale>  0 0.20828503E+04</rscale>
<asrwt>0</asrwt>
<pdfrwt beam="1">  1        2 0.19351126E+00 0.20828503E+04</pdfrwt>
<pdfrwt beam="2">  1       -1 0.13265486E+00 0.20828503E+04</pdfrwt>
<totfact> 0.88701084E+00</totfact>
</mgrwt>
</event>
<event>
12    6  0.1530720E-007  0.1903252E+04  0.7818608E-02  0.8653239E-01
          2   -1    0    0  501    0  0.00000000000E+00  0.00000000000E+00  0.23384815208E+04  0.23384815208E+04  0.00000000000E+00 0. -1.
         -1   -1    0    0    0  501 -0.00000000000E+00 -0.00000000000E+00 -0.38725663660E+03  0.38725663660E+03  0.00000000000E+00 0.  1.
         24    2    1    2    0    0  0.32130740760E+01  0.44927448337E+03  0.15923586164E+04  0.16564068740E+04  0.78866240393E+02 0.  0.
        254    2    1    2    0    0 -0.32130740760E+01 -0.44927448337E+03  0.35886626781E+03  0.10693312834E+04  0.90156891594E+03 0.  0.
         23    2    4    4    0    0 -0.27409158836E+03 -0.10573152195E+03 -0.18895418125E+03  0.36104735633E+03  0.91357306006E+02 0.  0.
         23    2    4    4    0    0  0.27087851428E+03 -0.34354296142E+03  0.54782044906E+03  0.70828392704E+03  0.10080645346E+03 0.  0.
          2    1    3    3  502    0 -0.46654972017E+01  0.14124320161E+03  0.64096460841E+03  0.65635892475E+03  0.00000000000E+00 0. -1.
         -1    1    3    3    0  502  0.78785712777E+01  0.30803128176E+03  0.95139400798E+03  0.10000479493E+04  0.00000000000E+00 0.  1.
         11    1    5    5    0    0 -0.22681371409E+03 -0.10673542530E+03 -0.18869884910E+03  0.31375813546E+03  0.00000000000E+00 0.  1.
        -11    1    5    5    0    0 -0.47277874263E+02  0.10039033435E+01 -0.25533215532E+00  0.47289220878E+02  0.00000000000E+00 0. -1.
          4    1    6    6  503    0  0.61561950742E+02 -0.94529252403E+02  0.79248294946E+02  0.13786205276E+03  0.00000000000E+00 0. -1.
         -4    1    6    6    0  503  0.20931656354E+03 -0.24901370902E+03  0.46857215411E+03  0.57042187428E+03  0.00000000000E+00 0.  1.
<mgrwt>
<rscale>  0 0.19032525E+04</rscale>
<asrwt>0</asrwt>
<pdfrwt beam="1">  1        2 0.35976638E+00 0.19032525E+04</pdfrwt>
<pdfrwt beam="2">  1       -1 0.59577946E-01 0.19032525E+04</pdfrwt>
<totfact> 0.13130518E+01</totfact>
</mgrwt>
</event>
<event>
12    6  0.1530720E-007  0.3113968E+04  0.7818608E-02  0.8211915E-01
          2   -1    0    0  501    0  0.00000000000E+00  0.00000000000E+00  0.33758324133E+04  0.33758324133E+04  0.00000000000E+00 0. -1.
         -1   -1    0    0    0  501 -0.00000000000E+00 -0.00000000000E+00 -0.71810417540E+03  0.71810417540E+03  0.00000000000E+00 0.  1.
         24    2    1    2    0    0  0.97817047902E+02  0.11181851831E+04  0.23735520285E+04  0.26267788209E+04  0.79444717993E+02 0.  0.
        254    2    1    2    0    0 -0.97817047902E+02 -0.11181851831E+04  0.28417620936E+03  0.14671577678E+04  0.90104912123E+03 0.  0.
         23    2    4    4    0    0 -0.21877336034E+03 -0.80910144153E+03 -0.20625530117E+03  0.86801015553E+03  0.91615800813E+02 0.  0.
         23    2    4    4    0    0  0.12095631244E+03 -0.30908374161E+03  0.49043151053E+03  0.59914761223E+03  0.91058255379E+02 0.  0.
          4    1    3    3  502    0  0.48795556658E+02  0.91025786774E+03  0.19112695464E+04  0.21175225315E+04  0.00000000000E+00 0. -1.
         -3    1    3    3    0  502  0.49021491244E+02  0.20792731541E+03  0.46228248206E+03  0.50925628942E+03  0.00000000000E+00 0.  1.
         11    1    5    5    0    0 -0.72473855046E+02 -0.32250058412E+03 -0.12523820232E+03  0.35347375256E+03  0.00000000000E+00 0. -1.
        -11    1    5    5    0    0 -0.14629950529E+03 -0.48660085741E+03 -0.81017098851E+02  0.51453640298E+03  0.00000000000E+00 0.  1.
          4    1    6    6  503    0  0.10348453878E+03 -0.28532254847E+03  0.47991610006E+03  0.56783577690E+03  0.00000000000E+00 0. -1.
         -4    1    6    6    0  503  0.17471773654E+02 -0.23761193147E+02  0.10515410469E+02  0.31311835330E+02  0.00000000000E+00 0.  1.
<mgrwt>
<rscale>  0 0.31139681E+04</rscale>
<asrwt>0</asrwt>
<pdfrwt beam="1">  1        2 0.51935882E+00 0.31139681E+04</pdfrwt>
<pdfrwt beam="2">  1       -1 0.11047757E+00 0.31139681E+04</pdfrwt>
<totfact> 0.71978580E-01</totfact>
</mgrwt>
</event>
<event>
12    6  0.1530720E-007  0.2833520E+04  0.7818608E-02  0.8292937E-01
         -1   -1    0    0    0  501 -0.00000000000E+00  0.00000000000E+00  0.87533317093E+03  0.87533317093E+03  0.00000000000E+00 0.  1.
          2   -1    0    0  501    0  0.00000000000E+00 -0.00000000000E+00 -0.22930795709E+04  0.22930795709E+04  0.00000000000E+00 0. -1.
         24    2    1    2    0    0  0.10868784872E+04 -0.18054474965E+03 -0.13435284679E+04  0.17393422992E+04  0.79634397193E+02 0.  0.
        254    2    1    2    0    0 -0.10868784872E+04  0.18054474965E+03 -0.74217932144E+02  0.14290704427E+04  0.90710130427E+03 0.  0.
         23    2    4    4    0    0 -0.56214576149E+03  0.62404024388E+02  0.40594363511E+03  0.70199279199E+03  0.90008475727E+02 0.  0.
         23    2    4    4    0    0 -0.52473272569E+03  0.11814072526E+03 -0.48016156725E+03  0.72707765070E+03  0.93728944883E+02 0.  0.
          2    1    3    3  502    0  0.84624003522E+03 -0.12849474815E+03 -0.10905100884E+04  0.13863063696E+04  0.00000000000E+00 0. -1.
         -1    1    3    3    0  502  0.24063845196E+03 -0.52050001499E+02 -0.25301837944E+03  0.35303592955E+03  0.00000000000E+00 0.  1.
         11    1    5    5    0    0 -0.33317371054E+02 -0.98719409145E+01  0.65512654543E+01  0.35361299615E+02  0.00000000000E+00 0. -1.
        -11    1    5    5    0    0 -0.52882839043E+03  0.72275965302E+02  0.39939236965E+03  0.66663149238E+03  0.00000000000E+00 0.  1.
          2    1    6    6  503    0  0.36300332353E+01  0.91639317866E+00 -0.80851644742E+01  0.89099271782E+01  0.00000000000E+00 0. -1.
         -2    1    6    6    0  503 -0.52836275892E+03  0.11722433208E+03 -0.47207640278E+03  0.71816772352E+03  0.00000000000E+00 0.  1.
<mgrwt>
<rscale>  0 0.28335198E+04</rscale>
<asrwt>0</asrwt>
<pdfrwt beam="1">  1        2 0.35278146E+00 0.28335198E+04</pdfrwt>
<pdfrwt beam="2">  1       -1 0.13466665E+00 0.28335198E+04</pdfrwt>
<totfact> 0.20923160E+00</totfact>
</mgrwt>
</event>
<event>
12    6  0.1530720E-007  0.1472149E+04  0.7818608E-02  0.8903188E-01
         -1   -1    0    0    0  501 -0.00000000000E+00  0.00000000000E+00  0.46374296556E+03  0.46374296556E+03  0.00000000000E+00 0.  1.
          2   -1    0    0  501    0  0.00000000000E+00 -0.00000000000E+00 -0.11683321569E+04  0.11683321569E+04  0.00000000000E+00 0. -1.
         24    2    1    2    0    0 -0.22908583536E+03  0.11726084707E+03 -0.64493338347E+03  0.69896713493E+03  0.79909701431E+02 0.  0.
        254    2    1    2    0    0  0.22908583536E+03 -0.11726084707E+03 -0.59655807878E+02  0.93310798753E+03  0.89493087709E+03 0.  0.
         23    2    4    4    0    0 -0.34380626222E+02  0.16254558097E+03  0.32808409873E+03  0.37895201076E+03  0.91445925390E+02 0.  0.
         23    2    4    4    0    0  0.26346646159E+03 -0.27980642803E+03 -0.38773990661E+03  0.55415597677E+03  0.95081006835E+02 0.  0.
          2    1    3    3  502    0 -0.22338321880E+03  0.12637655873E+03 -0.63214075524E+03  0.68225584020E+03  0.00000000000E+00 0. -1.
         -1    1    3    3    0  502 -0.57026165592E+01 -0.91157116691E+01 -0.12792628229E+02  0.16711294739E+02  0.00000000000E+00 0.  1.
         11    1    5    5    0    0 -0.36253679224E+02  0.76729974566E+02  0.80733533566E+02  0.11713121572E+03  0.00000000000E+00 0.  1.
        -11    1    5    5    0    0  0.18730530017E+01  0.85815606402E+02  0.24735056517E+03  0.26182079504E+03  0.00000000000E+00 0. -1.
          1    1    6    6  503    0  0.12306216072E+03 -0.16752092310E+03 -0.15115122263E+03  0.25701020832E+03  0.00000000000E+00 0. -1.
         -1    1    6    6    0  503  0.14040430087E+03 -0.11228550493E+03 -0.23658868398E+03  0.29714576845E+03  0.00000000000E+00 0.  1.
<mgrwt>
<rscale>  0 0.14721492E+04</rscale>
<asrwt>0</asrwt>
<pdfrwt beam="1">  1        2 0.17974340E+00 0.14721492E+04</pdfrwt>
<pdfrwt beam="2">  1       -1 0.71345073E-01 0.14721492E+04</pdfrwt>
<totfact> 0.43349154E+01</totfact>
</mgrwt>
</event>
<event>
12    6  0.1530720E-007  0.2047869E+04  0.7818608E-02  0.8584561E-01
         -1   -1    0    0    0  501 -0.00000000000E+00  0.00000000000E+00  0.74474064689E+03  0.74474064689E+03  0.00000000000E+00 0.  1.
          2   -1    0    0  501    0  0.00000000000E+00 -0.00000000000E+00 -0.14077952418E+04  0.14077952418E+04  0.00000000000E+00 0. -1.
         24    2    1    2    0    0  0.61579636703E+03 -0.10972611509E+03 -0.82416006330E+03  0.10378541151E+04  0.81586569079E+02 0.  0.
        254    2    1    2    0    0 -0.61579636703E+03  0.10972611509E+03  0.16110546836E+03  0.11146817737E+04  0.90846876589E+03 0.  0.
         23    2    4    4    0    0  0.18977952914E+03  0.14321246041E+02 -0.13023474743E+03  0.24785378698E+03  0.90824239678E+02 0.  0.
         23    2    4    4    0    0 -0.80557589617E+03  0.95404869051E+02  0.29134021578E+03  0.86682798667E+03  0.91962077074E+02 0.  0.
          4    1    3    3  502    0  0.27919202633E+03 -0.10508642122E+02 -0.38553724160E+03  0.47612769693E+03  0.00000000000E+00 0. -1.
         -3    1    3    3    0  502  0.33660434071E+03 -0.99217472971E+02 -0.43862282170E+03  0.56172641814E+03  0.00000000000E+00 0.  1.
         11    1    5    5    0    0  0.11357399737E+03 -0.34585718720E+02 -0.88886331042E+02  0.14831050086E+03  0.00000000000E+00 0. -1.
        -11    1    5    5    0    0  0.76205531767E+02  0.48906964761E+02 -0.41348416384E+02  0.99543286119E+02  0.00000000000E+00 0.  1.
          3    1    6    6  503    0 -0.49933995924E+03  0.10153707802E+03  0.19725630810E+03  0.54640664728E+03  0.00000000000E+00 0. -1.
         -3    1    6    6    0  503 -0.30623593693E+03 -0.61322089673E+01  0.94083907684E+02  0.32042133939E+03  0.00000000000E+00 0.  1.
<mgrwt>
<rscale>  0 0.20478695E+04</rscale>
<asrwt>0</asrwt>
<pdfrwt beam="1">  1        2 0.21658388E+00 0.20478695E+04</pdfrwt>
<pdfrwt beam="2">  1       -1 0.11457548E+00 0.20478695E+04</pdfrwt>
<totfact> 0.10461202E+01</totfact>
</mgrwt>
</event>
<event>
12    6  0.1530720E-007  0.1206518E+04  0.7818608E-02  0.9107171E-01
         -1   -1    0    0    0  501 -0.00000000000E+00  0.00000000000E+00  0.30664910773E+03  0.30664910773E+03  0.00000000000E+00 0.  1.
          2   -1    0    0  501    0  0.00000000000E+00 -0.00000000000E+00 -0.11867678150E+04  0.11867678150E+04  0.00000000000E+00 0. -1.
         24    2    1    2    0    0  0.62403638696E+02  0.23090110604E+03 -0.22344054826E+03  0.33764869713E+03  0.82894084040E+02 0.  0.
        254    2    1    2    0    0 -0.62403638696E+02 -0.23090110604E+03 -0.65667815897E+03  0.11557682256E+04  0.92052400939E+03 0.  0.
         23    2    4    4    0    0 -0.84736354892E+02 -0.20930750883E+03 -0.88124311318E+03  0.91425958567E+03  0.91056478988E+02 0.  0.
         23    2    4    4    0    0  0.22332716196E+02 -0.21593597210E+02  0.22456495421E+03  0.24150863990E+03  0.83258458028E+02 0.  0.
          2    1    3    3  502    0  0.59259449911E+02  0.14728739925E+03 -0.18985319089E+03  0.24748635209E+03  0.00000000000E+00 0. -1.
         -1    1    3    3    0  502  0.31441887845E+01  0.83613706794E+02 -0.33587357378E+02  0.90162345037E+02  0.00000000000E+00 0.  1.
         11    1    5    5    0    0 -0.96834692317E+01  0.19315204507E+01 -0.80223423626E+01  0.12722355308E+02  0.00000000000E+00 0. -1.
        -11    1    5    5    0    0 -0.75052885660E+02 -0.21123902928E+03 -0.87322077082E+03  0.90153723036E+03  0.00000000000E+00 0.  1.
          3    1    6    6  503    0 -0.26286809262E+02 -0.13896809086E+02  0.36344912034E+02  0.46958175802E+02  0.00000000000E+00 0. -1.
         -3    1    6    6    0  503  0.48619525459E+02 -0.76967881250E+01  0.18822004217E+03  0.19455046409E+03  0.00000000000E+00 0.  1.
<mgrwt>
<rscale>  0 0.12065178E+04</rscale>
<asrwt>0</asrwt>
<pdfrwt beam="1">  1        2 0.18257966E+00 0.12065178E+04</pdfrwt>
<pdfrwt beam="2">  1       -1 0.47176787E-01 0.12065178E+04</pdfrwt>
<totfact> 0.97172526E+01</totfact>
</mgrwt>
</event>
<event>
12    6  0.1530720E-007  0.1868564E+04  0.7818608E-02  0.8670664E-01
         -1   -1    0    0    0  501 -0.00000000000E+00  0.00000000000E+00  0.69860875900E+03  0.69860875900E+03  0.00000000000E+00 0.  1.
          2   -1    0    0  501    0  0.00000000000E+00 -0.00000000000E+00 -0.12494593198E+04  0.12494593198E+04  0.00000000000E+00 0. -1.
         24    2    1    2    0    0  0.46640581872E+03 -0.29933723031E+03 -0.69475605328E+03  0.89243015124E+03  0.81292287949E+02 0.  0.
        254    2    1    2    0    0 -0.46640581872E+03  0.29933723031E+03  0.14390549246E+03  0.10556379276E+04  0.88686271665E+03 0.  0.
         23    2    4    4    0    0  0.20147696735E+03 -0.94495438686E+02  0.12660447054E+03  0.27425995418E+03  0.98323314649E+02 0.  0.
         23    2    4    4    0    0 -0.66788278606E+03  0.39383266900E+03  0.17301021918E+02  0.78137797339E+03  0.95292312641E+02 0.  0.
          4    1    3    3  502    0  0.46460410331E+03 -0.29812054160E+03 -0.69712014882E+03  0.88921838264E+03  0.00000000000E+00 0. -1.
         -3    1    3    3    0  502  0.18017154047E+01 -0.12166887139E+01  0.23640955346E+01  0.32117685973E+01  0.00000000000E+00 0.  1.
         11    1    5    5    0    0  0.90959834109E+01  0.71906639780E+01 -0.11662499774E+02  0.16445560606E+02  0.00000000000E+00 0.  1.
        -11    1    5    5    0    0  0.19238098394E+03 -0.10168610266E+03  0.13826697032E+03  0.25781439358E+03  0.00000000000E+00 0. -1.
          1    1    6    6  503    0 -0.35733347142E+03  0.18304429252E+03 -0.32298764615E+02  0.40278484706E+03  0.00000000000E+00 0. -1.
         -1    1    6    6    0  503 -0.31054931464E+03  0.21078837648E+03  0.49599786533E+02  0.37859312633E+03  0.00000000000E+00 0.  1.
<mgrwt>
<rscale>  0 0.18685644E+04</rscale>
<asrwt>0</asrwt>
<pdfrwt beam="1">  1        2 0.19222451E+00 0.18685644E+04</pdfrwt>
<pdfrwt beam="2">  1       -1 0.10747827E+00 0.18685644E+04</pdfrwt>
<totfact> 0.15275108E+01</totfact>
</mgrwt>
</event>
<event>
12    6  0.1530720E-007  0.1061715E+04  0.7818608E-02  0.9243332E-01
         -1   -1    0    0    0  501 -0.00000000000E+00  0.00000000000E+00  0.74154089779E+03  0.74154089779E+03  0.00000000000E+00 0.  1.
          2   -1    0    0  501    0  0.00000000000E+00 -0.00000000000E+00 -0.38003271587E+03  0.38003271587E+03  0.00000000000E+00 0. -1.
         24    2    1    2    0    0  0.61135516172E+01  0.53359862401E+01 -0.88321022824E+02  0.11901990456E+03  0.79368043605E+02 0.  0.
        254    2    1    2    0    0 -0.61135516172E+01 -0.53359862401E+01  0.44982920474E+03  0.10025537091E+04  0.89593625774E+03 0.  0.
         23    2    4    4    0    0  0.35940424759E+03  0.12752631176E+03  0.45805052398E+03  0.60282485512E+03  0.90294795320E+02 0.  0.
         23    2    4    4    0    0 -0.36551779921E+03 -0.13286229800E+03 -0.82213192399E+01  0.39972885398E+03  0.91977795402E+02 0.  0.
          4    1    3    3  502    0 -0.63178591568E+01  0.33441917875E+02 -0.10922591915E+02  0.35743254324E+02  0.00000000000E+00 0. -1.
         -3    1    3    3    0  502  0.12431410774E+02 -0.28105931635E+02 -0.77398430909E+02  0.83276650233E+02  0.00000000000E+00 0.  1.
         11    1    5    5    0    0  0.81370106148E+02  0.68569638237E+02  0.10378729704E+03  0.14864283531E+03  0.00000000000E+00 0. -1.
        -11    1    5    5    0    0  0.27803414144E+03  0.58956673519E+02  0.35426322694E+03  0.45418201981E+03  0.00000000000E+00 0.  1.
          4    1    6    6  503    0 -0.14646394355E+02  0.27312851357E+01 -0.18094826272E+02  0.23439273110E+02  0.00000000000E+00 0. -1.
         -4    1    6    6    0  503 -0.35087140485E+03 -0.13559358313E+03  0.98735070320E+01  0.37628958087E+03  0.00000000000E+00 0.  1.
<mgrwt>
<rscale>  0 0.10617152E+04</rscale>
<asrwt>0</asrwt>
<pdfrwt beam="1">  1        2 0.58466572E-01 0.10617152E+04</pdfrwt>
<pdfrwt beam="2">  1       -1 0.11408322E+00 0.10617152E+04</pdfrwt>
<totfact> 0.67186690E+01</totfact>
</mgrwt>
</event>
<event>
12    6  0.1554531E-007  0.3515636E+04  0.7818608E-02  0.8110094E-01
          2   -1    0    0  501    0  0.00000000000E+00  0.00000000000E+00  0.22535736895E+04  0.22535736895E+04  0.00000000000E+00 0. -1.
         -1   -1    0    0    0  501 -0.00000000000E+00 -0.00000000000E+00 -0.13711222119E+04  0.13711222119E+04  0.00000000000E+00 0.  1.
         24    2    1    2    0    0  0.59006982436E+03 -0.32714610896E+03  0.19262067560E+04  0.20425296555E+04  0.80299144709E+02 0.  0.
        254    2    1    2    0    0 -0.59006982436E+03  0.32714610896E+03 -0.10437552784E+04  0.15821662459E+04  0.97909038109E+03 0.  0.
         23    2    4    4    0    0 -0.68922780522E+03  0.51826553826E+03 -0.52620627138E+03  0.10145892271E+04  0.94149477790E+02 0.  0.
         23    2    4    4    0    0  0.99157980860E+02 -0.19111942930E+03 -0.51754900699E+03  0.56757701876E+03  0.89037947891E+02 0.  0.
          2    1    3    3  502    0  0.53943955893E+03 -0.31146902945E+03  0.17099572626E+04  0.18198796207E+04  0.00000000000E+00 0. -1.
         -1    1    3    3    0  502  0.50630265433E+02 -0.15677079514E+02  0.21624949345E+03  0.22265003484E+03  0.00000000000E+00 0.  1.
         11    1    5    5    0    0 -0.43862573717E+03  0.32450673481E+03 -0.38498040311E+03  0.66776273407E+03  0.00000000000E+00 0. -1.
        -11    1    5    5    0    0 -0.25060206805E+03  0.19375880346E+03 -0.14122586827E+03  0.34682649307E+03  0.00000000000E+00 0.  1.
          2    1    6    6  503    0  0.11094586636E+03 -0.15873635455E+03 -0.38976355675E+03  0.43522620059E+03  0.00000000000E+00 0. -1.
         -2    1    6    6    0  503 -0.11787885499E+02 -0.32383074754E+02 -0.12778545025E+03  0.13235081817E+03  0.00000000000E+00 0.  1.
<mgrwt>
<rscale>  0 0.35156365E+04</rscale>
<asrwt>0</asrwt>
<pdfrwt beam="1">  1        2 0.34670364E+00 0.35156365E+04</pdfrwt>
<pdfrwt beam="2">  1       -1 0.21094188E+00 0.35156365E+04</pdfrwt>
<totfact> 0.56930754E-01</totfact>
</mgrwt>
</event>
<event>
12    6  0.1530720E-007  0.3060609E+04  0.7818608E-02  0.8226632E-01
         -1   -1    0    0    0  501 -0.00000000000E+00  0.00000000000E+00  0.95181631776E+03  0.95181631776E+03  0.00000000000E+00 0.  1.
          2   -1    0    0  501    0  0.00000000000E+00 -0.00000000000E+00 -0.24603818555E+04  0.24603818555E+04  0.00000000000E+00 0. -1.
         24    2    1    2    0    0  0.64942661324E+03 -0.47042371006E+03  0.58804823207E+03  0.99763336307E+03  0.80113737179E+02 0.  0.
        254    2    1    2    0    0 -0.64942661324E+03  0.47042371006E+03 -0.20966137698E+04  0.24145648102E+04  0.88953950440E+03 0.  0.
         23    2    4    4    0    0  0.16231921816E+03  0.68575189571E+02 -0.10410371122E+03  0.22397329668E+03  0.90974555369E+02 0.  0.
         23    2    4    4    0    0 -0.81174583140E+03  0.40184852049E+03 -0.19925100586E+04  0.21905915135E+04  0.90450634474E+02 0.  0.
          2    1    3    3  502    0  0.11111346544E+02 -0.11743073652E+02  0.28572272824E+02  0.32828898476E+02  0.00000000000E+00 0. -1.
         -1    1    3    3    0  502  0.63831526669E+03 -0.45868063641E+03  0.55947595925E+03  0.96480446459E+03  0.00000000000E+00 0.  1.
         11    1    5    5    0    0  0.16180574407E+02 -0.58375132465E+01 -0.47447256917E+02  0.50469096861E+02  0.00000000000E+00 0. -1.
        -11    1    5    5    0    0  0.14613864376E+03  0.74412702817E+02 -0.56656454305E+02  0.17350419982E+03  0.00000000000E+00 0.  1.
          3    1    6    6  503    0 -0.49886812276E+03  0.29528288881E+03 -0.12783215353E+04  0.14036264944E+04  0.00000000000E+00 0. -1.
         -3    1    6    6    0  503 -0.31287770864E+03  0.10656563169E+03 -0.71418852331E+03  0.78696501907E+03  0.00000000000E+00 0.  1.
<mgrwt>
<rscale>  0 0.30606088E+04</rscale>
<asrwt>0</asrwt>
<pdfrwt beam="1">  1        2 0.37852029E+00 0.30606088E+04</pdfrwt>
<pdfrwt beam="2">  1       -1 0.14643328E+00 0.30606088E+04</pdfrwt>
<totfact> 0.13221145E+00</totfact>
</mgrwt>
</event>
<event>
12    6  0.1530720E-007  0.1976665E+04  0.7818608E-02  0.8617609E-01
          2   -1    0    0  501    0  0.00000000000E+00  0.00000000000E+00  0.31210217794E+04  0.31210217794E+04  0.00000000000E+00 0. -1.
         -3   -1    0    0    0  501 -0.00000000000E+00 -0.00000000000E+00 -0.31297475242E+03  0.31297475242E+03  0.00000000000E+00 0.  1.
         24    2    1    2    0    0  0.47168793988E+03  0.22723592187E+03  0.10913186910E+03  0.54089454473E+03  0.80817490950E+02 0.  0.
        254    2    1    2    0    0 -0.47168793988E+03 -0.22723592187E+03  0.26989151579E+04  0.28931019871E+04  0.90098301954E+03 0.  0.
         23    2    4    4    0    0 -0.22378526939E+03  0.11141601482E+03  0.22710125493E+04  0.22865785521E+04  0.91924430019E+02 0.  0.
         23    2    4    4    0    0 -0.24790267049E+03 -0.33865193669E+03  0.42790260860E+03  0.60652343498E+03  0.92893306936E+02 0.  0.
          2    1    3    3  502    0  0.16564467299E+03  0.12015902115E+03  0.57613549133E+02  0.21259273058E+03  0.00000000000E+00 0. -1.
         -1    1    3    3    0  502  0.30604326689E+03  0.10707690073E+03  0.51518319971E+02  0.32830181415E+03  0.00000000000E+00 0.  1.
         11    1    5    5    0    0 -0.15296154926E+03  0.10693566334E+03  0.18742549919E+04  0.18835244214E+04  0.00000000000E+00 0. -1.
        -11    1    5    5    0    0 -0.70823720127E+02  0.44803514796E+01  0.39675755745E+03  0.40305413070E+03  0.00000000000E+00 0.  1.
          1    1    6    6  503    0 -0.21136675316E+03 -0.28330614405E+03  0.40207806086E+03  0.53535506220E+03  0.00000000000E+00 0. -1.
         -1    1    6    6    0  503 -0.36535917339E+02 -0.55345792639E+02  0.25824547738E+02  0.71168372782E+02  0.00000000000E+00 0.  1.
<mgrwt>
<rscale>  0 0.19766649E+04</rscale>
<asrwt>0</asrwt>
<pdfrwt beam="1">  1        2 0.48015717E+00 0.19766649E+04</pdfrwt>
<pdfrwt beam="2">  1       -3 0.48149964E-01 0.19766649E+04</pdfrwt>
<totfact> 0.37704936E+00</totfact>
</mgrwt>
</event>
<event>
12    6  0.1530720E-007  0.1826073E+04  0.7818608E-02  0.8692556E-01
         -1   -1    0    0    0  501 -0.00000000000E+00  0.00000000000E+00  0.10106272275E+04  0.10106272275E+04  0.00000000000E+00 0.  1.
          2   -1    0    0  501    0  0.00000000000E+00 -0.00000000000E+00 -0.82486935288E+03  0.82486935288E+03  0.00000000000E+00 0. -1.
         24    2    1    2    0    0 -0.22408090326E+03  0.15731300708E+03 -0.56234810602E+03  0.63044025781E+03  0.79119485046E+02 0.  0.
        254    2    1    2    0    0  0.22408090326E+03 -0.15731300708E+03  0.74810598067E+03  0.12050563226E+04  0.90417838336E+03 0.  0.
         23    2    4    4    0    0  0.44749573712E+03  0.16632567010E+03  0.20278266090E+03  0.52650800714E+03  0.90405811450E+02 0.  0.
         23    2    4    4    0    0 -0.22341483386E+03 -0.32363867718E+03  0.54532331978E+03  0.67854831546E+03  0.91619386441E+02 0.  0.
          2    1    3    3  502    0 -0.21440190985E+03  0.14642631681E+03 -0.46994403775E+03  0.53689500260E+03  0.00000000000E+00 0. -1.
         -1    1    3    3    0  502 -0.96789934180E+01  0.10886690265E+02 -0.92404068267E+02  0.93545255202E+02  0.00000000000E+00 0.  1.
         11    1    5    5    0    0  0.72041078047E+02  0.49125300057E+02  0.68535106498E+02  0.11090659518E+03  0.00000000000E+00 0.  1.
        -11    1    5    5    0    0  0.37545465908E+03  0.11720037005E+03  0.13424755440E+03  0.41560141196E+03  0.00000000000E+00 0. -1.
          2    1    6    6  503    0 -0.23127375417E+03 -0.31745134404E+03  0.53817328099E+03  0.66625324432E+03  0.00000000000E+00 0. -1.
         -2    1    6    6    0  503  0.78589203053E+01 -0.61873331395E+01  0.71500387890E+01  0.12295071144E+02  0.00000000000E+00 0.  1.
<mgrwt>
<rscale>  0 0.18260728E+04</rscale>
<asrwt>0</asrwt>
<pdfrwt beam="1">  1        2 0.12690298E+00 0.18260728E+04</pdfrwt>
<pdfrwt beam="2">  1       -1 0.15548111E+00 0.18260728E+04</pdfrwt>
<totfact> 0.11248894E+01</totfact>
</mgrwt>
</event>
<event>
12    6  0.1530720E-007  0.1626499E+04  0.7818608E-02  0.8804432E-01
         -1   -1    0    0    0  501 -0.00000000000E+00  0.00000000000E+00  0.99604275360E+03  0.99604275360E+03  0.00000000000E+00 0.  1.
          2   -1    0    0  501    0  0.00000000000E+00 -0.00000000000E+00 -0.66400269351E+03  0.66400269351E+03  0.00000000000E+00 0. -1.
         24    2    1    2    0    0  0.23508158973E+03 -0.22728376930E+03  0.58440330532E+03  0.67440053830E+03  0.79797225343E+02 0.  0.
        254    2    1    2    0    0 -0.23508158973E+03  0.22728376930E+03 -0.25236324523E+03  0.98564490880E+03  0.89492313250E+03 0.  0.
         23    2    4    4    0    0 -0.41500564115E+03  0.43430854153E+03 -0.85750362545E+01  0.60754361161E+03  0.90455056960E+02 0.  0.
         23    2    4    4    0    0  0.17992405142E+03 -0.20702477223E+03 -0.24378820898E+03  0.37810129720E+03  0.91082267814E+02 0.  0.
          4    1    3    3  502    0  0.18341976804E+03 -0.15129944275E+03  0.35489107684E+03  0.42717912999E+03  0.00000000000E+00 0. -1.
         -3    1    3    3    0  502  0.51661821697E+02 -0.75984326547E+02  0.22951222848E+03  0.24722140831E+03  0.00000000000E+00 0.  1.
         11    1    5    5    0    0 -0.71481829147E+02  0.11424059175E+03  0.24041327713E+02  0.13688882401E+03  0.00000000000E+00 0.  1.
        -11    1    5    5    0    0 -0.34352381200E+03  0.32006794978E+03 -0.32616363968E+02  0.47065478760E+03  0.00000000000E+00 0. -1.
          4    1    6    6  503    0  0.12796237984E+03 -0.19582974335E+03 -0.18062531482E+03  0.29554891877E+03  0.00000000000E+00 0. -1.
         -4    1    6    6    0  503  0.51961671572E+02 -0.11195028877E+02 -0.63162894161E+02  0.82552378421E+02  0.00000000000E+00 0.  1.
<mgrwt>
<rscale>  0 0.16264994E+04</rscale>
<asrwt>0</asrwt>
<pdfrwt beam="1">  1        2 0.10215426E+00 0.16264994E+04</pdfrwt>
<pdfrwt beam="2">  1       -1 0.15323735E+00 0.16264994E+04</pdfrwt>
<totfact> 0.15759962E+01</totfact>
</mgrwt>
</event>
<event>
12    6  0.1530720E-007  0.2870177E+04  0.7818608E-02  0.8281806E-01
         -1   -1    0    0    0  501 -0.00000000000E+00  0.00000000000E+00  0.11265410000E+04  0.11265410000E+04  0.00000000000E+00 0.  1.
          2   -1    0    0  501    0  0.00000000000E+00 -0.00000000000E+00 -0.18281444418E+04  0.18281444418E+04  0.00000000000E+00 0. -1.
         24    2    1    2    0    0  0.10282049740E+04 -0.46547645061E+03  0.32177219567E+03  0.11763566445E+04  0.80023837588E+02 0.  0.
        254    2    1    2    0    0 -0.10282049740E+04  0.46547645061E+03 -0.10233756375E+04  0.17783287972E+04  0.91721416307E+03 0.  0.
         23    2    4    4    0    0 -0.92383700313E+03  0.90879497040E+02 -0.10163618726E+04  0.13794178312E+04  0.89823191158E+02 0.  0.
         23    2    4    4    0    0 -0.10436797088E+03  0.37459695357E+03 -0.70137648970E+01  0.39891096600E+03  0.88686046969E+02 0.  0.
          4    1    3    3  502    0  0.54913623594E+03 -0.23368518359E+03  0.13099540016E+03  0.61099849879E+03  0.00000000000E+00 0. -1.
         -3    1    3    3    0  502  0.47906873807E+03 -0.23179126702E+03  0.19077679551E+03  0.56535814575E+03  0.00000000000E+00 0.  1.
         11    1    5    5    0    0 -0.71344789758E+03  0.10645749723E+03 -0.77106522704E+03  0.10558800527E+04  0.00000000000E+00 0.  1.
        -11    1    5    5    0    0 -0.21038910555E+03 -0.15578000187E+02 -0.24529664555E+03  0.32353777854E+03  0.00000000000E+00 0. -1.
          4    1    6    6  503    0 -0.10131148321E+03  0.37737971425E+03  0.32005053500E-01  0.39074219939E+03  0.00000000000E+00 0.  1.
         -4    1    6    6    0  503 -0.30564876733E+01 -0.27827606745E+01 -0.70457699505E+01  0.81687666183E+01  0.00000000000E+00 0. -1.
<mgrwt>
<rscale>  0 0.28701775E+04</rscale>
<asrwt>0</asrwt>
<pdfrwt beam="1">  1        2 0.28125299E+00 0.28701775E+04</pdfrwt>
<pdfrwt beam="2">  1       -1 0.17331400E+00 0.28701775E+04</pdfrwt>
<totfact> 0.19069751E+00</totfact>
</mgrwt>
</event>
<event>
12    6  0.1530720E-007  0.1384661E+04  0.7818608E-02  0.8964997E-01
         -1   -1    0    0    0  501 -0.00000000000E+00  0.00000000000E+00  0.16787202101E+04  0.16787202101E+04  0.00000000000E+00 0.  1.
          2   -1    0    0  501    0  0.00000000000E+00 -0.00000000000E+00 -0.28552801540E+03  0.28552801540E+03  0.00000000000E+00 0. -1.
         24    2    1    2    0    0  0.23298394746E+03  0.10520812531E+03 -0.42972198311E+02  0.27118019463E+03  0.79635536836E+02 0.  0.
        254    2    1    2    0    0 -0.23298394746E+03 -0.10520812531E+03  0.14361643931E+04  0.16930680309E+04  0.85939567371E+03 0.  0.
         23    2    4    4    0    0  0.11229992168E+03  0.29369985521E+03  0.33498230004E+03  0.46863932091E+03  0.92405597269E+02 0.  0.
         23    2    4    4    0    0 -0.34528386914E+03 -0.39890798051E+03  0.11011820930E+04  0.12244287100E+04  0.90967778216E+02 0.  0.
          2    1    3    3  502    0  0.14890886627E+03  0.10746393236E+03 -0.30663916385E+02  0.18617900789E+03  0.00000000000E+00 0. -1.
         -1    1    3    3    0  502  0.84075081194E+02 -0.22558070531E+01 -0.12308281926E+02  0.85001186740E+02  0.00000000000E+00 0.  1.
         11    1    5    5    0    0  0.45651280977E+02  0.16936302866E+03  0.12389564868E+03  0.21475103421E+03  0.00000000000E+00 0.  1.
        -11    1    5    5    0    0  0.66648640703E+02  0.12433682655E+03  0.21108665136E+03  0.25388828671E+03  0.00000000000E+00 0. -1.
          1    1    6    6  503    0 -0.13236880236E+03 -0.14140695576E+03  0.30931892002E+03  0.36495975293E+03  0.00000000000E+00 0. -1.
         -1    1    6    6    0  503 -0.21291506678E+03 -0.25750102475E+03  0.79186317299E+03  0.85946895706E+03  0.00000000000E+00 0.  1.
<mgrwt>
<rscale>  0 0.13846612E+04</rscale>
<asrwt>0</asrwt>
<pdfrwt beam="1">  1        2 0.43927388E-01 0.13846612E+04</pdfrwt>
<pdfrwt beam="2">  1       -1 0.25826464E+00 0.13846612E+04</pdfrwt>
<totfact> 0.79863346E+00</totfact>
</mgrwt>
</event>
<event>
12    6  0.1530720E-007  0.1626369E+04  0.7818608E-02  0.8804510E-01
         -1   -1    0    0    0  501 -0.00000000000E+00  0.00000000000E+00  0.67132214544E+03  0.67132214544E+03  0.00000000000E+00 0.  1.
          2   -1    0    0  501    0  0.00000000000E+00 -0.00000000000E+00 -0.98502493232E+03  0.98502493232E+03  0.00000000000E+00 0. -1.
         24    2    1    2    0    0 -0.41334235988E+03  0.73849127604E+02 -0.47866010646E+03  0.64147284481E+03  0.77886539277E+02 0.  0.
        254    2    1    2    0    0  0.41334235988E+03 -0.73849127604E+02  0.16495731958E+03  0.10148742329E+04  0.90909470975E+03 0.  0.
         23    2    4    4    0    0  0.35315294882E+03  0.29802714295E+03 -0.17128491774E+03  0.50120497625E+03  0.91272788801E+02 0.  0.
         23    2    4    4    0    0  0.60189411055E+02 -0.37187627056E+03  0.33624223732E+03  0.51366925669E+03  0.94247213796E+02 0.  0.
          2    1    3    3  502    0 -0.23358138437E+03  0.62618803818E+02 -0.22455702729E+03  0.33001096379E+03  0.00000000000E+00 0. -1.
         -1    1    3    3    0  502 -0.17976097551E+03  0.11230323786E+02 -0.25410307917E+03  0.31146188102E+03  0.00000000000E+00 0.  1.
         11    1    5    5    0    0  0.36591499014E+01 -0.42663263684E+01  0.40934186942E+01  0.69532003630E+01  0.00000000000E+00 0. -1.
        -11    1    5    5    0    0  0.34949379892E+03  0.30229346932E+03 -0.17537833643E+03  0.49425177589E+03  0.00000000000E+00 0.  1.
          4    1    6    6  503    0 -0.19431096838E+02 -0.13831567446E+03  0.14633535468E+03  0.20229391824E+03  0.00000000000E+00 0. -1.
         -4    1    6    6    0  503  0.79620507893E+02 -0.23356059609E+03  0.18990688264E+03  0.31137533845E+03  0.00000000000E+00 0.  1.
<mgrwt>
<rscale>  0 0.16263690E+04</rscale>
<asrwt>0</asrwt>
<pdfrwt beam="1">  1        2 0.15154230E+00 0.16263690E+04</pdfrwt>
<pdfrwt beam="2">  1       -1 0.10328033E+00 0.16263690E+04</pdfrwt>
<totfact> 0.24886006E+01</totfact>
</mgrwt>
</event>
<event>
12    6  0.1530720E-007  0.1635821E+04  0.7818608E-02  0.8798839E-01
         -1   -1    0    0    0  501 -0.00000000000E+00  0.00000000000E+00  0.39114796529E+03  0.39114796529E+03  0.00000000000E+00 0.  1.
          2   -1    0    0  501    0  0.00000000000E+00 -0.00000000000E+00 -0.17102924299E+04  0.17102924299E+04  0.00000000000E+00 0. -1.
         24    2    1    2    0    0 -0.49739664947E+01  0.11971697110E+03 -0.11792137083E+04  0.11879755901E+04  0.79900810499E+02 0.  0.
        254    2    1    2    0    0  0.49739664947E+01 -0.11971697110E+03 -0.13993075640E+03  0.91346480508E+03  0.89469572483E+03 0.  0.
         23    2    4    4    0    0  0.35108105759E+03  0.20611471376E+03 -0.38974196840E+02  0.41911217593E+03  0.91623380019E+02 0.  0.
         23    2    4    4    0    0 -0.34610709110E+03 -0.32583168486E+03 -0.10095655956E+03  0.49435262915E+03  0.90751802529E+02 0.  0.
          4    1    3    3  502    0 -0.23317463811E+02  0.11715272476E+03 -0.11069375330E+04  0.11133638970E+04  0.00000000000E+00 0. -1.
         -3    1    3    3    0  502  0.18343497316E+02  0.25642463390E+01 -0.72276175244E+02  0.74611693192E+02  0.00000000000E+00 0.  1.
         11    1    5    5    0    0  0.14280278981E+03  0.44183875682E+02 -0.42013246452E+02  0.15527383722E+03  0.00000000000E+00 0. -1.
        -11    1    5    5    0    0  0.20827826778E+03  0.16193083808E+03  0.30390496125E+01  0.26383833871E+03  0.00000000000E+00 0.  1.
          4    1    6    6  503    0 -0.32038673098E+03 -0.29790212423E+03 -0.65422196933E+02  0.44234985799E+03  0.00000000000E+00 0. -1.
         -4    1    6    6    0  503 -0.25720360121E+02 -0.27929560630E+02 -0.35534362625E+02  0.52002771165E+02  0.00000000000E+00 0.  1.
<mgrwt>
<rscale>  0 0.16358208E+04</rscale>
<asrwt>0</asrwt>
<pdfrwt beam="1">  1        2 0.26312192E+00 0.16358208E+04</pdfrwt>
<pdfrwt beam="2">  1       -1 0.60176609E-01 0.16358208E+04</pdfrwt>
<totfact> 0.29523033E+01</totfact>
</mgrwt>
</event>
<event>
12    6  0.1530720E-007  0.1157420E+04  0.7818608E-02  0.9150965E-01
         -1   -1    0    0    0  501 -0.00000000000E+00  0.00000000000E+00  0.97404006677E+03  0.97404006677E+03  0.00000000000E+00 0.  1.
          2   -1    0    0  501    0  0.00000000000E+00 -0.00000000000E+00 -0.34383134476E+03  0.34383134476E+03  0.00000000000E+00 0. -1.
         24    2    1    2    0    0 -0.15543027239E+03 -0.16309275195E+03  0.11843158929E+03  0.26666030501E+03  0.79522711307E+02 0.  0.
        254    2    1    2    0    0  0.15543027239E+03  0.16309275195E+03  0.51177713272E+03  0.10512111065E+04  0.89015231370E+03 0.  0.
         23    2    4    4    0    0 -0.16310358994E+02  0.48971744506E+03  0.44053852473E+03  0.66545068686E+03  0.93065681482E+02 0.  0.
         23    2    4    4    0    0  0.17174063139E+03 -0.32662469311E+03  0.71238607988E+02  0.38576041966E+03  0.86934616169E+02 0.  0.
          2    1    3    3  502    0 -0.71970115546E+02 -0.61396259539E+02  0.80746624771E+01  0.94944185662E+02  0.00000000000E+00 0. -1.
         -1    1    3    3    0  502 -0.83460156846E+02 -0.10169649241E+03  0.11035692681E+03  0.17171611935E+03  0.00000000000E+00 0.  1.
         11    1    5    5    0    0 -0.48193407987E+02  0.40986041821E+03  0.36007628406E+03  0.54768886909E+03  0.00000000000E+00 0.  1.
        -11    1    5    5    0    0  0.31883048992E+02  0.79857026846E+02  0.80462240678E+02  0.11776181777E+03  0.00000000000E+00 0. -1.
          3    1    6    6  503    0 -0.38650423968E+01 -0.29234888586E+02  0.22239619709E+02  0.36935321146E+02  0.00000000000E+00 0. -1.
         -3    1    6    6    0  503  0.17560567378E+03 -0.29738980452E+03  0.48998988280E+02  0.34882509851E+03  0.00000000000E+00 0.  1.
<mgrwt>
<rscale>  0 0.11574204E+04</rscale>
<asrwt>0</asrwt>
<pdfrwt beam="1">  1        2 0.52897131E-01 0.11574204E+04</pdfrwt>
<pdfrwt beam="2">  1       -1 0.14985232E+00 0.11574204E+04</pdfrwt>
<totfact> 0.37372560E+01</totfact>
</mgrwt>
</event>
<event>
12    6  0.1530720E-007  0.1667269E+04  0.7818608E-02  0.8780256E-01
          2   -1    0    0  501    0  0.00000000000E+00  0.00000000000E+00  0.31891556487E+03  0.31891556487E+03  0.00000000000E+00 0. -1.
         -1   -1    0    0    0  501 -0.00000000000E+00 -0.00000000000E+00 -0.21790917259E+04  0.21790917259E+04  0.00000000000E+00 0.  1.
         24    2    1    2    0    0  0.46764996972E+03 -0.31689875884E+02 -0.13712182833E+03  0.49489112936E+03  0.80088024678E+02 0.  0.
        254    2    1    2    0    0 -0.46764996972E+03  0.31689875884E+02 -0.17230543327E+04  0.20031161614E+04  0.90766589681E+03 0.  0.
         23    2    4    4    0    0 -0.32751191837E+03  0.70448290757E+02 -0.17856766013E+04  0.18191628946E+04  0.92117828503E+02 0.  0.
         23    2    4    4    0    0 -0.14013805135E+03 -0.38758414873E+02  0.62622268654E+02  0.18395326675E+03  0.93682269705E+02 0.  0.
          2    1    3    3  502    0  0.17188359368E+03  0.19805176130E+02 -0.26995439912E+02  0.17511415863E+03  0.00000000000E+00 0. -1.
         -1    1    3    3    0  502  0.29576637605E+03 -0.51495052014E+02 -0.11012638842E+03  0.31977697073E+03  0.00000000000E+00 0.  1.
         11    1    5    5    0    0 -0.27475745339E+02  0.10715734494E+02 -0.63356385452E+02  0.69884011943E+02  0.00000000000E+00 0. -1.
        -11    1    5    5    0    0 -0.30003617303E+03  0.59732556263E+02 -0.17223202159E+04  0.17492788827E+04  0.00000000000E+00 0.  1.
          3    1    6    6  503    0 -0.52098296453E+02  0.19846396714E+02 -0.86506209590E+01  0.56417596535E+02  0.00000000000E+00 0. -1.
         -3    1    6    6    0  503 -0.88039754897E+02 -0.58604811586E+02  0.71272889613E+02  0.12753567022E+03  0.00000000000E+00 0.  1.
<mgrwt>
<rscale>  0 0.16672687E+04</rscale>
<asrwt>0</asrwt>
<pdfrwt beam="1">  1        2 0.49063932E-01 0.16672687E+04</pdfrwt>
<pdfrwt beam="2">  1       -1 0.33524489E+00 0.16672687E+04</pdfrwt>
<totfact> 0.21834426E+00</totfact>
</mgrwt>
</event>
<event>
12    6  0.1530720E-007  0.1074204E+04  0.7818608E-02  0.9230705E-01
          2   -1    0    0  501    0  0.00000000000E+00  0.00000000000E+00  0.19512214920E+04  0.19512214920E+04  0.00000000000E+00 0. -1.
         -1   -1    0    0    0  501 -0.00000000000E+00 -0.00000000000E+00 -0.14784516824E+03  0.14784516824E+03  0.00000000000E+00 0.  1.
         24    2    1    2    0    0  0.93444095732E+02 -0.93268880956E+02  0.37901392823E+03  0.40921584893E+03  0.79844661950E+02 0.  0.
        254    2    1    2    0    0 -0.93444095732E+02  0.93268880956E+02  0.14243623955E+04  0.16898508113E+04  0.89964251095E+03 0.  0.
         23    2    4    4    0    0 -0.27156601611E+03 -0.36238529390E+02  0.14222926306E+04  0.14511696548E+04  0.88970263537E+02 0.  0.
         23    2    4    4    0    0  0.17812192038E+03  0.12950741035E+03  0.20697649286E+01  0.23868115653E+03  0.92004471088E+02 0.  0.
          2    1    3    3  502    0  0.15615343162E+02 -0.58705449372E+02  0.22685584801E+03  0.23484834363E+03  0.00000000000E+00 0. -1.
         -1    1    3    3    0  502  0.77828752571E+02 -0.34563431584E+02  0.15215808022E+03  0.17436750530E+03  0.00000000000E+00 0.  1.
         11    1    5    5    0    0 -0.85032699949E+02 -0.51162914548E+02  0.57017180278E+03  0.57874354300E+03  0.00000000000E+00 0.  1.
        -11    1    5    5    0    0 -0.18653331616E+03  0.14924385158E+02  0.85212082779E+03  0.87242611175E+03  0.00000000000E+00 0. -1.
          4    1    6    6  503    0  0.79832949167E+02  0.11390114552E+03 -0.14163680328E+01  0.13909988074E+03  0.00000000000E+00 0.  1.
         -4    1    6    6    0  503  0.98288971213E+02  0.15606264822E+02  0.34861329614E+01  0.99581275784E+02  0.00000000000E+00 0. -1.
<mgrwt>
<rscale>  0 0.10742042E+04</rscale>
<asrwt>0</asrwt>
<pdfrwt beam="1">  1        2 0.30018790E+00 0.10742042E+04</pdfrwt>
<pdfrwt beam="2">  1       -1 0.22745412E-01 0.10742042E+04</pdfrwt>
<totfact> 0.13288568E+02</totfact>
</mgrwt>
</event>
<event>
12    6  0.1530720E-007  0.1065056E+04  0.7818608E-02  0.9239936E-01
          2   -1    0    0  501    0  0.00000000000E+00  0.00000000000E+00  0.11830586439E+04  0.11830586439E+04  0.00000000000E+00 0. -1.
         -1   -1    0    0    0  501 -0.00000000000E+00 -0.00000000000E+00 -0.23970600724E+03  0.23970600724E+03  0.00000000000E+00 0.  1.
         24    2    1    2    0    0 -0.10292815927E+03 -0.40838207285E+02  0.42321906434E+02  0.14412795384E+03  0.81974131096E+02 0.  0.
        254    2    1    2    0    0  0.10292815927E+03  0.40838207285E+02  0.90103073026E+03  0.12786366973E+04  0.90044070419E+03 0.  0.
         23    2    4    4    0    0 -0.12444034898E+03 -0.36530039658E+03  0.23544029917E+03  0.46128208332E+03  0.91756447829E+02 0.  0.
         23    2    4    4    0    0  0.22736850825E+03  0.40613860387E+03  0.66559043109E+03  0.81735461402E+03  0.91722074791E+02 0.  0.
          2    1    3    3  502    0 -0.60546300284E+02  0.11723370791E+02  0.45334420772E+02  0.76540849274E+02  0.00000000000E+00 0. -1.
         -1    1    3    3    0  502 -0.42381858982E+02 -0.52561578076E+02 -0.30125143387E+01  0.67587104563E+02  0.00000000000E+00 0.  1.
         11    1    5    5    0    0 -0.79164532824E+02 -0.28241037334E+03  0.21750444936E+03  0.36514494071E+03  0.00000000000E+00 0. -1.
        -11    1    5    5    0    0 -0.45275816158E+02 -0.82890023238E+02  0.17935849804E+02  0.96137142610E+02  0.00000000000E+00 0.  1.
          3    1    6    6  503    0  0.48121702564E+02  0.87226193150E+02  0.21495998872E+03  0.23692172500E+03  0.00000000000E+00 0. -1.
         -3    1    6    6    0  503  0.17924680568E+03  0.31891241072E+03  0.45063044238E+03  0.58043288902E+03  0.00000000000E+00 0.  1.
<mgrwt>
<rscale>  0 0.10650564E+04</rscale>
<asrwt>0</asrwt>
<pdfrwt beam="1">  1        2 0.18200902E+00 0.10650564E+04</pdfrwt>
<pdfrwt beam="2">  1       -1 0.36877848E-01 0.10650564E+04</pdfrwt>
<totfact> 0.15512412E+02</totfact>
</mgrwt>
</event>
<event>
12    6  0.1530720E-007  0.1242547E+04  0.7818608E-02  0.9076409E-01
          2   -1    0    0  501    0  0.00000000000E+00  0.00000000000E+00  0.13705201900E+04  0.13705201900E+04  0.00000000000E+00 0. -1.
         -1   -1    0    0    0  501 -0.00000000000E+00 -0.00000000000E+00 -0.28163089021E+03  0.28163089021E+03  0.00000000000E+00 0.  1.
         24    2    1    2    0    0  0.28146014932E+03  0.23012235096E+02  0.23920267278E+03  0.37839009200E+03  0.78814747609E+02 0.  0.
        254    2    1    2    0    0 -0.28146014932E+03 -0.23012235096E+02  0.84968662696E+03  0.12737609882E+04  0.90595270976E+03 0.  0.
         23    2    4    4    0    0 -0.71371919799E+02 -0.24256506259E+03 -0.89148480550E+02  0.28228620397E+03  0.88353205072E+02 0.  0.
         23    2    4    4    0    0 -0.21008822952E+03  0.21955282749E+03  0.93883510751E+03  0.99147478419E+03  0.96282814418E+02 0.  0.
          4    1    3    3  502    0  0.58902925678E+02  0.49847443615E+01  0.97232777551E+02  0.11379198285E+03  0.00000000000E+00 0. -1.
         -3    1    3    3    0  502  0.22255722364E+03  0.18027490735E+02  0.14196989523E+03  0.26459810915E+03  0.00000000000E+00 0.  1.
         11    1    5    5    0    0 -0.85222988061E+02 -0.22702745687E+03 -0.66338753084E+02  0.25140655128E+03  0.00000000000E+00 0. -1.
        -11    1    5    5    0    0  0.13851068262E+02 -0.15537605720E+02 -0.22809727466E+02  0.30879652695E+02  0.00000000000E+00 0.  1.
          4    1    6    6  503    0 -0.22024858313E+03  0.20626934948E+03  0.89817119377E+03  0.94750618796E+03  0.00000000000E+00 0. -1.
         -4    1    6    6    0  503  0.10160353618E+02  0.13283478012E+02  0.40663913748E+02  0.43968596237E+02  0.00000000000E+00 0.  1.
<mgrwt>
<rscale>  0 0.12425471E+04</rscale>
<asrwt>0</asrwt>
<pdfrwt beam="1">  1        2 0.21084926E+00 0.12425471E+04</pdfrwt>
<pdfrwt beam="2">  1       -1 0.43327830E-01 0.12425471E+04</pdfrwt>
<totfact> 0.88639335E+01</totfact>
</mgrwt>
</event>
<event>
12    6  0.1530720E-007  0.1540227E+04  0.7818608E-02  0.8858134E-01
          2   -1    0    0  501    0  0.00000000000E+00  0.00000000000E+00  0.12976892143E+04  0.12976892143E+04  0.00000000000E+00 0. -1.
         -1   -1    0    0    0  501 -0.00000000000E+00 -0.00000000000E+00 -0.45702400135E+03  0.45702400135E+03  0.00000000000E+00 0.  1.
         24    2    1    2    0    0 -0.47852103389E+03 -0.13521770617E+03  0.19415320338E+03  0.53951139538E+03  0.78172062936E+02 0.  0.
        254    2    1    2    0    0  0.47852103389E+03  0.13521770617E+03  0.64651200958E+03  0.12152018203E+04  0.90081711659E+03 0.  0.
         23    2    4    4    0    0  0.72661522016E+03  0.62170782919E+00  0.45956516355E+03  0.86475607442E+03  0.92913206839E+02 0.  0.
         23    2    4    4    0    0 -0.24809418627E+03  0.13459599834E+03  0.18694684603E+03  0.35044574586E+03  0.90533361345E+02 0.  0.
          4    1    3    3  502    0 -0.43925378034E+03 -0.12668030242E+03  0.15321880697E+03  0.48214913188E+03  0.00000000000E+00 0. -1.
         -3    1    3    3    0  502 -0.39267253546E+02 -0.85374037443E+01  0.40934396406E+02  0.57362263491E+02  0.00000000000E+00 0.  1.
         11    1    5    5    0    0  0.12909166451E+03  0.12960180100E+02  0.12337894755E+03  0.17903907063E+03  0.00000000000E+00 0. -1.
        -11    1    5    5    0    0  0.59752355565E+03 -0.12338472271E+02  0.33618621600E+03  0.68571700379E+03  0.00000000000E+00 0.  1.
          1    1    6    6  503    0  0.22076342058E+01 -0.79072753522E+01  0.73201182271E+01  0.10999217388E+02  0.00000000000E+00 0. -1.
         -1    1    6    6    0  503 -0.25030182048E+03  0.14250327369E+03  0.17962672780E+03  0.33944652847E+03  0.00000000000E+00 0.  1.
<mgrwt>
<rscale>  0 0.15402274E+04</rscale>
<asrwt>0</asrwt>
<pdfrwt beam="1">  1        2 0.19964449E+00 0.15402274E+04</pdfrwt>
<pdfrwt beam="2">  1       -1 0.70311385E-01 0.15402274E+04</pdfrwt>
<totfact> 0.37231102E+01</totfact>
</mgrwt>
</event>
<event>
12    6  0.1530720E-007  0.1284181E+04  0.7818608E-02  0.9042204E-01
          2   -1    0    0  501    0  0.00000000000E+00  0.00000000000E+00  0.51642185551E+03  0.51642185551E+03  0.00000000000E+00 0. -1.
         -1   -1    0    0    0  501 -0.00000000000E+00 -0.00000000000E+00 -0.79834042516E+03  0.79834042516E+03  0.00000000000E+00 0.  1.
         24    2    1    2    0    0  0.19528198167E+03 -0.20374123918E+03 -0.23147800295E+03  0.37400430530E+03  0.81557400795E+02 0.  0.
        254    2    1    2    0    0 -0.19528198167E+03  0.20374123918E+03 -0.50440566697E+02  0.94075797537E+03  0.89601103372E+03 0.  0.
         23    2    4    4    0    0 -0.24909987410E+03 -0.21936137706E+03  0.23736435028E+03  0.41815700150E+03  0.91341568330E+02 0.  0.
         23    2    4    4    0    0  0.53817892424E+02  0.42310261624E+03 -0.28780491697E+03  0.52260097386E+03  0.91476326087E+02 0.  0.
          4    1    3    3  502    0  0.38796727646E+02 -0.83786500297E+02 -0.45394605177E+02  0.10288845362E+03  0.00000000000E+00 0. -1.
         -3    1    3    3    0  502  0.15648525403E+03 -0.11995473889E+03 -0.18608339777E+03  0.27111585169E+03  0.00000000000E+00 0.  1.
         11    1    5    5    0    0 -0.24975409488E+03 -0.20058132395E+03  0.23844893448E+03  0.39933428325E+03  0.00000000000E+00 0. -1.
        -11    1    5    5    0    0  0.65422078085E+00 -0.18780053104E+02 -0.10845842040E+01  0.18822718250E+02  0.00000000000E+00 0.  1.
          2    1    6    6  503    0  0.30157567111E+02  0.40529344616E+03 -0.27197043442E+03  0.48901960446E+03  0.00000000000E+00 0. -1.
         -2    1    6    6    0  503  0.23660325313E+02  0.17809170082E+02 -0.15834482556E+02  0.33581369399E+02  0.00000000000E+00 0.  1.
<mgrwt>
<rscale>  0 0.12841814E+04</rscale>
<asrwt>0</asrwt>
<pdfrwt beam="1">  1        2 0.79449516E-01 0.12841814E+04</pdfrwt>
<pdfrwt beam="2">  1       -1 0.12282160E+00 0.12841814E+04</pdfrwt>
<totfact> 0.38908156E+01</totfact>
</mgrwt>
</event>
<event>
12    6  0.1530720E-007  0.1435931E+04  0.7818608E-02  0.8928212E-01
         -1   -1    0    0    0  501 -0.00000000000E+00  0.00000000000E+00  0.42497632974E+03  0.42497632974E+03  0.00000000000E+00 0.  1.
          2   -1    0    0  501    0  0.00000000000E+00 -0.00000000000E+00 -0.12129494563E+04  0.12129494563E+04  0.00000000000E+00 0. -1.
         24    2    1    2    0    0 -0.32079250360E+03 -0.29450839480E+03 -0.24269052937E+03  0.50496080908E+03  0.80272664611E+02 0.  0.
        254    2    1    2    0    0  0.32079250360E+03  0.29450839480E+03 -0.54528259724E+03  0.11329649770E+04  0.89254327811E+03 0.  0.
         23    2    4    4    0    0 -0.14171392481E+03 -0.22355205291E+03 -0.75637364198E+02  0.28908415965E+03  0.88262583525E+02 0.  0.
         23    2    4    4    0    0  0.46250642841E+03  0.51806044771E+03 -0.46964523305E+03  0.84388081736E+03  0.96277542490E+02 0.  0.
          2    1    3    3  502    0 -0.24733059653E+03 -0.22689727839E+03 -0.22363135127E+03  0.40331846002E+03  0.00000000000E+00 0. -1.
         -1    1    3    3    0  502 -0.73461907066E+02 -0.67611116411E+02 -0.19059178104E+02  0.10164234906E+03  0.00000000000E+00 0.  1.
         11    1    5    5    0    0 -0.70945572811E+02 -0.12577195813E+03  0.40344422000E+01  0.14445807861E+03  0.00000000000E+00 0.  1.
        -11    1    5    5    0    0 -0.70768352001E+02 -0.97780094780E+02 -0.79671806398E+02  0.14462608103E+03  0.00000000000E+00 0. -1.
          3    1    6    6  503    0  0.23523704984E+03  0.20558535629E+03 -0.17600221592E+03  0.35857856649E+03  0.00000000000E+00 0. -1.
         -3    1    6    6    0  503  0.22726937857E+03  0.31247509142E+03 -0.29364301712E+03  0.48530225087E+03  0.00000000000E+00 0.  1.
<mgrwt>
<rscale>  0 0.14359315E+04</rscale>
<asrwt>0</asrwt>
<pdfrwt beam="1">  1        2 0.18660761E+00 0.14359315E+04</pdfrwt>
<pdfrwt beam="2">  1       -1 0.65380974E-01 0.14359315E+04</pdfrwt>
<totfact> 0.48842277E+01</totfact>
</mgrwt>
</event>
<event>
12    6  0.1530720E-007  0.2089273E+04  0.7818608E-02  0.8565983E-01
          2   -1    0    0  501    0  0.00000000000E+00  0.00000000000E+00  0.42907390767E+04  0.42907390767E+04  0.00000000000E+00 0. -1.
         -1   -1    0    0    0  501 -0.00000000000E+00 -0.00000000000E+00 -0.25433049022E+03  0.25433049022E+03  0.00000000000E+00 0.  1.
         24    2    1    2    0    0 -0.57300789992E+02  0.77219107151E+03  0.24125553139E+04  0.25350128666E+04  0.79401886155E+02 0.  0.
        254    2    1    2    0    0  0.57300789992E+02 -0.77219107151E+03  0.16238532725E+04  0.20100567003E+04  0.89658577745E+03 0.  0.
         23    2    4    4    0    0  0.35396679820E+03 -0.57675524534E+03  0.14534146202E+04  0.16058395104E+04  0.91473316853E+02 0.  0.
         23    2    4    4    0    0 -0.29666600820E+03 -0.19543582617E+03  0.17043865230E+03  0.40421718989E+03  0.90201551151E+02 0.  0.
          2    1    3    3  502    0 -0.76228109192E+01  0.42812383420E+03  0.14326317463E+04  0.14952531040E+04  0.00000000000E+00 0. -1.
         -1    1    3    3    0  502 -0.49677979072E+02  0.34406723731E+03  0.97992356761E+03  0.10397597625E+04  0.00000000000E+00 0.  1.
         11    1    5    5    0    0  0.35146509178E+03 -0.53508665624E+03  0.13828948285E+04  0.15238909236E+04  0.00000000000E+00 0. -1.
        -11    1    5    5    0    0  0.25017064209E+01 -0.41668589102E+02  0.70519791726E+02  0.81948586796E+02  0.00000000000E+00 0.  1.
          4    1    6    6  503    0 -0.22598393286E+03 -0.14869522218E+03  0.16996077660E+03  0.31947718634E+03  0.00000000000E+00 0. -1.
         -4    1    6    6    0  503 -0.70682075346E+02 -0.46740603992E+02  0.47787570200E+00  0.84740003551E+02  0.00000000000E+00 0.  1.
<mgrwt>
<rscale>  0 0.20892733E+04</rscale>
<asrwt>0</asrwt>
<pdfrwt beam="1">  1        2 0.66011365E+00 0.20892733E+04</pdfrwt>
<pdfrwt beam="2">  1       -1 0.39127771E-01 0.20892733E+04</pdfrwt>
<totfact> 0.13025898E+00</totfact>
</mgrwt>
</event>
<event>
12    6  0.1530720E-007  0.1468389E+04  0.7818608E-02  0.8905750E-01
          2   -1    0    0  501    0  0.00000000000E+00  0.00000000000E+00  0.61833337652E+03  0.61833337652E+03  0.00000000000E+00 0. -1.
         -1   -1    0    0    0  501 -0.00000000000E+00 -0.00000000000E+00 -0.87176547797E+03  0.87176547797E+03  0.00000000000E+00 0.  1.
         24    2    1    2    0    0  0.42872914763E+03  0.15612558364E+03 -0.11581839810E+03  0.47729943908E+03  0.78847785738E+02 0.  0.
        254    2    1    2    0    0 -0.42872914763E+03 -0.15612558364E+03 -0.13761370335E+03  0.10127994154E+04  0.89366730084E+03 0.  0.
         23    2    4    4    0    0 -0.47683312566E+03  0.64979203333E+02  0.25306279475E+03  0.55197449682E+03  0.95094376610E+02 0.  0.
         23    2    4    4    0    0  0.48103978033E+02 -0.22110478697E+03 -0.39067649810E+03  0.46082491858E+03  0.92358864716E+02 0.  0.
          4    1    3    3  502    0  0.42573006389E+03  0.16006586072E+03 -0.10708927364E+03  0.46726360825E+03  0.00000000000E+00 0. -1.
         -3    1    3    3    0  502  0.29990837427E+01 -0.39402770767E+01 -0.87291244570E+01  0.10035830834E+02  0.00000000000E+00 0.  1.
         11    1    5    5    0    0 -0.78326289890E+02  0.46907428022E+02  0.55138081370E+02  0.10665609457E+03  0.00000000000E+00 0.  1.
        -11    1    5    5    0    0 -0.39850683577E+03  0.18071775311E+02  0.19792471338E+03  0.44531840225E+03  0.00000000000E+00 0. -1.
          1    1    6    6  503    0  0.47508899406E+02 -0.17770263744E+03 -0.23065254666E+03  0.29501850816E+03  0.00000000000E+00 0. -1.
         -1    1    6    6    0  503  0.59507862756E+00 -0.43402149539E+02 -0.16002395144E+03  0.16580641042E+03  0.00000000000E+00 0.  1.
<mgrwt>
<rscale>  0 0.14683892E+04</rscale>
<asrwt>0</asrwt>
<pdfrwt beam="1">  1        2 0.95128211E-01 0.14683892E+04</pdfrwt>
<pdfrwt beam="2">  1       -1 0.13411777E+00 0.14683892E+04</pdfrwt>
<totfact> 0.24790210E+01</totfact>
</mgrwt>
</event>
<event>
12    6  0.1530720E-007  0.1975847E+04  0.7818608E-02  0.8617997E-01
         -1   -1    0    0    0  501 -0.00000000000E+00  0.00000000000E+00  0.11837286459E+04  0.11837286459E+04  0.00000000000E+00 0.  1.
          2   -1    0    0  501    0  0.00000000000E+00 -0.00000000000E+00 -0.82450688237E+03  0.82450688237E+03  0.00000000000E+00 0. -1.
         24    2    1    2    0    0 -0.72001956174E+03  0.61843337810E+02  0.39063835897E+03  0.82598181814E+03  0.85993422348E+02 0.  0.
        254    2    1    2    0    0  0.72001956174E+03 -0.61843337810E+02 -0.31416595388E+02  0.11822537102E+04  0.93513852718E+03 0.  0.
         23    2    4    4    0    0  0.39558087349E+03  0.14764582783E+03 -0.43747142786E+03  0.61478831348E+03  0.91103799285E+02 0.  0.
         23    2    4    4    0    0  0.32443868825E+03 -0.20948916564E+03  0.40605483248E+03  0.56746539669E+03  0.89388346619E+02 0.  0.
          2    1    3    3  502    0 -0.28302306047E+03  0.54496879232E+02  0.12210770774E+03  0.31302117324E+03  0.00000000000E+00 0. -1.
         -1    1    3    3    0  502 -0.43699650127E+03  0.73464585778E+01  0.26853065123E+03  0.51296064491E+03  0.00000000000E+00 0.  1.
         11    1    5    5    0    0  0.31098416258E+03  0.15025378742E+03 -0.32700327868E+03  0.47562432053E+03  0.00000000000E+00 0.  1.
        -11    1    5    5    0    0  0.84596710916E+02 -0.26079595878E+01 -0.11046814918E+03  0.13916399295E+03  0.00000000000E+00 0. -1.
          2    1    6    6  503    0  0.17685197417E+02 -0.44896620574E+02  0.47214515195E+02  0.67510615400E+02  0.00000000000E+00 0. -1.
         -2    1    6    6    0  503  0.30675349083E+03 -0.16459254507E+03  0.35884031728E+03  0.49995478129E+03  0.00000000000E+00 0.  1.
<mgrwt>
<rscale>  0 0.19758466E+04</rscale>
<asrwt>0</asrwt>
<pdfrwt beam="1">  1        2 0.12684721E+00 0.19758466E+04</pdfrwt>
<pdfrwt beam="2">  1       -1 0.18211210E+00 0.19758466E+04</pdfrwt>
<totfact> 0.70622200E+00</totfact>
</mgrwt>
</event>
<event>
12    6  0.1530720E-007  0.1909386E+04  0.7818608E-02  0.8650198E-01
         -1   -1    0    0    0  501 -0.00000000000E+00  0.00000000000E+00  0.35780587678E+03  0.35780587678E+03  0.00000000000E+00 0.  1.
          2   -1    0    0  501    0  0.00000000000E+00 -0.00000000000E+00 -0.25472994487E+04  0.25472994487E+04  0.00000000000E+00 0. -1.
         24    2    1    2    0    0 -0.51658870337E+03 -0.43765411584E+03 -0.40349499925E+03  0.79222706699E+03  0.80065583685E+02 0.  0.
        254    2    1    2    0    0  0.51658870337E+03  0.43765411584E+03 -0.17859985726E+04  0.21128782585E+04  0.90335962940E+03 0.  0.
         23    2    4    4    0    0 -0.73955626026E+02 -0.21727231420E+03 -0.40357258953E+03  0.47121347543E+03  0.80589151025E+02 0.  0.
         23    2    4    4    0    0  0.59054432939E+03  0.65492643003E+03 -0.13824259831E+04  0.16416647830E+04  0.79312214295E+02 0.  0.
          4    1    3    3  502    0 -0.80534163535E+02 -0.51564611052E+02 -0.87457464485E+02  0.12958961649E+03  0.00000000000E+00 0. -1.
         -3    1    3    3    0  502 -0.43605453983E+03 -0.38608950479E+03 -0.31603753476E+03  0.66263745049E+03  0.00000000000E+00 0.  1.
         11    1    5    5    0    0 -0.50723635280E+02 -0.21105951473E+03 -0.37945039982E+03  0.43715170349E+03  0.00000000000E+00 0.  1.
        -11    1    5    5    0    0 -0.23231990746E+02 -0.62127994628E+01 -0.24122189709E+02  0.34061771938E+02  0.00000000000E+00 0. -1.
          2    1    6    6  503    0  0.23968650937E+03  0.32415635541E+03 -0.61874153208E+03  0.73849038521E+03  0.00000000000E+00 0. -1.
         -2    1    6    6    0  503  0.35085782002E+03  0.33077007462E+03 -0.76368445102E+03  0.90317439781E+03  0.00000000000E+00 0.  1.
<mgrwt>
<rscale>  0 0.19093860E+04</rscale>
<asrwt>0</asrwt>
<pdfrwt beam="1">  1        2 0.39189223E+00 0.19093860E+04</pdfrwt>
<pdfrwt beam="2">  1       -1 0.55047058E-01 0.19093860E+04</pdfrwt>
<totfact> 0.11622479E+01</totfact>
</mgrwt>
</event>
<event>
12    6  0.1530720E-007  0.1914334E+04  0.7818608E-02  0.8647754E-01
         -3   -1    0    0    0  501 -0.00000000000E+00  0.00000000000E+00  0.44783821949E+03  0.44783821949E+03  0.00000000000E+00 0.  1.
          2   -1    0    0  501    0  0.00000000000E+00 -0.00000000000E+00 -0.20457583864E+04  0.20457583864E+04  0.00000000000E+00 0. -1.
         24    2    1    2    0    0 -0.63945779517E+03 -0.36839226086E+03 -0.73246488433E+03  0.10426577701E+04  0.77532503891E+02 0.  0.
        254    2    1    2    0    0  0.63945779517E+03  0.36839226086E+03 -0.86545528258E+03  0.14509388358E+04  0.90088374905E+03 0.  0.
         23    2    4    4    0    0  0.83895040010E+02 -0.26026787335E+03 -0.82824196696E+02  0.29992606562E+03  0.91203364234E+02 0.  0.
         23    2    4    4    0    0  0.55556275516E+03  0.62866013421E+03 -0.78263108589E+03  0.11510127701E+04  0.91953472793E+02 0.  0.
          2    1    3    3  502    0 -0.39544923119E+03 -0.22224304330E+03 -0.50188655070E+03  0.67650733515E+03  0.00000000000E+00 0. -1.
         -1    1    3    3    0  502 -0.24400856398E+03 -0.14614921756E+03 -0.23057833363E+03  0.36615043497E+03  0.00000000000E+00 0.  1.
         11    1    5    5    0    0  0.80132403706E+02 -0.18733261230E+03 -0.22100435432E+02  0.20494667355E+03  0.00000000000E+00 0.  1.
        -11    1    5    5    0    0  0.37626363045E+01 -0.72935261049E+02 -0.60723761264E+02  0.94979392071E+02  0.00000000000E+00 0. -1.
          4    1    6    6  503    0  0.27742315147E+03  0.24510937259E+03 -0.34635101534E+03  0.50695289261E+03  0.00000000000E+00 0. -1.
         -4    1    6    6    0  503  0.27813960370E+03  0.38355076162E+03 -0.43628007055E+03  0.64405987753E+03  0.00000000000E+00 0.  1.
<mgrwt>
<rscale>  0 0.19143341E+04</rscale>
<asrwt>0</asrwt>
<pdfrwt beam="1">  1        2 0.31473205E+00 0.19143341E+04</pdfrwt>
<pdfrwt beam="2">  1       -3 0.68898189E-01 0.19143341E+04</pdfrwt>
<totfact> 0.76239207E+00</totfact>
</mgrwt>
</event>
<event>
12    6  0.1530720E-007  0.2907797E+04  0.7818608E-02  0.8270561E-01
          2   -1    0    0  501    0  0.00000000000E+00  0.00000000000E+00  0.34777116990E+04  0.34777116990E+04  0.00000000000E+00 0. -1.
         -1   -1    0    0    0  501 -0.00000000000E+00 -0.00000000000E+00 -0.60781945988E+03  0.60781945988E+03  0.00000000000E+00 0.  1.
         24    2    1    2    0    0 -0.73775022840E+03 -0.35319748195E+03 -0.14376967274E+03  0.83412706196E+03  0.77938282883E+02 0.  0.
        254    2    1    2    0    0  0.73775022840E+03  0.35319748195E+03  0.30136619119E+04  0.32514040970E+04  0.90578508583E+03 0.  0.
         23    2    4    4    0    0  0.12275763650E+03  0.87534258535E+02  0.14109244388E+02  0.17663707626E+03  0.90939002604E+02 0.  0.
         23    2    4    4    0    0  0.61499259189E+03  0.26566322342E+03  0.29995526675E+04  0.30747670207E+04  0.89906562840E+02 0.  0.
          2    1    3    3  502    0 -0.10632685155E+03 -0.67235356864E+02 -0.46767942908E+02  0.13421338628E+03  0.00000000000E+00 0. -1.
         -1    1    3    3    0  502 -0.63142337685E+03 -0.28596212509E+03 -0.97001729835E+02  0.69991367568E+03  0.00000000000E+00 0.  1.
         11    1    5    5    0    0  0.56295822037E+02  0.82372532581E+02 -0.19997886424E+02  0.10175642075E+03  0.00000000000E+00 0. -1.
        -11    1    5    5    0    0  0.66461814464E+02  0.51617259541E+01  0.34107130812E+02  0.74880655505E+02  0.00000000000E+00 0.  1.
          2    1    6    6  503    0  0.43879072400E+03  0.14664204283E+03  0.19915331484E+04  0.20445648606E+04  0.00000000000E+00 0. -1.
         -2    1    6    6    0  503  0.17620186790E+03  0.11902118058E+03  0.10080195191E+04  0.10302021601E+04  0.00000000000E+00 0.  1.
<mgrwt>
<rscale>  0 0.29077970E+04</rscale>
<asrwt>0</asrwt>
<pdfrwt beam="1">  1        2 0.53503256E+00 0.29077970E+04</pdfrwt>
<pdfrwt beam="2">  1       -1 0.93510688E-01 0.29077970E+04</pdfrwt>
<totfact> 0.91568343E-01</totfact>
</mgrwt>
</event>
<event>
12    6  0.1530720E-007  0.2840098E+04  0.7818608E-02  0.8290926E-01
         -1   -1    0    0    0  501 -0.00000000000E+00  0.00000000000E+00  0.86911413368E+03  0.86911413368E+03  0.00000000000E+00 0.  1.
          2   -1    0    0  501    0  0.00000000000E+00 -0.00000000000E+00 -0.23202240109E+04  0.23202240109E+04  0.00000000000E+00 0. -1.
         24    2    1    2    0    0  0.27807586718E+03 -0.11665394420E+04 -0.10652817393E+04  0.16059933775E+04  0.79051166536E+02 0.  0.
        254    2    1    2    0    0 -0.27807586718E+03  0.11665394420E+04 -0.38582813795E+03  0.15833447671E+04  0.95915423252E+03 0.  0.
         23    2    4    4    0    0 -0.60099072942E+03  0.54098459939E+03 -0.30317030856E+03  0.86850298136E+03  0.92363407345E+02 0.  0.
         23    2    4    4    0    0  0.32291486224E+03  0.62555484261E+03 -0.82657829388E+02  0.71484178572E+03  0.92593695727E+02 0.  0.
          2    1    3    3  502    0  0.91849324493E+02 -0.42704152718E+03 -0.33938284007E+03  0.55315592421E+03  0.00000000000E+00 0. -1.
         -1    1    3    3    0  502  0.18622654269E+03 -0.73949791481E+03 -0.72589889921E+03  0.10528374533E+04  0.00000000000E+00 0.  1.
         11    1    5    5    0    0 -0.10061075416E+03  0.11684193718E+03 -0.25882110774E+02  0.15634719631E+03  0.00000000000E+00 0.  1.
        -11    1    5    5    0    0 -0.50037997526E+03  0.42414266220E+03 -0.27728819779E+03  0.71215578504E+03  0.00000000000E+00 0. -1.
          3    1    6    6  503    0  0.32779250824E+03  0.62385675270E+03 -0.80775419783E+02  0.70934465867E+03  0.00000000000E+00 0. -1.
         -3    1    6    6    0  503 -0.48776460008E+01  0.16980899065E+01 -0.18824096052E+01  0.54971270461E+01  0.00000000000E+00 0.  1.
<mgrwt>
<rscale>  0 0.28400982E+04</rscale>
<asrwt>0</asrwt>
<pdfrwt beam="1">  1        2 0.35695754E+00 0.28400982E+04</pdfrwt>
<pdfrwt beam="2">  1       -1 0.13370987E+00 0.28400982E+04</pdfrwt>
<totfact> 0.20553222E+00</totfact>
</mgrwt>
</event>
<event>
12    6  0.1530720E-007  0.1336410E+04  0.7818608E-02  0.9001180E-01
         -1   -1    0    0    0  501 -0.00000000000E+00  0.00000000000E+00  0.12028455304E+03  0.12028455304E+03  0.00000000000E+00 0.  1.
          2   -1    0    0  501    0  0.00000000000E+00 -0.00000000000E+00 -0.37120151332E+04  0.37120151332E+04  0.00000000000E+00 0. -1.
         24    2    1    2    0    0  0.18465783046E+02  0.35284953746E+03 -0.76120706365E+03  0.84302763551E+03  0.80097560844E+02 0.  0.
        254    2    1    2    0    0 -0.18465783046E+02 -0.35284953746E+03 -0.28305235165E+04  0.29892720508E+04  0.89389050479E+03 0.  0.
         23    2    4    4    0    0  0.34545548736E+03 -0.41677330384E+03 -0.12805818266E+04  0.13933171778E+04  0.91670403062E+02 0.  0.
         23    2    4    4    0    0 -0.36392127040E+03  0.63923766385E+02 -0.15499416900E+04  0.15959548730E+04  0.90707085458E+02 0.  0.
          2    1    3    3  502    0  0.14045456041E+02  0.75524282175E+01 -0.48756296009E+02  0.51298054621E+02  0.00000000000E+00 0. -1.
         -1    1    3    3    0  502  0.44203270053E+01  0.34529710924E+03 -0.71245076764E+03  0.79172958089E+03  0.00000000000E+00 0.  1.
         11    1    5    5    0    0  0.28004707585E+03 -0.38270917546E+03 -0.11360660345E+04  0.12310721801E+04  0.00000000000E+00 0. -1.
        -11    1    5    5    0    0  0.65408411509E+02 -0.34064128385E+02 -0.14451579204E+03  0.16224499773E+03  0.00000000000E+00 0.  1.
          2    1    6    6  503    0 -0.30520096045E+03  0.46577882735E+02 -0.14066038669E+04  0.14400873459E+04  0.00000000000E+00 0. -1.
         -2    1    6    6    0  503 -0.58720309954E+02  0.17345883650E+02 -0.14333782304E+03  0.15586752706E+03  0.00000000000E+00 0.  1.
<mgrwt>
<rscale>  0 0.13364102E+04</rscale>
<asrwt>0</asrwt>
<pdfrwt beam="1">  1        2 0.57107935E+00 0.13364102E+04</pdfrwt>
<pdfrwt beam="2">  1       -1 0.18505313E-01 0.13364102E+04</pdfrwt>
<totfact> 0.15191153E+01</totfact>
</mgrwt>
</event>
<event>
12    6  0.1530720E-007  0.1599006E+04  0.7818608E-02  0.8821159E-01
          2   -1    0    0  501    0  0.00000000000E+00  0.00000000000E+00  0.15936235752E+04  0.15936235752E+04  0.00000000000E+00 0. -1.
         -1   -1    0    0    0  501 -0.00000000000E+00 -0.00000000000E+00 -0.40110166333E+03  0.40110166333E+03  0.00000000000E+00 0.  1.
         24    2    1    2    0    0  0.90953300973E+02 -0.40300062076E+02  0.10788249386E+04  0.10861789653E+04  0.77620219647E+02 0.  0.
        254    2    1    2    0    0 -0.90953300973E+02  0.40300062076E+02  0.11369697333E+03  0.90854627332E+03  0.89589772355E+03 0.  0.
         23    2    4    4    0    0 -0.20185193109E+02 -0.30155874525E+03 -0.24561877462E+03  0.39964923684E+03  0.89698445959E+02 0.  0.
         23    2    4    4    0    0 -0.70768107864E+02  0.34185880732E+03  0.35931574794E+03  0.50889703648E+03  0.89402560289E+02 0.  0.
          2    1    3    3  502    0  0.95233745299E+02 -0.15302006167E+02  0.94979287713E+03  0.95467802273E+03  0.00000000000E+00 0. -1.
         -1    1    3    3    0  502 -0.42804443255E+01 -0.24998055909E+02  0.12903206145E+03  0.13150094252E+03  0.00000000000E+00 0.  1.
         11    1    5    5    0    0 -0.28157271355E+02 -0.24205114101E+02 -0.20995530454E+02  0.42655970014E+02  0.00000000000E+00 0. -1.
        -11    1    5    5    0    0  0.79720782459E+01 -0.27735363115E+03 -0.22462324416E+03  0.35699326683E+03  0.00000000000E+00 0.  1.
          4    1    6    6  503    0  0.21192395701E+02  0.52177565844E+02  0.51334200241E+02  0.76202467987E+02  0.00000000000E+00 0. -1.
         -4    1    6    6    0  503 -0.91960503565E+02  0.28968124148E+03  0.30798154770E+03  0.43269456849E+03  0.00000000000E+00 0.  1.
<mgrwt>
<rscale>  0 0.15990060E+04</rscale>
<asrwt>0</asrwt>
<pdfrwt beam="1">  1        2 0.24517285E+00 0.15990060E+04</pdfrwt>
<pdfrwt beam="2">  1       -1 0.61707949E-01 0.15990060E+04</pdfrwt>
<totfact> 0.32722663E+01</totfact>
</mgrwt>
</event>
<event>
12    6  0.1530720E-007  0.1493292E+04  0.7818608E-02  0.8888926E-01
         -3   -1    0    0    0  501 -0.00000000000E+00  0.00000000000E+00  0.19291569057E+04  0.19291569057E+04  0.00000000000E+00 0.  1.
          4   -1    0    0  501    0  0.00000000000E+00 -0.00000000000E+00 -0.28897616915E+03  0.28897616915E+03  0.00000000000E+00 0. -1.
         24    2    1    2    0    0  0.30530109317E+02 -0.43614048637E+03  0.27313810245E+03  0.52134432604E+03  0.77748774003E+02 0.  0.
        254    2    1    2    0    0 -0.30530109317E+02  0.43614048637E+03  0.13670426341E+04  0.16967887488E+04  0.90506125935E+03 0.  0.
         23    2    4    4    0    0 -0.64868954575E+02  0.17968506298E+03 -0.78301843409E+02  0.22548974546E+03  0.90662801091E+02 0.  0.
         23    2    4    4    0    0  0.34338845258E+02  0.25645542339E+03  0.14453444775E+04  0.14712990033E+04  0.93549762699E+02 0.  0.
          2    1    3    3  502    0  0.28119453039E+02 -0.42070288489E+03  0.24111806547E+03  0.48571549542E+03  0.00000000000E+00 0. -1.
         -1    1    3    3    0  502  0.24106562779E+01 -0.15437601477E+02  0.32020036982E+02  0.35628830621E+02  0.00000000000E+00 0.  1.
         11    1    5    5    0    0 -0.15091393680E+00  0.21344241643E+02  0.19102982951E+02  0.28644779350E+02  0.00000000000E+00 0. -1.
        -11    1    5    5    0    0 -0.64718040638E+02  0.15834082133E+03 -0.97404826360E+02  0.19684496611E+03  0.00000000000E+00 0.  1.
          4    1    6    6  503    0 -0.17853457191E+02  0.93319002613E+02  0.35102034301E+03  0.36365156866E+03  0.00000000000E+00 0. -1.
         -4    1    6    6    0  503  0.52192302449E+02  0.16313642078E+03  0.10943241345E+04  0.11076474346E+04  0.00000000000E+00 0.  1.
<mgrwt>
<rscale>  0 0.14932922E+04</rscale>
<asrwt>0</asrwt>
<pdfrwt beam="1">  1        4 0.44457873E-01 0.14932922E+04</pdfrwt>
<pdfrwt beam="2">  1       -3 0.29679336E+00 0.14932922E+04</pdfrwt>
<totfact> 0.43376483E-01</totfact>
</mgrwt>
</event>
<event>
12    6  0.1530720E-007  0.1721482E+04  0.7818608E-02  0.8749206E-01
          2   -1    0    0  501    0  0.00000000000E+00  0.00000000000E+00  0.15185845018E+04  0.15185845018E+04  0.00000000000E+00 0. -1.
         -1   -1    0    0    0  501 -0.00000000000E+00 -0.00000000000E+00 -0.48787201623E+03  0.48787201623E+03  0.00000000000E+00 0.  1.
         24    2    1    2    0    0 -0.22752527161E+03 -0.36205220491E+03 -0.15372759224E+03  0.46154663139E+03  0.80892348422E+02 0.  0.
        254    2    1    2    0    0  0.22752527161E+03  0.36205220491E+03  0.11844400778E+04  0.15449098866E+04  0.89498531364E+03 0.  0.
         23    2    4    4    0    0  0.52871694235E+03  0.40034956805E+02  0.57553684260E+03  0.78780904912E+03  0.90862741422E+02 0.  0.
         23    2    4    4    0    0 -0.30119167075E+03  0.32201724810E+03  0.60890323520E+03  0.75710083752E+03  0.89593513905E+02 0.  0.
          2    1    3    3  502    0 -0.70103077142E+02 -0.52119567479E+02 -0.25068368428E+02  0.90880767133E+02  0.00000000000E+00 0. -1.
         -1    1    3    3    0  502 -0.15742219446E+03 -0.30993263743E+03 -0.12865922381E+03  0.37066586426E+03  0.00000000000E+00 0.  1.
         11    1    5    5    0    0  0.14295746950E+03  0.28105027386E+02  0.10689088835E+03  0.18069973066E+03  0.00000000000E+00 0.  1.
        -11    1    5    5    0    0  0.38575947285E+03  0.11929929419E+02  0.46864595426E+03  0.60710931845E+03  0.00000000000E+00 0. -1.
          3    1    6    6  503    0 -0.17046096252E+03  0.15452045531E+03  0.38441043924E+03  0.44800100072E+03  0.00000000000E+00 0. -1.
         -3    1    6    6    0  503 -0.13073070823E+03  0.16749679280E+03  0.22449279596E+03  0.30909983679E+03  0.00000000000E+00 0.  1.
<mgrwt>
<rscale>  0 0.17214818E+04</rscale>
<asrwt>0</asrwt>
<pdfrwt beam="1">  1        2 0.23362838E+00 0.17214818E+04</pdfrwt>
<pdfrwt beam="2">  1       -1 0.75057234E-01 0.17214818E+04</pdfrwt>
<totfact> 0.23940953E+01</totfact>
</mgrwt>
</event>
<event>
12    6  0.1530720E-007  0.1649497E+04  0.7818608E-02  0.8790704E-01
         -1   -1    0    0    0  501 -0.00000000000E+00  0.00000000000E+00  0.18234738243E+04  0.18234738243E+04  0.00000000000E+00 0.  1.
          2   -1    0    0  501    0  0.00000000000E+00 -0.00000000000E+00 -0.37302996525E+03  0.37302996525E+03  0.00000000000E+00 0. -1.
         24    2    1    2    0    0  0.35175933341E+02  0.58281921399E+03  0.50185201209E+03  0.77402599967E+03  0.79656912088E+02 0.  0.
        254    2    1    2    0    0 -0.35175933341E+02 -0.58281921399E+03  0.94859184699E+03  0.14224777899E+04  0.88470389855E+03 0.  0.
         23    2    4    4    0    0 -0.10080735556E+03  0.20697740924E+03  0.13221815031E+03  0.28056069267E+03  0.90724264297E+02 0.  0.
         23    2    4    4    0    0  0.65631422222E+02 -0.78979662323E+03  0.81637369669E+03  0.11419170972E+04  0.97069329175E+02 0.  0.
          4    1    3    3  502    0  0.18819649719E+02  0.16004705016E+03  0.95055535900E+02  0.18709567709E+03  0.00000000000E+00 0. -1.
         -3    1    3    3    0  502  0.16356283623E+02  0.42277216383E+03  0.40679647619E+03  0.58693032258E+03  0.00000000000E+00 0.  1.
         11    1    5    5    0    0  0.99558839721E+01  0.56862247299E+02  0.51239755798E+02  0.77187741046E+02  0.00000000000E+00 0.  1.
        -11    1    5    5    0    0 -0.11076323954E+03  0.15011516194E+03  0.80978394511E+02  0.20337295163E+03  0.00000000000E+00 0. -1.
          3    1    6    6  503    0  0.74815302918E+02 -0.62008961810E+03  0.59314168480E+03  0.86135098669E+03  0.00000000000E+00 0. -1.
         -3    1    6    6    0  503 -0.91838806959E+01 -0.16970700513E+03  0.22323201189E+03  0.28056611055E+03  0.00000000000E+00 0.  1.
<mgrwt>
<rscale>  0 0.16494974E+04</rscale>
<asrwt>0</asrwt>
<pdfrwt beam="1">  1        2 0.57389227E-01 0.16494974E+04</pdfrwt>
<pdfrwt beam="2">  1       -1 0.28053443E+00 0.16494974E+04</pdfrwt>
<totfact> 0.41555055E+00</totfact>
</mgrwt>
</event>
<event>
12    6  0.1530720E-007  0.2546294E+04  0.7818608E-02  0.8386676E-01
          2   -1    0    0  501    0  0.00000000000E+00  0.00000000000E+00  0.22257096893E+04  0.22257096893E+04  0.00000000000E+00 0. -1.
         -1   -1    0    0    0  501 -0.00000000000E+00 -0.00000000000E+00 -0.72826334258E+03  0.72826334258E+03  0.00000000000E+00 0.  1.
         24    2    1    2    0    0 -0.75769457131E+03 -0.53935300397E+03 -0.56241449817E+02  0.93533755771E+03  0.81795598357E+02 0.  0.
        254    2    1    2    0    0  0.75769457131E+03  0.53935300397E+03  0.15536877966E+04  0.20186354742E+04  0.89215507746E+03 0.  0.
         23    2    4    4    0    0 -0.17678767838E+02 -0.13244170874E+03  0.12659656607E+02  0.16501623647E+03  0.96003887148E+02 0.  0.
         23    2    4    4    0    0  0.77537333914E+03  0.67179471271E+03  0.15410281400E+04  0.18536192377E+04  0.92868720699E+02 0.  0.
          2    1    3    3  502    0 -0.39263560772E+02 -0.23060494957E+02 -0.20433284945E+02  0.49909245294E+02  0.00000000000E+00 0. -1.
         -1    1    3    3    0  502 -0.71843101053E+03 -0.51629250902E+03 -0.35808164872E+02  0.88542831242E+03  0.00000000000E+00 0.  1.
         11    1    5    5    0    0  0.14440386615E+01 -0.13941692918E+03  0.24362081288E+02  0.14153683758E+03  0.00000000000E+00 0.  1.
        -11    1    5    5    0    0 -0.19122806500E+02  0.69752204389E+01 -0.11702424681E+02  0.23479398885E+02  0.00000000000E+00 0. -1.
          2    1    6    6  503    0  0.75500977833E+03  0.63346501552E+03  0.14921979311E+04  0.17882875487E+04  0.00000000000E+00 0.  1.
         -2    1    6    6    0  503  0.20363560812E+02  0.38329697190E+02  0.48830208916E+02  0.65331689082E+02  0.00000000000E+00 0. -1.
<mgrwt>
<rscale>  0 0.25462936E+04</rscale>
<asrwt>0</asrwt>
<pdfrwt beam="1">  1        2 0.34241687E+00 0.25462936E+04</pdfrwt>
<pdfrwt beam="2">  1       -1 0.11204052E+00 0.25462936E+04</pdfrwt>
<totfact> 0.36871691E+00</totfact>
</mgrwt>
</event>
<event>
12    6  0.1530720E-007  0.2450811E+04  0.7818608E-02  0.8420722E-01
         -1   -1    0    0    0  501 -0.00000000000E+00  0.00000000000E+00  0.73424065263E+03  0.73424065263E+03  0.00000000000E+00 0.  1.
          2   -1    0    0  501    0  0.00000000000E+00 -0.00000000000E+00 -0.20451310435E+04  0.20451310435E+04  0.00000000000E+00 0. -1.
         24    2    1    2    0    0 -0.21953304067E+03 -0.65873731221E+03 -0.14770292864E+04  0.16340829007E+04  0.80509695598E+02 0.  0.
        254    2    1    2    0    0  0.21953304067E+03  0.65873731221E+03  0.16613889548E+03  0.11452887955E+04  0.89551922927E+03 0.  0.
         23    2    4    4    0    0  0.26350035497E+02  0.37702534211E+03 -0.34744977070E+03  0.52184058669E+03  0.93561860749E+02 0.  0.
         23    2    4    4    0    0  0.19318300517E+03  0.28171197010E+03  0.51358866618E+03  0.62344820878E+03  0.90736119733E+02 0.  0.
          2    1    3    3  502    0 -0.22392991063E+03 -0.60874163809E+03 -0.13605844648E+04  0.15072826785E+04  0.00000000000E+00 0. -1.
         -1    1    3    3    0  502  0.43968699636E+01 -0.49995674117E+02 -0.11644482152E+03  0.12680022222E+03  0.00000000000E+00 0.  1.
         11    1    5    5    0    0 -0.19825930391E+01  0.23839475020E+02 -0.63255298837E+02  0.67627539327E+02  0.00000000000E+00 0. -1.
        -11    1    5    5    0    0  0.28332628536E+02  0.35318586709E+03 -0.28419447186E+03  0.45421304736E+03  0.00000000000E+00 0.  1.
          1    1    6    6  503    0  0.74701469306E+01  0.71692093447E+02  0.12482295987E+03  0.14413996902E+03  0.00000000000E+00 0. -1.
         -1    1    6    6    0  503  0.18571285824E+03  0.21001987665E+03  0.38876570631E+03  0.47930823977E+03  0.00000000000E+00 0.  1.
<mgrwt>
<rscale>  0 0.24508108E+04</rscale>
<asrwt>0</asrwt>
<pdfrwt beam="1">  1        2 0.31463555E+00 0.24508108E+04</pdfrwt>
<pdfrwt beam="2">  1       -1 0.11296010E+00 0.24508108E+04</pdfrwt>
<totfact> 0.46028945E+00</totfact>
</mgrwt>
</event>
<event>
12    6  0.1530720E-007  0.1232973E+04  0.7818608E-02  0.9084475E-01
         -3   -1    0    0    0  501 -0.00000000000E+00  0.00000000000E+00  0.26387042120E+04  0.26387042120E+04  0.00000000000E+00 0.  1.
          4   -1    0    0  501    0  0.00000000000E+00 -0.00000000000E+00 -0.14403112826E+03  0.14403112826E+03  0.00000000000E+00 0. -1.
         24    2    1    2    0    0 -0.17359865564E+03 -0.56094615174E+02  0.92041420005E+03  0.94166275329E+03  0.79267535483E+02 0.  0.
        254    2    1    2    0    0  0.17359865564E+03  0.56094615174E+02  0.15742588837E+04  0.18410725870E+04  0.93700274202E+03 0.  0.
         23    2    4    4    0    0  0.19746535745E+03 -0.34886072306E+03  0.32754652097E+03  0.52676418734E+03  0.97454677531E+02 0.  0.
         23    2    4    4    0    0 -0.23866701810E+02  0.40495533823E+03  0.12467123627E+04  0.13143083996E+04  0.92500857296E+02 0.  0.
          2    1    3    3  502    0 -0.31333991682E+02  0.65894376166E+01  0.67665535506E+02  0.74858963512E+02  0.00000000000E+00 0. -1.
         -1    1    3    3    0  502 -0.14226466396E+03 -0.62684052791E+02  0.85274866455E+03  0.86680378978E+03  0.00000000000E+00 0.  1.
         11    1    5    5    0    0  0.33164979348E+02 -0.15201772560E+03  0.11061803106E+03  0.19090744760E+03  0.00000000000E+00 0. -1.
        -11    1    5    5    0    0  0.16430037811E+03 -0.19684299746E+03  0.21692848991E+03  0.33585673974E+03  0.00000000000E+00 0.  1.
          2    1    6    6  503    0 -0.44397969402E+02  0.11703335831E+03  0.44245374662E+03  0.45981877358E+03  0.00000000000E+00 0.  1.
         -2    1    6    6    0  503  0.20531267592E+02  0.28792197992E+03  0.80425861608E+03  0.85448962604E+03  0.00000000000E+00 0. -1.
<mgrwt>
<rscale>  0 0.12329729E+04</rscale>
<asrwt>0</asrwt>
<pdfrwt beam="1">  1        4 0.22158637E-01 0.12329729E+04</pdfrwt>
<pdfrwt beam="2">  1       -3 0.40595446E+00 0.12329729E+04</pdfrwt>
<totfact> 0.43142976E-01</totfact>
</mgrwt>
</event>
<event>
12    6  0.1530720E-007  0.1794897E+04  0.7818608E-02  0.8709018E-01
          2   -1    0    0  501    0  0.00000000000E+00  0.00000000000E+00  0.17544418375E+04  0.17544418375E+04  0.00000000000E+00 0. -1.
         -1   -1    0    0    0  501 -0.00000000000E+00 -0.00000000000E+00 -0.45907108660E+03  0.45907108660E+03  0.00000000000E+00 0.  1.
         24    2    1    2    0    0  0.39303817339E+03 -0.48827905708E+03  0.77291613554E+03  0.99831548689E+03  0.79617934331E+02 0.  0.
        254    2    1    2    0    0 -0.39303817339E+03  0.48827905708E+03  0.52245461540E+03  0.12151974373E+04  0.90047239993E+03 0.  0.
         23    2    4    4    0    0 -0.41245250045E+03  0.72677977690E+03  0.40187013353E+03  0.93165220962E+03  0.90279157226E+02 0.  0.
         23    2    4    4    0    0  0.19414327065E+02 -0.23850071982E+03  0.12058448187E+03  0.28354522764E+03  0.92724157573E+02 0.  0.
          4    1    3    3  502    0  0.14776582973E+03 -0.19183273411E+03  0.23918959096E+03  0.34036186440E+03  0.00000000000E+00 0. -1.
         -3    1    3    3    0  502  0.24527234366E+03 -0.29644632297E+03  0.53372654458E+03  0.65795362250E+03  0.00000000000E+00 0.  1.
         11    1    5    5    0    0 -0.21979655903E+03  0.43876655801E+03  0.27573678134E+03  0.56290087260E+03  0.00000000000E+00 0. -1.
        -11    1    5    5    0    0 -0.19265594143E+03  0.28801321889E+03  0.12613335219E+03  0.36875133702E+03  0.00000000000E+00 0.  1.
          2    1    6    6  503    0 -0.35014883270E+02 -0.55810413150E+02  0.34717134505E+02  0.74472301527E+02  0.00000000000E+00 0. -1.
         -2    1    6    6    0  503  0.54429210335E+02 -0.18269030667E+03  0.85867347370E+02  0.20907292611E+03  0.00000000000E+00 0.  1.
<mgrwt>
<rscale>  0 0.17948967E+04</rscale>
<asrwt>0</asrwt>
<pdfrwt beam="1">  1        2 0.26991412E+00 0.17948967E+04</pdfrwt>
<pdfrwt beam="2">  1       -1 0.70626322E-01 0.17948967E+04</pdfrwt>
<totfact> 0.19930976E+01</totfact>
</mgrwt>
</event>
<event>
12    6  0.1530720E-007  0.2654458E+04  0.7818608E-02  0.8349935E-01
         -1   -1    0    0    0  501 -0.00000000000E+00  0.00000000000E+00  0.13487080710E+04  0.13487080710E+04  0.00000000000E+00 0.  1.
          2   -1    0    0  501    0  0.00000000000E+00 -0.00000000000E+00 -0.13060919529E+04  0.13060919529E+04  0.00000000000E+00 0. -1.
         24    2    1    2    0    0 -0.11198347170E+04  0.32719222155E+03 -0.94125579212E+02  0.11729000053E+04  0.75830432167E+02 0.  0.
        254    2    1    2    0    0  0.11198347170E+04 -0.32719222155E+03  0.13674169728E+03  0.14819000186E+04  0.90346268885E+03 0.  0.
         23    2    4    4    0    0  0.35143594514E+03 -0.55920308001E+03  0.88652052028E+02  0.67243597927E+03  0.89975839279E+02 0.  0.
         23    2    4    4    0    0  0.76839877189E+03  0.23201085846E+03  0.48089645254E+02  0.80946403937E+03  0.93025297476E+02 0.  0.
          4    1    3    3  502    0 -0.13168328799E+03  0.25731335215E+02  0.10042071460E+02  0.13454899905E+03  0.00000000000E+00 0. -1.
         -3    1    3    3    0  502 -0.98815142904E+03  0.30146088633E+03 -0.10416765067E+03  0.10383510062E+04  0.00000000000E+00 0.  1.
         11    1    5    5    0    0  0.79113016543E+02 -0.19540283145E+03  0.47855949631E+02  0.21617429968E+03  0.00000000000E+00 0. -1.
        -11    1    5    5    0    0  0.27232292860E+03 -0.36380024856E+03  0.40796102397E+02  0.45626167959E+03  0.00000000000E+00 0.  1.
          3    1    6    6  503    0  0.43425209958E+03  0.10467681834E+03 -0.12066149923E+02  0.44685312381E+03  0.00000000000E+00 0. -1.
         -3    1    6    6    0  503  0.33414667231E+03  0.12733404012E+03  0.60155795177E+02  0.36261091556E+03  0.00000000000E+00 0.  1.
<mgrwt>
<rscale>  0 0.26544580E+04</rscale>
<asrwt>0</asrwt>
<pdfrwt beam="1">  1        2 0.20093722E+00 0.26544580E+04</pdfrwt>
<pdfrwt beam="2">  1       -1 0.20749355E+00 0.26544580E+04</pdfrwt>
<totfact> 0.21995330E+00</totfact>
</mgrwt>
</event>
<event>
12    6  0.1530720E-007  0.1456970E+04  0.7818608E-02  0.8913583E-01
          2   -1    0    0  501    0  0.00000000000E+00  0.00000000000E+00  0.11832259471E+04  0.11832259471E+04  0.00000000000E+00 0. -1.
         -1   -1    0    0    0  501 -0.00000000000E+00 -0.00000000000E+00 -0.44851117366E+03  0.44851117366E+03  0.00000000000E+00 0.  1.
         24    2    1    2    0    0  0.20588978045E+03 -0.23801357768E+03 -0.12829178527E+03  0.34937517707E+03  0.81013377487E+02 0.  0.
        254    2    1    2    0    0 -0.20588978045E+03  0.23801357768E+03  0.86300655870E+03  0.12823619437E+04  0.89477973233E+03 0.  0.
         23    2    4    4    0    0 -0.26929424188E+03  0.53570197553E+03  0.42676367938E+03  0.74126822317E+03  0.88630386135E+02 0.  0.
         23    2    4    4    0    0  0.63404461431E+02 -0.29768839785E+03  0.43624287931E+03  0.54109372051E+03  0.99176895883E+02 0.  0.
          2    1    3    3  502    0  0.63061255227E+02 -0.32774067595E+02 -0.68524624995E+01  0.71399003213E+02  0.00000000000E+00 0. -1.
         -1    1    3    3    0  502  0.14282852522E+03 -0.20523951009E+03 -0.12143932277E+03  0.27797617386E+03  0.00000000000E+00 0.  1.
         11    1    5    5    0    0 -0.15306840653E+03  0.23528953499E+03  0.16043021709E+03  0.32330938265E+03  0.00000000000E+00 0. -1.
        -11    1    5    5    0    0 -0.11622583535E+03  0.30041244054E+03  0.26633346229E+03  0.41795884052E+03  0.00000000000E+00 0.  1.
          2    1    6    6  503    0 -0.95159766981E+01 -0.18002017892E+03  0.27168556126E+03  0.32605346621E+03  0.00000000000E+00 0.  1.
         -2    1    6    6    0  503  0.72920438129E+02 -0.11766821893E+03  0.16455731805E+03  0.21504025430E+03  0.00000000000E+00 0. -1.
<mgrwt>
<rscale>  0 0.14569695E+04</rscale>
<asrwt>0</asrwt>
<pdfrwt beam="1">  1        2 0.18203476E+00 0.14569695E+04</pdfrwt>
<pdfrwt beam="2">  1       -1 0.69001719E-01 0.14569695E+04</pdfrwt>
<totfact> 0.45532222E+01</totfact>
</mgrwt>
</event>
<event>
12    6  0.1530720E-007  0.1435353E+04  0.7818608E-02  0.8928619E-01
         -1   -1    0    0    0  501 -0.00000000000E+00  0.00000000000E+00  0.60497143260E+03  0.60497143260E+03  0.00000000000E+00 0.  1.
          2   -1    0    0  501    0  0.00000000000E+00 -0.00000000000E+00 -0.85137812548E+03  0.85137812548E+03  0.00000000000E+00 0. -1.
         24    2    1    2    0    0 -0.40461395432E+03  0.12424684157E+03  0.16887882296E+02  0.43107384642E+03  0.79935791900E+02 0.  0.
        254    2    1    2    0    0  0.40461395432E+03 -0.12424684157E+03 -0.26329457518E+03  0.10252757117E+04  0.89594448598E+03 0.  0.
         23    2    4    4    0    0 -0.15792239249E+03  0.24965731801E+03 -0.79536826812E+02  0.31898767480E+03  0.90325917464E+02 0.  0.
         23    2    4    4    0    0  0.56253634681E+03 -0.37390415958E+03 -0.18375774837E+03  0.70628803687E+03  0.93938378254E+02 0.  0.
          4    1    3    3  502    0 -0.22966700843E+03  0.64952555178E+02 -0.29840120030E+02  0.24053316185E+03  0.00000000000E+00 0. -1.
         -3    1    3    3    0  502 -0.17494694589E+03  0.59294286394E+02  0.46728002326E+02  0.19054068457E+03  0.00000000000E+00 0.  1.
         11    1    5    5    0    0 -0.22397893180E+02  0.85235632605E+00  0.56908799725E+01  0.23125272865E+02  0.00000000000E+00 0. -1.
        -11    1    5    5    0    0 -0.13552449931E+03  0.24880496169E+03 -0.85227706784E+02  0.29586240193E+03  0.00000000000E+00 0.  1.
          4    1    6    6  503    0  0.14808674006E+03 -0.86023882072E+02 -0.88423404174E+02  0.19273943363E+03  0.00000000000E+00 0. -1.
         -4    1    6    6    0  503  0.41444960675E+03 -0.28788027751E+03 -0.95334344192E+02  0.51354860325E+03  0.00000000000E+00 0.  1.
<mgrwt>
<rscale>  0 0.14353528E+04</rscale>
<asrwt>0</asrwt>
<pdfrwt beam="1">  1        2 0.13098125E+00 0.14353528E+04</pdfrwt>
<pdfrwt beam="2">  1       -1 0.93072529E-01 0.14353528E+04</pdfrwt>
<totfact> 0.39359302E+01</totfact>
</mgrwt>
</event>
<event>
12    6  0.1530720E-007  0.1298942E+04  0.7818608E-02  0.9030405E-01
         -1   -1    0    0    0  501 -0.00000000000E+00  0.00000000000E+00  0.43553026931E+03  0.43553026931E+03  0.00000000000E+00 0.  1.
          2   -1    0    0  501    0  0.00000000000E+00 -0.00000000000E+00 -0.96850360570E+03  0.96850360570E+03  0.00000000000E+00 0. -1.
         24    2    1    2    0    0 -0.16452413927E+02 -0.12282470197E+03  0.19019052653E+03  0.24090428456E+03  0.80658840789E+02 0.  0.
        254    2    1    2    0    0  0.16452413927E+02  0.12282470197E+03 -0.72316386293E+03  0.11631295904E+04  0.90252306464E+03 0.  0.
         23    2    4    4    0    0 -0.15188976342E+03  0.30862848657E+03  0.36688487171E+02  0.35782608378E+03  0.91495454465E+02 0.  0.
         23    2    4    4    0    0  0.16834217735E+03 -0.18580378459E+03 -0.75985235010E+03  0.80530350667E+03  0.90972572077E+02 0.  0.
          2    1    3    3  502    0  0.33516419148E+01  0.17494990943E+01  0.58235984596E+02  0.58358582509E+02  0.00000000000E+00 0. -1.
         -1    1    3    3    0  502 -0.19804055842E+02 -0.12457420106E+03  0.13195454194E+03  0.18254570205E+03  0.00000000000E+00 0.  1.
         11    1    5    5    0    0 -0.15671023942E+03  0.31157720642E+03  0.40348915916E+02  0.35109327780E+03  0.00000000000E+00 0.  1.
        -11    1    5    5    0    0  0.48204759995E+01 -0.29487198594E+01 -0.36604287456E+01  0.67328059732E+01  0.00000000000E+00 0. -1.
          1    1    6    6  503    0  0.41346063579E+01 -0.31087812264E+02 -0.39437452100E+02  0.50387098242E+02  0.00000000000E+00 0. -1.
         -1    1    6    6    0  503  0.16420757099E+03 -0.15471597233E+03 -0.72041489800E+03  0.75491640843E+03  0.00000000000E+00 0.  1.
<mgrwt>
<rscale>  0 0.12989421E+04</rscale>
<asrwt>0</asrwt>
<pdfrwt beam="1">  1        2 0.14900055E+00 0.12989421E+04</pdfrwt>
<pdfrwt beam="2">  1       -1 0.67004658E-01 0.12989421E+04</pdfrwt>
<totfact> 0.66634520E+01</totfact>
</mgrwt>
</event>
<event>
12    6  0.1530720E-007  0.2814194E+04  0.7818608E-02  0.8298875E-01
         -1   -1    0    0    0  501 -0.00000000000E+00  0.00000000000E+00  0.16220582467E+04  0.16220582467E+04  0.00000000000E+00 0.  1.
          2   -1    0    0  501    0  0.00000000000E+00 -0.00000000000E+00 -0.12206234872E+04  0.12206234872E+04  0.00000000000E+00 0. -1.
         24    2    1    2    0    0 -0.10970422942E+04  0.13303097120E+03  0.79121533980E+03  0.13617208525E+04  0.84041249493E+02 0.  0.
        254    2    1    2    0    0  0.10970422942E+04 -0.13303097120E+03 -0.38978058033E+03  0.14809608815E+04  0.90560322288E+03 0.  0.
         23    2    4    4    0    0  0.24156486879E+03  0.30216714392E+03 -0.32755771661E+03  0.51489789078E+03  0.90372625960E+02 0.  0.
         23    2    4    4    0    0  0.85547742536E+03 -0.43519811512E+03 -0.62222863721E+02  0.96606299072E+03  0.90371414572E+02 0.  0.
          2    1    3    3  502    0 -0.26904529451E+02  0.92280906240E+01  0.71607144995E+01  0.29330652800E+02  0.00000000000E+00 0. -1.
         -1    1    3    3    0  502 -0.10701377647E+04  0.12380288057E+03  0.78405462530E+03  0.13323901997E+04  0.00000000000E+00 0.  1.
         11    1    5    5    0    0  0.95287708518E+02  0.67496932993E+02 -0.13183673850E+03  0.17611504472E+03  0.00000000000E+00 0. -1.
        -11    1    5    5    0    0  0.14627716028E+03  0.23467021093E+03 -0.19572097810E+03  0.33878284606E+03  0.00000000000E+00 0.  1.
          1    1    6    6  503    0  0.40828803751E+03 -0.25584244581E+03 -0.16909597513E+02  0.48212074540E+03  0.00000000000E+00 0. -1.
         -1    1    6    6    0  503  0.44718938784E+03 -0.17935566931E+03 -0.45313266208E+02  0.48394224532E+03  0.00000000000E+00 0.  1.
<mgrwt>
<rscale>  0 0.28141943E+04</rscale>
<asrwt>0</asrwt>
<pdfrwt beam="1">  1        2 0.18778823E+00 0.28141943E+04</pdfrwt>
<pdfrwt beam="2">  1       -1 0.24954742E+00 0.28141943E+04</pdfrwt>
<totfact> 0.12797907E+00</totfact>
</mgrwt>
</event>
<event>
12    6  0.1530720E-007  0.1659944E+04  0.7818608E-02  0.8784545E-01
         -1   -1    0    0    0  501 -0.00000000000E+00  0.00000000000E+00  0.10502670540E+04  0.10502670540E+04  0.00000000000E+00 0.  1.
          2   -1    0    0  501    0  0.00000000000E+00 -0.00000000000E+00 -0.65588415823E+03  0.65588415823E+03  0.00000000000E+00 0. -1.
         24    2    1    2    0    0  0.25610965222E+03 -0.49404677320E+02  0.65792266036E+03  0.71240150374E+03  0.81367680403E+02 0.  0.
        254    2    1    2    0    0 -0.25610965222E+03  0.49404677320E+02 -0.26353976457E+03  0.99374970852E+03  0.92198280871E+03 0.  0.
         23    2    4    4    0    0 -0.33940514305E+03 -0.32765537645E+02  0.26701813424E+03  0.44281410887E+03  0.92283364766E+02 0.  0.
         23    2    4    4    0    0  0.83295490831E+02  0.82170214965E+02 -0.53055789881E+03  0.55093559965E+03  0.91368856540E+02 0.  0.
          4    1    3    3  502    0  0.30602230282E+02 -0.75101997596E+01  0.17454273442E+03  0.17736421775E+03  0.00000000000E+00 0. -1.
         -3    1    3    3    0  502  0.22550742194E+03 -0.41894477560E+02  0.48337992594E+03  0.53503728599E+03  0.00000000000E+00 0.  1.
         11    1    5    5    0    0 -0.20569819467E+03  0.23341258634E+02  0.13869214969E+03  0.24918281247E+03  0.00000000000E+00 0. -1.
        -11    1    5    5    0    0 -0.13370694839E+03 -0.56106796279E+02  0.12832598455E+03  0.19363129640E+03  0.00000000000E+00 0.  1.
          3    1    6    6  503    0  0.73587856453E+02  0.23013540835E+02 -0.39874442591E+03  0.40613041363E+03  0.00000000000E+00 0. -1.
         -3    1    6    6    0  503  0.97076343771E+01  0.59156674130E+02 -0.13181347290E+03  0.14480518602E+03  0.00000000000E+00 0.  1.
<mgrwt>
<rscale>  0 0.16599440E+04</rscale>
<asrwt>0</asrwt>
<pdfrwt beam="1">  1        2 0.10090526E+00 0.16599440E+04</pdfrwt>
<pdfrwt beam="2">  1       -1 0.16157955E+00 0.16599440E+04</pdfrwt>
<totfact> 0.13781914E+01</totfact>
</mgrwt>
</event>
<event>
12    6  0.1530720E-007  0.2548625E+04  0.7818608E-02  0.8385865E-01
         -1   -1    0    0    0  501 -0.00000000000E+00  0.00000000000E+00  0.95607417281E+03  0.95607417281E+03  0.00000000000E+00 0.  1.
          2   -1    0    0  501    0  0.00000000000E+00 -0.00000000000E+00 -0.16984788158E+04  0.16984788158E+04  0.00000000000E+00 0. -1.
         24    2    1    2    0    0  0.47854968367E+02  0.94486176317E+03 -0.98210867504E+03  0.13667812379E+04  0.92193563497E+02 0.  0.
        254    2    1    2    0    0 -0.47854968367E+02 -0.94486176317E+03  0.23970403203E+03  0.12877717507E+04  0.84014535024E+03 0.  0.
         23    2    4    4    0    0  0.31733291941E+03 -0.33700483345E+03 -0.11999314472E+03  0.48695689572E+03  0.91957729426E+02 0.  0.
         23    2    4    4    0    0 -0.36518788778E+03 -0.60785692972E+03  0.35969717675E+03  0.80081485502E+03  0.95237244114E+02 0.  0.
          2    1    3    3  502    0  0.59451364813E+02  0.85393879530E+03 -0.91636454621E+03  0.12539816237E+04  0.00000000000E+00 0. -1.
         -1    1    3    3    0  502 -0.11596396445E+02  0.90922967869E+02 -0.65744128835E+02  0.11279961424E+03  0.00000000000E+00 0.  1.
         11    1    5    5    0    0  0.21756114244E+01 -0.28015619981E+02  0.43060747999E+01  0.28427988465E+02  0.00000000000E+00 0. -1.
        -11    1    5    5    0    0  0.31515730798E+03 -0.30898921347E+03 -0.12429921952E+03  0.45852890726E+03  0.00000000000E+00 0.  1.
          1    1    6    6  503    0 -0.79661566911E+02 -0.67865896872E+02  0.53674604703E+02  0.11761253501E+03  0.00000000000E+00 0. -1.
         -1    1    6    6    0  503 -0.28552632087E+03 -0.53999103285E+03  0.30602257205E+03  0.68320232001E+03  0.00000000000E+00 0.  1.
<mgrwt>
<rscale>  0 0.25486245E+04</rscale>
<asrwt>0</asrwt>
<pdfrwt beam="1">  1        2 0.26130443E+00 0.25486245E+04</pdfrwt>
<pdfrwt beam="2">  1       -1 0.14708833E+00 0.25486245E+04</pdfrwt>
<totfact> 0.36548463E+00</totfact>
</mgrwt>
</event>
<event>
12    6  0.1530720E-007  0.1686067E+04  0.7818608E-02  0.8769351E-01
         -1   -1    0    0    0  501 -0.00000000000E+00  0.00000000000E+00  0.83276755001E+03  0.83276755001E+03  0.00000000000E+00 0.  1.
          2   -1    0    0  501    0  0.00000000000E+00 -0.00000000000E+00 -0.85342604590E+03  0.85342604590E+03  0.00000000000E+00 0. -1.
         24    2    1    2    0    0  0.34175287600E+03  0.26142053527E+03  0.41457995142E+03  0.60282765596E+03  0.79930733491E+02 0.  0.
        254    2    1    2    0    0 -0.34175287600E+03 -0.26142053527E+03 -0.43523844731E+03  0.10833659399E+04  0.89393150146E+03 0.  0.
         23    2    4    4    0    0  0.16797974922E+03 -0.34500600784E+02 -0.47916555952E+03  0.51606358306E+03  0.85524854456E+02 0.  0.
         23    2    4    4    0    0 -0.50973262522E+03 -0.22691993449E+03  0.43927112214E+02  0.56730235688E+03  0.92641065724E+02 0.  0.
          4    1    3    3  502    0  0.37723922959E+02  0.58857426913E+02  0.91370514608E+02  0.11504721642E+03  0.00000000000E+00 0. -1.
         -3    1    3    3    0  502  0.30402895304E+03  0.20256310836E+03  0.32320943681E+03  0.48778043954E+03  0.00000000000E+00 0.  1.
         11    1    5    5    0    0  0.53391048982E+02 -0.15603606130E+02 -0.28033388497E+03  0.28579916672E+03  0.00000000000E+00 0. -1.
        -11    1    5    5    0    0  0.11458870023E+03 -0.18896994655E+02 -0.19883167456E+03  0.23026441635E+03  0.00000000000E+00 0.  1.
          3    1    6    6  503    0 -0.49748883392E+03 -0.20658679194E+03  0.54285202255E+02  0.54140569415E+03  0.00000000000E+00 0. -1.
         -3    1    6    6    0  503 -0.12243791302E+02 -0.20333142550E+02 -0.10358090042E+02  0.25896662733E+02  0.00000000000E+00 0.  1.
<mgrwt>
<rscale>  0 0.16860670E+04</rscale>
<asrwt>0</asrwt>
<pdfrwt beam="1">  1        2 0.13129631E+00 0.16860670E+04</pdfrwt>
<pdfrwt beam="2">  1       -1 0.12811809E+00 0.16860670E+04</pdfrwt>
<totfact> 0.18060432E+01</totfact>
</mgrwt>
</event>
<event>
12    6  0.1530720E-007  0.2292633E+04  0.7818608E-02  0.8480831E-01
         -1   -1    0    0    0  501 -0.00000000000E+00  0.00000000000E+00  0.22782561878E+04  0.22782561878E+04  0.00000000000E+00 0.  1.
          2   -1    0    0  501    0  0.00000000000E+00 -0.00000000000E+00 -0.57677510661E+03  0.57677510661E+03  0.00000000000E+00 0. -1.
         24    2    1    2    0    0  0.72898502971E+03 -0.62755994851E+03  0.77199253653E+03  0.12358833120E+04  0.78641094761E+02 0.  0.
        254    2    1    2    0    0 -0.72898502971E+03  0.62755994851E+03  0.92948854468E+03  0.16191479825E+04  0.91238181259E+03 0.  0.
         23    2    4    4    0    0 -0.53860443541E+03  0.84706729972E+03  0.79924012394E+03  0.12862131292E+04  0.89116159573E+02 0.  0.
         23    2    4    4    0    0 -0.19038059430E+03 -0.21950735121E+03  0.13024842074E+03  0.33293485328E+03  0.97225086796E+02 0.  0.
          2    1    3    3  502    0  0.44377792267E+03 -0.36352795249E+03  0.50581460905E+03  0.76481359534E+03  0.00000000000E+00 0. -1.
         -1    1    3    3    0  502  0.28520710704E+03 -0.26403199602E+03  0.26617792748E+03  0.47106971661E+03  0.00000000000E+00 0.  1.
         11    1    5    5    0    0 -0.26701749506E+03  0.35744215424E+03  0.39148382902E+03  0.59356787706E+03  0.00000000000E+00 0.  1.
        -11    1    5    5    0    0 -0.27158694035E+03  0.48962514548E+03  0.40775629492E+03  0.69264525213E+03  0.00000000000E+00 0. -1.
          4    1    6    6  503    0 -0.13194099751E+03 -0.16825985891E+03  0.46778428174E+02  0.21887902660E+03  0.00000000000E+00 0.  1.
         -4    1    6    6    0  503 -0.58439596790E+02 -0.51247492299E+02  0.83469992566E+02  0.11405582668E+03  0.00000000000E+00 0. -1.
<mgrwt>
<rscale>  0 0.22926329E+04</rscale>
<asrwt>0</asrwt>
<pdfrwt beam="1">  1        2 0.88734633E-01 0.22926329E+04</pdfrwt>
<pdfrwt beam="2">  1       -1 0.35050095E+00 0.22926329E+04</pdfrwt>
<totfact> 0.83107483E-01</totfact>
</mgrwt>
</event>
<event>
12    6  0.1530720E-007  0.1070968E+04  0.7818608E-02  0.9233960E-01
          2   -1    0    0  501    0  0.00000000000E+00  0.00000000000E+00  0.11906955293E+04  0.11906955293E+04  0.00000000000E+00 0. -1.
         -3   -1    0    0    0  501 -0.00000000000E+00 -0.00000000000E+00 -0.24081973426E+03  0.24081973426E+03  0.00000000000E+00 0.  1.
         24    2    1    2    0    0 -0.15797977798E+02 -0.14480858229E+03  0.21036386016E+03  0.26902664758E+03  0.83085990627E+02 0.  0.
        254    2    1    2    0    0  0.15797977798E+02  0.14480858229E+03  0.73951193491E+03  0.11624886160E+04  0.88503264283E+03 0.  0.
         23    2    4    4    0    0  0.15300494371E+02  0.26663110091E+03 -0.10748113465E+03  0.30184362886E+03  0.90725591094E+02 0.  0.
         23    2    4    4    0    0  0.49748342710E+00 -0.12182251862E+03  0.84699306956E+03  0.86064498714E+03  0.92041080431E+02 0.  0.
          4    1    3    3  502    0  0.11012410087E+02 -0.54605489534E+02  0.14251331133E+03  0.15301332154E+03  0.00000000000E+00 0. -1.
         -3    1    3    3    0  502 -0.26810387885E+02 -0.90203092754E+02  0.67850548827E+02  0.11601332603E+03  0.00000000000E+00 0.  1.
         11    1    5    5    0    0  0.20254327325E+02  0.23600583106E+03 -0.58708429018E+02  0.24404030345E+03  0.00000000000E+00 0.  1.
        -11    1    5    5    0    0 -0.49538329534E+01  0.30625269848E+02 -0.48772705630E+02  0.57803325411E+02  0.00000000000E+00 0. -1.
          3    1    6    6  503    0  0.14847918314E+02 -0.36005997153E+02  0.82664621991E+02  0.91380152321E+02  0.00000000000E+00 0. -1.
         -3    1    6    6    0  503 -0.14350434887E+02 -0.85816521471E+02  0.76432844757E+03  0.76926483482E+03  0.00000000000E+00 0.  1.
<mgrwt>
<rscale>  0 0.10709678E+04</rscale>
<asrwt>0</asrwt>
<pdfrwt beam="1">  1        2 0.18318392E+00 0.10709678E+04</pdfrwt>
<pdfrwt beam="2">  1       -3 0.37049191E-01 0.10709678E+04</pdfrwt>
<totfact> 0.88273767E+01</totfact>
</mgrwt>
</event>
<event>
12    6  0.1530720E-007  0.1048037E+04  0.7818608E-02  0.9257373E-01
          2   -1    0    0  501    0  0.00000000000E+00  0.00000000000E+00  0.17273847254E+04  0.17273847254E+04  0.00000000000E+00 0. -1.
         -1   -1    0    0    0  501 -0.00000000000E+00 -0.00000000000E+00 -0.15896584427E+03  0.15896584427E+03  0.00000000000E+00 0.  1.
         24    2    1    2    0    0 -0.73373202768E+02 -0.80939651095E+01  0.43577826512E+03  0.44804275697E+03  0.73419864896E+02 0.  0.
        254    2    1    2    0    0  0.73373202768E+02  0.80939651095E+01  0.11326406160E+04  0.14383078127E+04  0.88340560326E+03 0.  0.
         23    2    4    4    0    0  0.30164623136E+03 -0.32147764880E+03  0.76691506537E+03  0.88924648023E+03  0.90896961134E+02 0.  0.
         23    2    4    4    0    0 -0.22827302859E+03  0.32957161391E+03  0.36572555060E+03  0.54906133243E+03  0.83589138857E+02 0.  0.
          2    1    3    3  502    0 -0.62710131387E+02  0.84775820374E+01  0.41344056516E+03  0.41825534175E+03  0.00000000000E+00 0. -1.
         -1    1    3    3    0  502 -0.10663071381E+02 -0.16571547147E+02  0.22337699960E+02  0.29787415222E+02  0.00000000000E+00 0.  1.
         11    1    5    5    0    0  0.60382090384E+02 -0.69884625138E+02  0.96193655278E+02  0.13335320388E+03  0.00000000000E+00 0.  1.
        -11    1    5    5    0    0  0.24126414097E+03 -0.25159302366E+03  0.67072141010E+03  0.75589327635E+03  0.00000000000E+00 0. -1.
          4    1    6    6  503    0 -0.11682825507E+03  0.16438526845E+03  0.12797672487E+03  0.23885016176E+03  0.00000000000E+00 0. -1.
         -4    1    6    6    0  503 -0.11144477352E+03  0.16518634546E+03  0.23774882573E+03  0.31021117067E+03  0.00000000000E+00 0.  1.
<mgrwt>
<rscale>  0 0.10480366E+04</rscale>
<asrwt>0</asrwt>
<pdfrwt beam="1">  1        2 0.26575148E+00 0.10480366E+04</pdfrwt>
<pdfrwt beam="2">  1       -1 0.24456285E-01 0.10480366E+04</pdfrwt>
<totfact> 0.15630760E+02</totfact>
</mgrwt>
</event>
<event>
12    6  0.1530720E-007  0.2288363E+04  0.7818608E-02  0.8482524E-01
          2   -1    0    0  501    0  0.00000000000E+00  0.00000000000E+00  0.31754439882E+04  0.31754439882E+04  0.00000000000E+00 0. -1.
         -1   -1    0    0    0  501 -0.00000000000E+00 -0.00000000000E+00 -0.41227332935E+03  0.41227332935E+03  0.00000000000E+00 0.  1.
         24    2    1    2    0    0 -0.82907300171E+03  0.47104165107E+03  0.94176810508E+03  0.13425575434E+04  0.79317805672E+02 0.  0.
        254    2    1    2    0    0  0.82907300171E+03 -0.47104165107E+03  0.18214025537E+04  0.22451597741E+04  0.90221553382E+03 0.  0.
         23    2    4    4    0    0 -0.10208678636E+03 -0.33319647275E+03  0.61220942682E+03  0.71027296074E+03  0.90805809680E+02 0.  0.
         23    2    4    4    0    0  0.93115978807E+03 -0.13784517832E+03  0.12091931269E+04  0.15348868134E+04  0.87576638850E+02 0.  0.
          4    1    3    3  502    0 -0.64697232821E+03  0.34349574373E+03  0.75817927992E+03  0.10542287892E+04  0.00000000000E+00 0. -1.
         -3    1    3    3    0  502 -0.18210067349E+03  0.12754590735E+03  0.18358882516E+03  0.28832875419E+03  0.00000000000E+00 0.  1.
         11    1    5    5    0    0  0.64955610347E+01 -0.10333904962E+03  0.21577832374E+03  0.23933540584E+03  0.00000000000E+00 0. -1.
        -11    1    5    5    0    0 -0.10858234739E+03 -0.22985742313E+03  0.39643110307E+03  0.47093755490E+03  0.00000000000E+00 0.  1.
          4    1    6    6  503    0  0.31502547325E+03 -0.70220386053E+02  0.47101263934E+03  0.57098586483E+03  0.00000000000E+00 0. -1.
         -4    1    6    6    0  503  0.61613431481E+03 -0.67624792268E+02  0.73818048756E+03  0.96390094856E+03  0.00000000000E+00 0.  1.
<mgrwt>
<rscale>  0 0.22883626E+04</rscale>
<asrwt>0</asrwt>
<pdfrwt beam="1">  1        2 0.48852983E+00 0.22883626E+04</pdfrwt>
<pdfrwt beam="2">  1       -1 0.63426668E-01 0.22883626E+04</pdfrwt>
<totfact> 0.35067738E+00</totfact>
</mgrwt>
</event>
<event>
12    6  0.1530720E-007  0.2224840E+04  0.7818608E-02  0.8508160E-01
         -1   -1    0    0    0  501 -0.00000000000E+00  0.00000000000E+00  0.49387689456E+03  0.49387689456E+03  0.00000000000E+00 0.  1.
          2   -1    0    0  501    0  0.00000000000E+00 -0.00000000000E+00 -0.25056421034E+04  0.25056421034E+04  0.00000000000E+00 0. -1.
         24    2    1    2    0    0 -0.87912898466E+03  0.42522550873E+02 -0.12390254337E+04  0.15218123739E+04  0.77800623787E+02 0.  0.
        254    2    1    2    0    0  0.87912898466E+03 -0.42522550873E+02 -0.77273977515E+03  0.14777066241E+04  0.90100730722E+03 0.  0.
         23    2    4    4    0    0  0.73309062781E+03  0.28090890615E+03 -0.78024795300E+03  0.11107136658E+04  0.92554292264E+02 0.  0.
         23    2    4    4    0    0  0.14603835686E+03 -0.32343145702E+03  0.75081778502E+01  0.36699295829E+03  0.93232771270E+02 0.  0.
          2    1    3    3  502    0 -0.38118181951E+03  0.32290869099E+02 -0.47680206941E+03  0.61129574933E+03  0.00000000000E+00 0. -1.
         -1    1    3    3    0  502 -0.49794716515E+03  0.10231681774E+02 -0.76222336427E+03  0.91051662458E+03  0.00000000000E+00 0.  1.
         11    1    5    5    0    0  0.40499670743E+02  0.40691553173E+02 -0.59086228102E+02  0.82384514208E+02  0.00000000000E+00 0.  1.
        -11    1    5    5    0    0  0.69259095706E+03  0.24021735297E+03 -0.72116172490E+03  0.10283291516E+04  0.00000000000E+00 0. -1.
          2    1    6    6  503    0  0.15442944316E+03 -0.28632234725E+03  0.22520701157E+02  0.32609219775E+03  0.00000000000E+00 0. -1.
         -2    1    6    6    0  503 -0.83910863057E+01 -0.37109109771E+02 -0.15012523306E+02  0.40900760548E+02  0.00000000000E+00 0.  1.
<mgrwt>
<rscale>  0 0.22248404E+04</rscale>
<asrwt>0</asrwt>
<pdfrwt beam="1">  1        2 0.38548340E+00 0.22248404E+04</pdfrwt>
<pdfrwt beam="2">  1       -1 0.75981061E-01 0.22248404E+04</pdfrwt>
<totfact> 0.62396693E+00</totfact>
</mgrwt>
</event>
<event>
12    6  0.1530720E-007  0.1172904E+04  0.7818608E-02  0.9136910E-01
          2   -1    0    0  501    0  0.00000000000E+00  0.00000000000E+00  0.92455845082E+03  0.92455845082E+03  0.00000000000E+00 0. -1.
         -1   -1    0    0    0  501 -0.00000000000E+00 -0.00000000000E+00 -0.37198911435E+03  0.37198911435E+03  0.00000000000E+00 0.  1.
         24    2    1    2    0    0 -0.22274504594E+03  0.62103755093E+02  0.10543153535E+03  0.26587846682E+03  0.78123738938E+02 0.  0.
        254    2    1    2    0    0  0.22274504594E+03 -0.62103755093E+02  0.44713780112E+03  0.10306690983E+04  0.89937441881E+03 0.  0.
         23    2    4    4    0    0 -0.21726741409E+03 -0.31283356573E+03  0.82381889792E+02  0.40014238625E+03  0.90869051048E+02 0.  0.
         23    2    4    4    0    0  0.44001246003E+03  0.25072981063E+03  0.36475591133E+03  0.63052671209E+03  0.89669710006E+02 0.  0.
          2    1    3    3  502    0 -0.10962803069E+03  0.21711432489E+01  0.79053805645E+02  0.13517589712E+03  0.00000000000E+00 0. -1.
         -1    1    3    3    0  502 -0.11311701525E+03  0.59932611844E+02  0.26377729706E+02  0.13070256970E+03  0.00000000000E+00 0.  1.
         11    1    5    5    0    0 -0.47194877043E+02 -0.18595378042E+02  0.12654051218E+01  0.50741952601E+02  0.00000000000E+00 0. -1.
        -11    1    5    5    0    0 -0.17007253705E+03 -0.29423818768E+03  0.81116484670E+02  0.34940043365E+03  0.00000000000E+00 0.  1.
          2    1    6    6  503    0  0.17675822550E+03  0.74707903519E+02  0.18416521809E+03  0.26597287208E+03  0.00000000000E+00 0. -1.
         -2    1    6    6    0  503  0.26325423453E+03  0.17602190711E+03  0.18059069324E+03  0.36455384001E+03  0.00000000000E+00 0.  1.
<mgrwt>
<rscale>  0 0.11729035E+04</rscale>
<asrwt>0</asrwt>
<pdfrwt beam="1">  1        2 0.14223976E+00 0.11729035E+04</pdfrwt>
<pdfrwt beam="2">  1       -1 0.57229095E-01 0.11729035E+04</pdfrwt>
<totfact> 0.98419515E+01</totfact>
</mgrwt>
</event>
<event>
12    6  0.1530720E-007  0.4396352E+04  0.7818608E-02  0.7929038E-01
          2   -1    0    0  501    0  0.00000000000E+00  0.00000000000E+00  0.20513036553E+04  0.20513036553E+04  0.00000000000E+00 0. -1.
         -1   -1    0    0    0  501 -0.00000000000E+00 -0.00000000000E+00 -0.23555639147E+04  0.23555639147E+04  0.00000000000E+00 0.  1.
         24    2    1    2    0    0  0.46736706668E+03 -0.13135260340E+04 -0.17408179309E+04  0.22317328683E+04  0.80011935646E+02 0.  0.
        254    2    1    2    0    0 -0.46736706668E+03  0.13135260340E+04  0.14365576715E+04  0.21751347017E+04  0.85072346276E+03 0.  0.
         23    2    4    4    0    0 -0.15231832994E+03  0.41453963551E+03  0.10494208384E+04  0.11420377935E+04  0.89006981643E+02 0.  0.
         23    2    4    4    0    0 -0.31504873674E+03  0.89898639848E+03  0.38713683313E+03  0.10330969082E+04  0.99910174564E+02 0.  0.
          4    1    3    3  502    0  0.38254116514E+01 -0.22806782706E+02 -0.46475333854E+02  0.51910882949E+02  0.00000000000E+00 0. -1.
         -3    1    3    3    0  502  0.46354165503E+03 -0.12907192513E+04 -0.16943425971E+04  0.21798219854E+04  0.00000000000E+00 0.  1.
         11    1    5    5    0    0 -0.52228154902E+02  0.19556631210E+03  0.37854203539E+03  0.42926452818E+03  0.00000000000E+00 0. -1.
        -11    1    5    5    0    0 -0.10009017504E+03  0.21897332342E+03  0.67087880298E+03  0.71277326535E+03  0.00000000000E+00 0.  1.
          1    1    6    6  503    0 -0.48671948761E+02  0.60641599763E+02  0.39869329880E+02  0.87383783868E+02  0.00000000000E+00 0. -1.
         -1    1    6    6    0  503 -0.26637678798E+03  0.83834479872E+03  0.34726750325E+03  0.94571312433E+03  0.00000000000E+00 0.  1.
<mgrwt>
<rscale>  0 0.43963516E+04</rscale>
<asrwt>0</asrwt>
<pdfrwt beam="1">  1        2 0.31558518E+00 0.43963516E+04</pdfrwt>
<pdfrwt beam="2">  1       -1 0.36239445E+00 0.43963516E+04</pdfrwt>
<totfact> 0.69877767E-02</totfact>
</mgrwt>
</event>
<event>
12    6  0.1574054E-007  0.1853986E+04  0.7818608E-02  0.8678106E-01
         -1   -1    0    0    0  501 -0.00000000000E+00  0.00000000000E+00  0.60967135736E+03  0.60967135736E+03  0.00000000000E+00 0.  1.
          2   -1    0    0  501    0  0.00000000000E+00 -0.00000000000E+00 -0.14094740849E+04  0.14094740849E+04  0.00000000000E+00 0. -1.
         24    2    1    2    0    0 -0.16277920519E+03 -0.16206039662E+03  0.41722816896E+03  0.48304203571E+03  0.80558186997E+02 0.  0.
        254    2    1    2    0    0  0.16277920519E+03  0.16206039662E+03 -0.12170308965E+04  0.15361034066E+04  0.90867421598E+03 0.  0.
         23    2    4    4    0    0 -0.22057501839E+03 -0.20776964707E+03 -0.17530091030E+03  0.36205118395E+03  0.92353049040E+02 0.  0.
         23    2    4    4    0    0  0.38335422358E+03  0.36983004369E+03 -0.10417299862E+04  0.11740522226E+04  0.97275563694E+02 0.  0.
          2    1    3    3  502    0 -0.44283962288E+02 -0.74829136593E+01  0.48949410176E+02  0.66431228118E+02  0.00000000000E+00 0. -1.
         -1    1    3    3    0  502 -0.11849524290E+03 -0.15457748296E+03  0.36827875878E+03  0.41661080759E+03  0.00000000000E+00 0.  1.
         11    1    5    5    0    0 -0.24967989882E+02  0.21634448246E+01 -0.33914950670E+02  0.42169952469E+02  0.00000000000E+00 0. -1.
        -11    1    5    5    0    0 -0.19560702850E+03 -0.20993309189E+03 -0.14138595963E+03  0.31988123148E+03  0.00000000000E+00 0.  1.
          2    1    6    6  503    0  0.10295059839E+03  0.54274689299E+02 -0.17779122294E+03  0.21249538010E+03  0.00000000000E+00 0. -1.
         -2    1    6    6    0  503  0.28040362519E+03  0.31555535439E+03 -0.86393876328E+03  0.96155684252E+03  0.00000000000E+00 0.  1.
<mgrwt>
<rscale>  0 0.18539860E+04</rscale>
<asrwt>0</asrwt>
<pdfrwt beam="1">  1        2 0.21684217E+00 0.18539860E+04</pdfrwt>
<pdfrwt beam="2">  1       -1 0.93795594E-01 0.18539860E+04</pdfrwt>
<totfact> 0.16869969E+01</totfact>
</mgrwt>
</event>
<event>
12    6  0.1530720E-007  0.3504913E+04  0.7818608E-02  0.8112627E-01
          2   -1    0    0  501    0  0.00000000000E+00  0.00000000000E+00  0.30659888819E+04  0.30659888819E+04  0.00000000000E+00 0. -1.
         -1   -1    0    0    0  501 -0.00000000000E+00 -0.00000000000E+00 -0.10016683767E+04  0.10016683767E+04  0.00000000000E+00 0.  1.
         24    2    1    2    0    0 -0.98444003874E+03  0.12018967134E+04  0.38233347277E+03  0.16034823631E+04  0.10629630714E+03 0.  0.
        254    2    1    2    0    0  0.98444003874E+03 -0.12018967134E+04  0.16819870325E+04  0.24641748955E+04  0.91071380724E+03 0.  0.
         23    2    4    4    0    0  0.71381503379E+03 -0.13077641603E+04  0.13357091550E+04  0.20030190454E+04  0.90483966848E+02 0.  0.
         23    2    4    4    0    0  0.27062500495E+03  0.10586744690E+03  0.34627787749E+03  0.46115585008E+03  0.91162163219E+02 0.  0.
          2    1    3    3  502    0 -0.62833032910E+03  0.77714447095E+03  0.29771550743E+03  0.10427785261E+04  0.00000000000E+00 0. -1.
         -1    1    3    3    0  502 -0.35610970963E+03  0.42475224242E+03  0.84617965333E+02  0.56070383697E+03  0.00000000000E+00 0.  1.
         11    1    5    5    0    0  0.66224012828E+03 -0.12335770069E+04  0.12790076512E+04  0.18963477506E+04  0.00000000000E+00 0.  1.
        -11    1    5    5    0    0  0.51574905506E+02 -0.74187153416E+02  0.56701503818E+02  0.10667129485E+03  0.00000000000E+00 0. -1.
          1    1    6    6  503    0  0.25179028948E+03  0.67693145636E+02  0.31127089177E+03  0.40604221444E+03  0.00000000000E+00 0. -1.
         -1    1    6    6    0  503  0.18834715464E+02  0.38174301264E+02  0.35006985722E+02  0.55113635636E+02  0.00000000000E+00 0.  1.
<mgrwt>
<rscale>  0 0.35049132E+04</rscale>
<asrwt>0</asrwt>
<pdfrwt beam="1">  1        2 0.47169059E+00 0.35049132E+04</pdfrwt>
<pdfrwt beam="2">  1       -1 0.15410283E+00 0.35049132E+04</pdfrwt>
<totfact> 0.47801222E-01</totfact>
</mgrwt>
</event>
<event>
12    6  0.1530720E-007  0.1590498E+04  0.7818608E-02  0.8826407E-01
         -1   -1    0    0    0  501 -0.00000000000E+00  0.00000000000E+00  0.19030477891E+03  0.19030477891E+03  0.00000000000E+00 0.  1.
          2   -1    0    0  501    0  0.00000000000E+00 -0.00000000000E+00 -0.33232001887E+04  0.33232001887E+04  0.00000000000E+00 0. -1.
         24    2    1    2    0    0 -0.15235272608E+03 -0.35575654651E+03 -0.24464680307E+03  0.46463300136E+03  0.79105588762E+02 0.  0.
        254    2    1    2    0    0  0.15235272608E+03  0.35575654651E+03 -0.28882486067E+04  0.30488719663E+04  0.89658584579E+03 0.  0.
         23    2    4    4    0    0  0.28560257551E+02  0.28246345950E+03 -0.28618077335E+04  0.28773227958E+04  0.91878579358E+02 0.  0.
         23    2    4    4    0    0  0.12379246853E+03  0.73293087009E+02 -0.26440873193E+02  0.17154917045E+03  0.89630052090E+02 0.  0.
          4    1    3    3  502    0 -0.19285542530E+01 -0.81034133318E+02 -0.62087034173E+02  0.10210313363E+03  0.00000000000E+00 0. -1.
         -3    1    3    3    0  502 -0.15042417183E+03 -0.27472241319E+03 -0.18255976890E+03  0.36252986773E+03  0.00000000000E+00 0.  1.
         11    1    5    5    0    0  0.55503003252E+02  0.10592322192E+03 -0.10925517044E+04  0.10990766757E+04  0.00000000000E+00 0. -1.
        -11    1    5    5    0    0 -0.26942745701E+02  0.17654023758E+03 -0.17692560291E+04  0.17782461201E+04  0.00000000000E+00 0.  1.
          1    1    6    6  503    0  0.37102700780E+02  0.31213111518E+02  0.32702754546E+02  0.58483663452E+02  0.00000000000E+00 0. -1.
         -1    1    6    6    0  503  0.86689767747E+02  0.42079975491E+02 -0.59143627739E+02  0.11306550699E+03  0.00000000000E+00 0.  1.
<mgrwt>
<rscale>  0 0.15904979E+04</rscale>
<asrwt>0</asrwt>
<pdfrwt beam="1">  1        2 0.51126154E+00 0.15904979E+04</pdfrwt>
<pdfrwt beam="2">  1       -1 0.29277660E-01 0.15904979E+04</pdfrwt>
<totfact> 0.12628389E+01</totfact>
</mgrwt>
</event>
<event>
12    6  0.1530720E-007  0.2271138E+04  0.7818608E-02  0.8489389E-01
          2   -1    0    0  501    0  0.00000000000E+00  0.00000000000E+00  0.38347396586E+04  0.38347396586E+04  0.00000000000E+00 0. -1.
         -3   -1    0    0    0  501 -0.00000000000E+00 -0.00000000000E+00 -0.33627229348E+03  0.33627229348E+03  0.00000000000E+00 0.  1.
         24    2    1    2    0    0  0.78790996722E+03 -0.10404591987E+03  0.51907643932E+03  0.95240880421E+03  0.77553275793E+02 0.  0.
        254    2    1    2    0    0 -0.78790996722E+03  0.10404591987E+03  0.29793909258E+04  0.32186031479E+04  0.92250109206E+03 0.  0.
         23    2    4    4    0    0  0.12789783621E+03  0.23244116359E+03  0.54802612154E+03  0.61574194378E+03  0.91753803197E+02 0.  0.
         23    2    4    4    0    0 -0.91580780343E+03 -0.12839524372E+03  0.24313648043E+04  0.26028612041E+04  0.90345807525E+02 0.  0.
          2    1    3    3  502    0  0.17252449923E+03 -0.52442690658E+02  0.13375447707E+03  0.22451102150E+03  0.00000000000E+00 0. -1.
         -1    1    3    3    0  502  0.61538546799E+03 -0.51603229214E+02  0.38532196225E+03  0.72789778271E+03  0.00000000000E+00 0.  1.
         11    1    5    5    0    0  0.20205975972E+02  0.26301693677E+02  0.15960413083E+03  0.16301392312E+03  0.00000000000E+00 0.  1.
        -11    1    5    5    0    0  0.10769186024E+03  0.20613946991E+03  0.38842199071E+03  0.45272802066E+03  0.00000000000E+00 0. -1.
          1    1    6    6  503    0 -0.75877664504E+03 -0.72545144605E+02  0.20184484354E+04  0.21575770858E+04  0.00000000000E+00 0. -1.
         -1    1    6    6    0  503 -0.15703115839E+03 -0.55850099110E+02  0.41291636891E+03  0.44528411828E+03  0.00000000000E+00 0.  1.
<mgrwt>
<rscale>  0 0.22711378E+04</rscale>
<asrwt>0</asrwt>
<pdfrwt beam="1">  1        2 0.58995992E+00 0.22711378E+04</pdfrwt>
<pdfrwt beam="2">  1       -3 0.51734202E-01 0.22711378E+04</pdfrwt>
<totfact> 0.10092836E+00</totfact>
</mgrwt>
</event>
<event>
12    6  0.1530720E-007  0.1805098E+04  0.7818608E-02  0.8703593E-01
         -1   -1    0    0    0  501 -0.00000000000E+00  0.00000000000E+00  0.64294645082E+03  0.64294645082E+03  0.00000000000E+00 0.  1.
          2   -1    0    0  501    0  0.00000000000E+00 -0.00000000000E+00 -0.12669706742E+04  0.12669706742E+04  0.00000000000E+00 0. -1.
         24    2    1    2    0    0 -0.54391560796E+03  0.36735353187E+02 -0.65113859706E+03  0.85303440287E+03  0.80576331189E+02 0.  0.
        254    2    1    2    0    0  0.54391560796E+03 -0.36735353187E+02  0.27114373682E+02  0.10568827221E+04  0.90502609042E+03 0.  0.
         23    2    4    4    0    0  0.63343069113E+03  0.82064608919E+01 -0.29709807196E+03  0.70552229103E+03  0.90513271444E+02 0.  0.
         23    2    4    4    0    0 -0.89515083175E+02 -0.44941814079E+02  0.32421244564E+03  0.35136043111E+03  0.91146727155E+02 0.  0.
          2    1    3    3  502    0 -0.22949704682E+03 -0.16265474865E+02 -0.31047227800E+03  0.38642786594E+03  0.00000000000E+00 0. -1.
         -1    1    3    3    0  502 -0.31441856114E+03  0.53000828051E+02 -0.34066631906E+03  0.46660653693E+03  0.00000000000E+00 0.  1.
         11    1    5    5    0    0  0.59585315867E+03  0.29717927705E+02 -0.27853924410E+03  0.65841343579E+03  0.00000000000E+00 0.  1.
        -11    1    5    5    0    0  0.37577532461E+02 -0.21511466814E+02 -0.18558827860E+02  0.47108855238E+02  0.00000000000E+00 0. -1.
          4    1    6    6  503    0 -0.94480150874E+02 -0.40314183021E+02  0.32791589027E+03  0.34362852523E+03  0.00000000000E+00 0.  1.
         -4    1    6    6    0  503  0.49650676993E+01 -0.46276310581E+01 -0.37034446234E+01  0.77319058806E+01  0.00000000000E+00 0. -1.
<mgrwt>
<rscale>  0 0.18050976E+04</rscale>
<asrwt>0</asrwt>
<pdfrwt beam="1">  1        2 0.19491857E+00 0.18050976E+04</pdfrwt>
<pdfrwt beam="2">  1       -1 0.98914839E-01 0.18050976E+04</pdfrwt>
<totfact> 0.18173403E+01</totfact>
</mgrwt>
</event>
<event>
12    6  0.1530720E-007  0.1973694E+04  0.7818608E-02  0.8619019E-01
          2   -1    0    0  501    0  0.00000000000E+00  0.00000000000E+00  0.74354354386E+03  0.74354354386E+03  0.00000000000E+00 0. -1.
         -1   -1    0    0    0  501 -0.00000000000E+00 -0.00000000000E+00 -0.13097649399E+04  0.13097649399E+04  0.00000000000E+00 0.  1.
         24    2    1    2    0    0  0.33848913164E+03 -0.69859542753E+03 -0.28984085211E+03  0.83254512578E+03  0.80704419330E+02 0.  0.
        254    2    1    2    0    0 -0.33848913164E+03  0.69859542753E+03 -0.27638054388E+03  0.12207633579E+04  0.90070334042E+03 0.  0.
         23    2    4    4    0    0 -0.49365258632E+03  0.78459324797E+03 -0.70519756278E+02  0.93411569035E+03  0.91212094498E+02 0.  0.
         23    2    4    4    0    0  0.15516345468E+03 -0.85997820440E+02 -0.20586078760E+03  0.28664766759E+03  0.91197032166E+02 0.  0.
          2    1    3    3  502    0  0.34212357955E+03 -0.69682224543E+03 -0.28943054462E+03  0.82848043162E+03  0.00000000000E+00 0. -1.
         -1    1    3    3    0  502 -0.36344479114E+01 -0.17731820980E+01 -0.41030748807E+00  0.40646941592E+01  0.00000000000E+00 0.  1.
         11    1    5    5    0    0 -0.22604232066E+02  0.96606347511E+01 -0.21073675764E+01  0.24672255049E+02  0.00000000000E+00 0. -1.
        -11    1    5    5    0    0 -0.47104835425E+03  0.77493261322E+03 -0.68412388702E+02  0.90944343530E+03  0.00000000000E+00 0.  1.
          3    1    6    6  503    0  0.12822783381E+02  0.20318336610E+01  0.78738729349E+01  0.15183872914E+02  0.00000000000E+00 0. -1.
         -3    1    6    6    0  503  0.14234067130E+03 -0.88029654101E+02 -0.21373466054E+03  0.27146379468E+03  0.00000000000E+00 0.  1.
<mgrwt>
<rscale>  0 0.19736943E+04</rscale>
<asrwt>0</asrwt>
<pdfrwt beam="1">  1        2 0.11439132E+00 0.19736943E+04</pdfrwt>
<pdfrwt beam="2">  1       -1 0.20150230E+00 0.19736943E+04</pdfrwt>
<totfact> 0.59220212E+00</totfact>
</mgrwt>
</event>
<event>
12    6  0.1530720E-007  0.1156931E+04  0.7818608E-02  0.9151414E-01
          2   -1    0    0  501    0  0.00000000000E+00  0.00000000000E+00  0.12616686077E+04  0.12616686077E+04  0.00000000000E+00 0. -1.
         -1   -1    0    0    0  501 -0.00000000000E+00 -0.00000000000E+00 -0.26522183471E+03  0.26522183471E+03  0.00000000000E+00 0.  1.
         24    2    1    2    0    0 -0.38868091096E+02 -0.17066011360E+03  0.28046303586E+02  0.19466787973E+03  0.80457351283E+02 0.  0.
        254    2    1    2    0    0  0.38868091096E+02  0.17066011360E+03  0.96840046937E+03  0.13322225626E+04  0.89798768614E+03 0.  0.
         23    2    4    4    0    0 -0.40801544013E+03  0.16461592475E+03  0.38533313487E+03  0.59197684235E+03  0.91542094066E+02 0.  0.
         23    2    4    4    0    0  0.44688353123E+03  0.60441888468E+01  0.58306733450E+03  0.74024572029E+03  0.90855859142E+02 0.  0.
          4    1    3    3  502    0 -0.53339336624E+01  0.31444115009E+01 -0.11711756953E+02  0.13247770489E+02  0.00000000000E+00 0. -1.
         -3    1    3    3    0  502 -0.33534157434E+02 -0.17380452510E+03  0.39758060539E+02  0.18142010925E+03  0.00000000000E+00 0.  1.
         11    1    5    5    0    0 -0.67877193888E+02 -0.97539499811E+00  0.86046212479E+02  0.10960025332E+03  0.00000000000E+00 0.  1.
        -11    1    5    5    0    0 -0.34013824625E+03  0.16559131975E+03  0.29928692239E+03  0.48237658904E+03  0.00000000000E+00 0. -1.
          3    1    6    6  503    0  0.32755848701E+03 -0.36043270320E+02  0.42078992911E+03  0.53446968500E+03  0.00000000000E+00 0. -1.
         -3    1    6    6    0  503  0.11932504422E+03  0.42087459166E+02  0.16227740539E+03  0.20577603528E+03  0.00000000000E+00 0.  1.
<mgrwt>
<rscale>  0 0.11569305E+04</rscale>
<asrwt>0</asrwt>
<pdfrwt beam="1">  1        2 0.19410286E+00 0.11569305E+04</pdfrwt>
<pdfrwt beam="2">  1       -1 0.40803360E-01 0.11569305E+04</pdfrwt>
<totfact> 0.11522485E+02</totfact>
</mgrwt>
</event>
<event>
12    6  0.1530720E-007  0.1425581E+04  0.7818608E-02  0.8935507E-01
         -1   -1    0    0    0  501 -0.00000000000E+00  0.00000000000E+00  0.66792602590E+03  0.66792602590E+03  0.00000000000E+00 0.  1.
          2   -1    0    0  501    0  0.00000000000E+00 -0.00000000000E+00 -0.76066844741E+03  0.76066844741E+03  0.00000000000E+00 0. -1.
         24    2    1    2    0    0 -0.41058336198E+03 -0.18623955099E+02  0.55034608291E+02  0.42256001180E+03  0.81256425116E+02 0.  0.
        254    2    1    2    0    0  0.41058336198E+03  0.18623955099E+02 -0.14777702979E+03  0.10060344615E+04  0.90627906208E+03 0.  0.
         23    2    4    4    0    0  0.32910050052E+02  0.16925958875E+03  0.32253085276E+03  0.37696134838E+03  0.91333605070E+02 0.  0.
         23    2    4    4    0    0  0.37767331193E+03 -0.15063563365E+03 -0.47030788255E+03  0.62907311313E+03  0.95996107222E+02 0.  0.
          4    1    3    3  502    0 -0.21546025978E+03  0.12214103484E+02 -0.57251212639E+01  0.21588210876E+03  0.00000000000E+00 0. -1.
         -1    1    3    3    0  502 -0.19512310220E+03 -0.30838058584E+02  0.60759729555E+02  0.20667790304E+03  0.00000000000E+00 0.  1.
         11    1    5    5    0    0  0.45009496262E+02  0.17049881731E+03  0.31865981520E+03  0.36419744546E+03  0.00000000000E+00 0.  1.
        -11    1    5    5    0    0 -0.12099446210E+02 -0.12392285560E+01  0.38710375565E+01  0.12763902921E+02  0.00000000000E+00 0. -1.
          1    1    6    6  503    0  0.28786994515E+02 -0.33521735831E+02 -0.87687549158E+02  0.98191161026E+02  0.00000000000E+00 0. -1.
         -1    1    6    6    0  503  0.34888631742E+03 -0.11711389782E+03 -0.38262033339E+03  0.53088195210E+03  0.00000000000E+00 0.  1.
<mgrwt>
<rscale>  0 0.14255809E+04</rscale>
<asrwt>0</asrwt>
<pdfrwt beam="1">  1        2 0.11702591E+00 0.14255809E+04</pdfrwt>
<pdfrwt beam="2">  1       -1 0.10275785E+00 0.14255809E+04</pdfrwt>
<totfact> 0.36576148E+01</totfact>
</mgrwt>
</event>
<event>
12    6  0.1530720E-007  0.1525128E+04  0.7818608E-02  0.8867913E-01
          2   -1    0    0  501    0  0.00000000000E+00  0.00000000000E+00  0.89695742354E+03  0.89695742354E+03  0.00000000000E+00 0. -1.
         -1   -1    0    0    0  501 -0.00000000000E+00 -0.00000000000E+00 -0.64830738991E+03  0.64830738991E+03  0.00000000000E+00 0.  1.
         24    2    1    2    0    0 -0.41275555374E+03  0.12535446754E+03  0.31203443654E+03  0.53829095446E+03  0.79440369971E+02 0.  0.
        254    2    1    2    0    0  0.41275555374E+03 -0.12535446754E+03 -0.63384402913E+02  0.10069738590E+04  0.90768820664E+03 0.  0.
         23    2    4    4    0    0  0.12936346124E+03 -0.41231785505E+03  0.23136410814E+03  0.49857101439E+03  0.91119630992E+02 0.  0.
         23    2    4    4    0    0  0.28339209250E+03  0.28696338752E+03 -0.29474851105E+03  0.50840284460E+03  0.94539429671E+02 0.  0.
          4    1    3    3  502    0 -0.38730773645E+03  0.12373392855E+03  0.31246460089E+03  0.51278796261E+03  0.00000000000E+00 0. -1.
         -3    1    3    3    0  502 -0.25447817296E+02  0.16205389883E+01 -0.43016434735E+00  0.25502991847E+02  0.00000000000E+00 0.  1.
         11    1    5    5    0    0  0.59330360006E+02 -0.10051593906E+03  0.28836787754E+02  0.12022938889E+03  0.00000000000E+00 0.  1.
        -11    1    5    5    0    0  0.70033101235E+02 -0.31180191599E+03  0.20252732039E+03  0.37834162550E+03  0.00000000000E+00 0. -1.
          3    1    6    6  503    0  0.25892154968E+03  0.29078395913E+03 -0.27997865052E+03  0.47956618367E+03  0.00000000000E+00 0. -1.
         -3    1    6    6    0  503  0.24470542820E+02 -0.38205716104E+01 -0.14769860537E+02  0.28836660930E+02  0.00000000000E+00 0.  1.
<mgrwt>
<rscale>  0 0.15251284E+04</rscale>
<asrwt>0</asrwt>
<pdfrwt beam="1">  1        2 0.13799345E+00 0.15251284E+04</pdfrwt>
<pdfrwt beam="2">  1       -1 0.99739598E-01 0.15251284E+04</pdfrwt>
<totfact> 0.31100828E+01</totfact>
</mgrwt>
</event>
<event>
12    6  0.1530720E-007  0.1246099E+04  0.7818608E-02  0.9073436E-01
         -1   -1    0    0    0  501 -0.00000000000E+00  0.00000000000E+00  0.47829534570E+03  0.47829534570E+03  0.00000000000E+00 0.  1.
          2   -1    0    0  501    0  0.00000000000E+00 -0.00000000000E+00 -0.81161265659E+03  0.81161265659E+03  0.00000000000E+00 0. -1.
         24    2    1    2    0    0  0.10811649067E+03 -0.25580062736E+03 -0.24403722023E+01  0.28905751422E+03  0.80157062060E+02 0.  0.
        254    2    1    2    0    0 -0.10811649067E+03  0.25580062736E+03 -0.33087693868E+03  0.10008504881E+04  0.90282834160E+03 0.  0.
         23    2    4    4    0    0 -0.49789412445E+03  0.10902646174E+03 -0.19011622088E+03  0.55121595877E+03  0.88935522920E+02 0.  0.
         23    2    4    4    0    0  0.38977763378E+03  0.14677416562E+03 -0.14076071781E+03  0.44963452930E+03  0.94278156396E+02 0.  0.
          4    1    3    3  502    0 -0.47076060991E+01 -0.19120622119E+01  0.97146837410E+01  0.10963239360E+02  0.00000000000E+00 0. -1.
         -3    1    3    3    0  502  0.11282409677E+03 -0.25388856515E+03 -0.12155055943E+02  0.27809427486E+03  0.00000000000E+00 0.  1.
         11    1    5    5    0    0 -0.36980250159E+03  0.11851039114E+03 -0.13106457599E+03  0.40984939438E+03  0.00000000000E+00 0.  1.
        -11    1    5    5    0    0 -0.12809162286E+03 -0.94839294001E+01 -0.59051644888E+02  0.14136656439E+03  0.00000000000E+00 0. -1.
          2    1    6    6  503    0  0.83025580551E+02  0.59408681784E+02 -0.67469360621E+02  0.12237137378E+03  0.00000000000E+00 0. -1.
         -2    1    6    6    0  503  0.30675205323E+03  0.87365483836E+02 -0.73291357186E+02  0.32726315553E+03  0.00000000000E+00 0.  1.
<mgrwt>
<rscale>  0 0.12460988E+04</rscale>
<asrwt>0</asrwt>
<pdfrwt beam="1">  1        2 0.12486348E+00 0.12460988E+04</pdfrwt>
<pdfrwt beam="2">  1       -1 0.73583900E-01 0.12460988E+04</pdfrwt>
<totfact> 0.70627027E+01</totfact>
</mgrwt>
</event>
<event>
12    6  0.1530720E-007  0.2992337E+04  0.7818608E-02  0.8245922E-01
          2   -1    0    0  501    0  0.00000000000E+00  0.00000000000E+00  0.31524555075E+04  0.31524555075E+04  0.00000000000E+00 0. -1.
         -1   -1    0    0    0  501 -0.00000000000E+00 -0.00000000000E+00 -0.71008789633E+03  0.71008789633E+03  0.00000000000E+00 0.  1.
         24    2    1    2    0    0  0.24983826266E+02  0.13566868093E+04  0.10331602144E+04  0.17073666103E+04  0.80358093601E+02 0.  0.
        254    2    1    2    0    0 -0.24983826266E+02 -0.13566868093E+04  0.14092073968E+04  0.21551767935E+04  0.90426668305E+03 0.  0.
         23    2    4    4    0    0 -0.34161775980E+03 -0.18982871434E+03  0.23029580934E+03  0.46406724581E+03  0.97901043080E+02 0.  0.
         23    2    4    4    0    0  0.31663393353E+03 -0.11668580950E+04  0.11789115874E+04  0.16911095477E+04  0.90576540588E+02 0.  0.
          2    1    3    3  502    0  0.17570461054E+02  0.40282779409E+03  0.35198425144E+03  0.53523066621E+03  0.00000000000E+00 0. -1.
         -1    1    3    3    0  502  0.74133652122E+01  0.95385901524E+03  0.68117596298E+03  0.11721359441E+04  0.00000000000E+00 0.  1.
         11    1    5    5    0    0 -0.21363669618E+02 -0.47303918520E+02  0.22523980739E+02  0.56580887190E+02  0.00000000000E+00 0.  1.
        -11    1    5    5    0    0 -0.32025409018E+03 -0.14252479582E+03  0.20777182860E+03  0.40748635862E+03  0.00000000000E+00 0. -1.
          3    1    6    6  503    0  0.18305731239E+03 -0.80213982167E+03  0.76426621510E+03  0.11229608723E+04  0.00000000000E+00 0. -1.
         -3    1    6    6    0  503  0.13357662114E+03 -0.36471827332E+03  0.41464537233E+03  0.56814867544E+03  0.00000000000E+00 0.  1.
<mgrwt>
<rscale>  0 0.29923372E+04</rscale>
<asrwt>0</asrwt>
<pdfrwt beam="1">  1        2 0.48499315E+00 0.29923372E+04</pdfrwt>
<pdfrwt beam="2">  1       -1 0.10924429E+00 0.29923372E+04</pdfrwt>
<totfact> 0.10503843E+00</totfact>
</mgrwt>
</event>
<event>
12    6  0.1530720E-007  0.1804320E+04  0.7818608E-02  0.8704006E-01
          2   -1    0    0  501    0  0.00000000000E+00  0.00000000000E+00  0.12422191039E+04  0.12422191039E+04  0.00000000000E+00 0. -1.
         -1   -1    0    0    0  501 -0.00000000000E+00 -0.00000000000E+00 -0.65519221108E+03  0.65519221108E+03  0.00000000000E+00 0.  1.
         24    2    1    2    0    0  0.39798958530E+03  0.18770486299E+03 -0.31334815437E+03  0.54615786633E+03  0.80451995053E+02 0.  0.
        254    2    1    2    0    0 -0.39798958530E+03 -0.18770486299E+03  0.90037504714E+03  0.13512534486E+04  0.90641151318E+03 0.  0.
         23    2    4    4    0    0  0.26312526211E+03 -0.19006706879E+03  0.25571974810E+03  0.42341083210E+03  0.92324151635E+02 0.  0.
         23    2    4    4    0    0 -0.66111484741E+03  0.23622057928E+01  0.64465529904E+03  0.92784261650E+03  0.90736127952E+02 0.  0.
          4    1    3    3  502    0  0.14423658444E+03  0.77743814042E+02 -0.71512981863E+02  0.17878031068E+03  0.00000000000E+00 0. -1.
         -3    1    3    3    0  502  0.25375300086E+03  0.10996104895E+03 -0.24183517251E+03  0.36737755565E+03  0.00000000000E+00 0.  1.
         11    1    5    5    0    0  0.53387151215E+02 -0.69753044315E+02  0.11123312759E+03  0.14173384839E+03  0.00000000000E+00 0.  1.
        -11    1    5    5    0    0  0.20973811089E+03 -0.12031402447E+03  0.14448662051E+03  0.28167698371E+03  0.00000000000E+00 0. -1.
          4    1    6    6  503    0 -0.47552528668E+03  0.33932670546E+01  0.51784423252E+03  0.70306362563E+03  0.00000000000E+00 0. -1.
         -4    1    6    6    0  503 -0.18558956074E+03 -0.10310612618E+01  0.12681106652E+03  0.22477899087E+03  0.00000000000E+00 0.  1.
<mgrwt>
<rscale>  0 0.18043196E+04</rscale>
<asrwt>0</asrwt>
<pdfrwt beam="1">  1        2 0.19111063E+00 0.18043196E+04</pdfrwt>
<pdfrwt beam="2">  1       -1 0.10079880E+00 0.18043196E+04</pdfrwt>
<totfact> 0.18002436E+01</totfact>
</mgrwt>
</event>
<event>
12    6  0.1530720E-007  0.2172445E+04  0.7818608E-02  0.8529986E-01
         -1   -1    0    0    0  501 -0.00000000000E+00  0.00000000000E+00  0.56219098740E+03  0.56219098740E+03  0.00000000000E+00 0.  1.
          2   -1    0    0  501    0  0.00000000000E+00 -0.00000000000E+00 -0.20987154993E+04  0.20987154993E+04  0.00000000000E+00 0. -1.
         24    2    1    2    0    0 -0.69573503654E+02  0.69673899178E+03 -0.13287570243E+04  0.15041243864E+04  0.80679891897E+02 0.  0.
        254    2    1    2    0    0  0.69573503654E+02 -0.69673899178E+03 -0.20776748754E+03  0.11567821003E+04  0.89704615463E+03 0.  0.
         23    2    4    4    0    0  0.40508024130E+03 -0.57705443105E+03  0.41409455527E+02  0.71214829858E+03  0.91425586536E+02 0.  0.
         23    2    4    4    0    0 -0.33550673765E+03 -0.11968456073E+03 -0.24917694307E+03  0.44463380168E+03  0.93385778143E+02 0.  0.
          2    1    3    3  502    0 -0.56282570704E+02  0.66358585968E+03 -0.12239975009E+04  0.13934431467E+04  0.00000000000E+00 0. -1.
         -1    1    3    3    0  502 -0.13290932951E+02  0.33153132102E+02 -0.10475952339E+03  0.11068123964E+03  0.00000000000E+00 0.  1.
         11    1    5    5    0    0  0.27561951383E+03 -0.32700482237E+03  0.49044482843E+02  0.43046908316E+03  0.00000000000E+00 0.  1.
        -11    1    5    5    0    0  0.12946072748E+03 -0.25004960868E+03 -0.76350273160E+01  0.28167921543E+03  0.00000000000E+00 0. -1.
          1    1    6    6  503    0 -0.21857906313E+03 -0.31397442265E+02 -0.16500589169E+03  0.27566202225E+03  0.00000000000E+00 0. -1.
         -1    1    6    6    0  503 -0.11692767452E+03 -0.88287118462E+02 -0.84171051380E+02  0.16897177944E+03  0.00000000000E+00 0.  1.
<mgrwt>
<rscale>  0 0.21724446E+04</rscale>
<asrwt>0</asrwt>
<pdfrwt beam="1">  1        2 0.32287931E+00 0.21724446E+04</pdfrwt>
<pdfrwt beam="2">  1       -1 0.86490922E-01 0.21724446E+04</pdfrwt>
<totfact> 0.80892484E+00</totfact>
</mgrwt>
</event>
<event>
12    6  0.1530720E-007  0.1320145E+04  0.7818608E-02  0.9013741E-01
          2   -1    0    0  501    0  0.00000000000E+00  0.00000000000E+00  0.85818227635E+03  0.85818227635E+03  0.00000000000E+00 0. -1.
         -1   -1    0    0    0  501 -0.00000000000E+00 -0.00000000000E+00 -0.50769577627E+03  0.50769577627E+03  0.00000000000E+00 0.  1.
         24    2    1    2    0    0  0.25166661308E+03 -0.17563191105E+03  0.26995255784E+03  0.41656435787E+03  0.80429027378E+02 0.  0.
        254    2    1    2    0    0 -0.25166661308E+03  0.17563191105E+03  0.80533942237E+02  0.94931369475E+03  0.89472237195E+03 0.  0.
         23    2    4    4    0    0 -0.48162488541E+02  0.37594467368E+03 -0.28017326875E+03  0.48019388107E+03  0.91842691167E+02 0.  0.
         23    2    4    4    0    0 -0.20350412454E+03 -0.20031276263E+03  0.36070721098E+03  0.46911981368E+03  0.91785488817E+02 0.  0.
          4    1    3    3  502    0  0.25501483064E+03 -0.15951901506E+03  0.25627614372E+03  0.39516622054E+03  0.00000000000E+00 0. -1.
         -3    1    3    3    0  502 -0.33482175652E+01 -0.16112895992E+02  0.13676414124E+02  0.21398137336E+02  0.00000000000E+00 0.  1.
         11    1    5    5    0    0 -0.38537298255E+02  0.34162658533E+03 -0.28178014459E+03  0.44451535074E+03  0.00000000000E+00 0. -1.
        -11    1    5    5    0    0 -0.96251902862E+01  0.34318088356E+02  0.16068758394E+01  0.35678530328E+02  0.00000000000E+00 0.  1.
          4    1    6    6  503    0 -0.15248611217E+03 -0.95013307204E+02  0.18385698484E+03  0.25706601064E+03  0.00000000000E+00 0. -1.
         -4    1    6    6    0  503 -0.51018012368E+02 -0.10529945542E+03  0.17685022614E+03  0.21205380305E+03  0.00000000000E+00 0.  1.
<mgrwt>
<rscale>  0 0.13201447E+04</rscale>
<asrwt>0</asrwt>
<pdfrwt beam="1">  1        2 0.13202804E+00 0.13201447E+04</pdfrwt>
<pdfrwt beam="2">  1       -1 0.78107043E-01 0.13201447E+04</pdfrwt>
<totfact> 0.57463547E+01</totfact>
</mgrwt>
</event>
<event>
12    6  0.1530720E-007  0.2442959E+04  0.7818608E-02  0.8423593E-01
          2   -1    0    0  501    0  0.00000000000E+00  0.00000000000E+00  0.19838754203E+04  0.19838754203E+04  0.00000000000E+00 0. -1.
         -1   -1    0    0    0  501 -0.00000000000E+00 -0.00000000000E+00 -0.75206934775E+03  0.75206934775E+03  0.00000000000E+00 0.  1.
         24    2    1    2    0    0 -0.74900890598E+02 -0.10223718484E+04  0.77444110551E+03  0.12871197606E+04  0.77871127302E+02 0.  0.
        254    2    1    2    0    0  0.74900890598E+02  0.10223718484E+04  0.45736496702E+03  0.14488250074E+04  0.91600046366E+03 0.  0.
         23    2    4    4    0    0  0.44939477015E+03  0.53539599716E+03  0.43305274538E+03  0.82732648811E+03  0.91268310078E+02 0.  0.
         23    2    4    4    0    0 -0.37449387956E+03  0.48697585119E+03  0.24312221639E+02  0.62149851934E+03  0.90984503890E+02 0.  0.
          4    1    3    3  502    0  0.13258180288E+02 -0.69068923465E+02  0.44569936515E+02  0.83263285871E+02  0.00000000000E+00 0. -1.
         -3    1    3    3    0  502 -0.88159070886E+02 -0.95330292489E+03  0.72987116900E+03  0.12038564747E+04  0.00000000000E+00 0.  1.
         11    1    5    5    0    0  0.63900471728E+02  0.12101495998E+03  0.11054946146E+03  0.17592348978E+03  0.00000000000E+00 0. -1.
        -11    1    5    5    0    0  0.38549429843E+03  0.41438103718E+03  0.32250328392E+03  0.65140299833E+03  0.00000000000E+00 0.  1.
          4    1    6    6  503    0 -0.22387968731E+03  0.29106778316E+03 -0.30186110953E+02  0.36844778474E+03  0.00000000000E+00 0. -1.
         -4    1    6    6    0  503 -0.15061419224E+03  0.19590806803E+03  0.54498332592E+02  0.25305073460E+03  0.00000000000E+00 0.  1.
<mgrwt>
<rscale>  0 0.24429588E+04</rscale>
<asrwt>0</asrwt>
<pdfrwt beam="1">  1        2 0.30521160E+00 0.24429588E+04</pdfrwt>
<pdfrwt beam="2">  1       -1 0.11570298E+00 0.24429588E+04</pdfrwt>
<totfact> 0.47042578E+00</totfact>
</mgrwt>
</event>
<event>
12    6  0.1530720E-007  0.1175256E+04  0.7818608E-02  0.9134795E-01
         -1   -1    0    0    0  501 -0.00000000000E+00  0.00000000000E+00  0.79183123280E+03  0.79183123280E+03  0.00000000000E+00 0.  1.
          2   -1    0    0  501    0  0.00000000000E+00 -0.00000000000E+00 -0.43608629845E+03  0.43608629845E+03  0.00000000000E+00 0. -1.
         24    2    1    2    0    0  0.24431384945E+02 -0.12719318586E+02  0.31266076674E+03  0.32450505473E+03  0.82389937803E+02 0.  0.
        254    2    1    2    0    0 -0.24431384945E+02  0.12719318586E+02  0.43084167609E+02  0.90341247653E+03  0.90196407002E+03 0.  0.
         23    2    4    4    0    0  0.49269151124E+02 -0.40977452845E+03  0.15592255836E+03  0.45081624514E+03  0.92632765579E+02 0.  0.
         23    2    4    4    0    0 -0.73700536069E+02  0.42249384704E+03 -0.11283839075E+03  0.45259623138E+03  0.90432441246E+02 0.  0.
          2    1    3    3  502    0 -0.15330047379E+02  0.25893319944E+02  0.84135543032E+02  0.89354708726E+02  0.00000000000E+00 0. -1.
         -1    1    3    3    0  502  0.39761432323E+02 -0.38612638530E+02  0.22852522370E+03  0.23515034600E+03  0.00000000000E+00 0.  1.
         11    1    5    5    0    0  0.38457863260E+02 -0.37359189423E+03  0.16763231394E+03  0.41127910640E+03  0.00000000000E+00 0. -1.
        -11    1    5    5    0    0  0.10811287864E+02 -0.36182634220E+02 -0.11709755581E+02  0.39537138744E+02  0.00000000000E+00 0.  1.
          1    1    6    6  503    0 -0.93054762486E+02  0.37212678037E+03 -0.89985663834E+02  0.39399866648E+03  0.00000000000E+00 0. -1.
         -1    1    6    6    0  503  0.19354226417E+02  0.50367066667E+02 -0.22852726920E+02  0.58597564902E+02  0.00000000000E+00 0.  1.
<mgrwt>
<rscale>  0 0.11752561E+04</rscale>
<asrwt>0</asrwt>
<pdfrwt beam="1">  1        2 0.67090200E-01 0.11752561E+04</pdfrwt>
<pdfrwt beam="2">  1       -1 0.12182019E+00 0.11752561E+04</pdfrwt>
<totfact> 0.48651114E+01</totfact>
</mgrwt>
</event>
<event>
12    6  0.1530720E-007  0.1723663E+04  0.7818608E-02  0.8747982E-01
         -1   -1    0    0    0  501 -0.00000000000E+00  0.00000000000E+00  0.45505913456E+03  0.45505913456E+03  0.00000000000E+00 0.  1.
          2   -1    0    0  501    0  0.00000000000E+00 -0.00000000000E+00 -0.16322140963E+04  0.16322140963E+04  0.00000000000E+00 0. -1.
         24    2    1    2    0    0  0.55827771359E+03  0.16553555426E+03 -0.19884389499E+03  0.62021560923E+03  0.77797700157E+02 0.  0.
        254    2    1    2    0    0 -0.55827771359E+03 -0.16553555426E+03 -0.97831106681E+03  0.14670576217E+04  0.92525104522E+03 0.  0.
         23    2    4    4    0    0 -0.11419105547E+03  0.35035615790E+03 -0.20420179914E+03  0.43194609946E+03  0.95341614929E+02 0.  0.
         23    2    4    4    0    0 -0.44408665812E+03 -0.51589171215E+03 -0.77410926766E+03  0.10351115222E+04  0.94092967636E+02 0.  0.
          4    1    3    3  502    0  0.97381956893E+01 -0.74033115077E+01 -0.57090066277E+01  0.13499416033E+02  0.00000000000E+00 0. -1.
         -3    1    3    3    0  502  0.54853951790E+03  0.17293886576E+03 -0.19313488836E+03  0.60671619320E+03  0.00000000000E+00 0.  1.
         11    1    5    5    0    0 -0.57670627897E+02  0.11719600246E+03 -0.12090182641E+03  0.17798330243E+03  0.00000000000E+00 0.  1.
        -11    1    5    5    0    0 -0.56520427569E+02  0.23316015544E+03 -0.83299972734E+02  0.25396279703E+03  0.00000000000E+00 0. -1.
          2    1    6    6  503    0 -0.32468305789E+03 -0.36877597872E+03 -0.49238483135E+03  0.69559875841E+03  0.00000000000E+00 0. -1.
         -2    1    6    6    0  503 -0.11940360023E+03 -0.14711573344E+03 -0.28172443631E+03  0.33951276380E+03  0.00000000000E+00 0.  1.
<mgrwt>
<rscale>  0 0.17236635E+04</rscale>
<asrwt>0</asrwt>
<pdfrwt beam="1">  1        2 0.25110986E+00 0.17236635E+04</pdfrwt>
<pdfrwt beam="2">  1       -1 0.70009098E-01 0.17236635E+04</pdfrwt>
<totfact> 0.23877748E+01</totfact>
</mgrwt>
</event>
<event>
12    6  0.1530720E-007  0.1325280E+04  0.7818608E-02  0.9009754E-01
          2   -1    0    0  501    0  0.00000000000E+00  0.00000000000E+00  0.41664829534E+03  0.41664829534E+03  0.00000000000E+00 0. -1.
         -1   -1    0    0    0  501 -0.00000000000E+00 -0.00000000000E+00 -0.10538674211E+04  0.10538674211E+04  0.00000000000E+00 0.  1.
         24    2    1    2    0    0  0.74611944529E+02 -0.31951014188E+03 -0.31545631099E+03  0.46211677031E+03  0.79909650412E+02 0.  0.
        254    2    1    2    0    0 -0.74611944529E+02  0.31951014188E+03 -0.32176281478E+03  0.10083989461E+04  0.89759871467E+03 0.  0.
         23    2    4    4    0    0  0.28001503246E+03 -0.13927912821E+03 -0.26120472883E+03  0.41825123486E+03  0.94334994238E+02 0.  0.
         23    2    4    4    0    0 -0.35462697699E+03  0.45878927009E+03 -0.60558085949E+02  0.59014771128E+03  0.91428399318E+02 0.  0.
          2    1    3    3  502    0  0.27318591738E+02 -0.29751689958E+02 -0.18156849695E+02  0.44284756979E+02  0.00000000000E+00 0. -1.
         -1    1    3    3    0  502  0.47293352791E+02 -0.28975845192E+03 -0.29729946129E+03  0.41783201333E+03  0.00000000000E+00 0.  1.
         11    1    5    5    0    0  0.24142927542E+03 -0.10248387702E+03 -0.16984461285E+03  0.31247117082E+03  0.00000000000E+00 0. -1.
        -11    1    5    5    0    0  0.38585757043E+02 -0.36795251189E+02 -0.91360115976E+02  0.10578006404E+03  0.00000000000E+00 0.  1.
          2    1    6    6  503    0 -0.25131276843E+03  0.25217890911E+03 -0.35217631593E+02  0.35776052235E+03  0.00000000000E+00 0. -1.
         -2    1    6    6    0  503 -0.10331420856E+03  0.20661036098E+03 -0.25340454356E+02  0.23238718894E+03  0.00000000000E+00 0.  1.
<mgrwt>
<rscale>  0 0.13252804E+04</rscale>
<asrwt>0</asrwt>
<pdfrwt beam="1">  1        2 0.64099738E-01 0.13252804E+04</pdfrwt>
<pdfrwt beam="2">  1       -1 0.16213345E+00 0.13252804E+04</pdfrwt>
<totfact> 0.23937057E+01</totfact>
</mgrwt>
</event>
<event>
12    6  0.1530720E-007  0.1978311E+04  0.7818608E-02  0.8616829E-01
         -1   -1    0    0    0  501 -0.00000000000E+00  0.00000000000E+00  0.37411684110E+03  0.37411684110E+03  0.00000000000E+00 0.  1.
          2   -1    0    0  501    0  0.00000000000E+00 -0.00000000000E+00 -0.26153025480E+04  0.26153025480E+04  0.00000000000E+00 0. -1.
         24    2    1    2    0    0 -0.47428590160E+03 -0.47465927385E+03 -0.14554369061E+04  0.16047267246E+04  0.81257185640E+02 0.  0.
        254    2    1    2    0    0  0.47428590160E+03  0.47465927385E+03 -0.78574880082E+03  0.13846926645E+04  0.92180478114E+03 0.  0.
         23    2    4    4    0    0 -0.25431338770E+03  0.22954648969E+03 -0.15794910711E+03  0.38814010125E+03  0.91312253683E+02 0.  0.
         23    2    4    4    0    0  0.72859928930E+03  0.24511278415E+03 -0.62779969371E+03  0.99655256329E+03  0.89707049053E+02 0.  0.
          2    1    3    3  502    0 -0.40487797629E+03 -0.37068425162E+03 -0.12303338541E+04  0.13472395416E+04  0.00000000000E+00 0. -1.
         -1    1    3    3    0  502 -0.69407925309E+02 -0.10397502223E+03 -0.22510305204E+03  0.25748718295E+03  0.00000000000E+00 0.  1.
         11    1    5    5    0    0 -0.23371663554E+03  0.16491392574E+03 -0.13689793789E+03  0.31711372412E+03  0.00000000000E+00 0. -1.
        -11    1    5    5    0    0 -0.20596752160E+02  0.64632563953E+02 -0.21051169220E+02  0.71026377130E+02  0.00000000000E+00 0.  1.
          3    1    6    6  503    0  0.60771599989E+03  0.18602856578E+03 -0.55387503516E+03  0.84303197946E+03  0.00000000000E+00 0. -1.
         -3    1    6    6    0  503  0.12088328941E+03  0.59084218372E+02 -0.73924658553E+02  0.15352058383E+03  0.00000000000E+00 0.  1.
<mgrwt>
<rscale>  0 0.19783111E+04</rscale>
<asrwt>0</asrwt>
<pdfrwt beam="1">  1        2 0.40235425E+00 0.19783111E+04</pdfrwt>
<pdfrwt beam="2">  1       -1 0.57556436E-01 0.19783111E+04</pdfrwt>
<totfact> 0.96640699E+00</totfact>
</mgrwt>
</event>
<event>
12    6  0.1530720E-007  0.1966523E+04  0.7818608E-02  0.8622434E-01
          2   -1    0    0  501    0  0.00000000000E+00  0.00000000000E+00  0.28947074082E+04  0.28947074082E+04  0.00000000000E+00 0. -1.
         -1   -1    0    0    0  501 -0.00000000000E+00 -0.00000000000E+00 -0.33399010658E+03  0.33399010658E+03  0.00000000000E+00 0.  1.
         24    2    1    2    0    0  0.17636993211E+03  0.39938758267E+03 -0.34943299522E+02  0.44559068368E+03  0.81934297169E+02 0.  0.
        254    2    1    2    0    0 -0.17636993211E+03 -0.39938758267E+03  0.25956606012E+04  0.27831068311E+04  0.90421948820E+03 0.  0.
         23    2    4    4    0    0  0.56257013477E+01  0.96027046434E+01 -0.46423348462E+02  0.10182875640E+03  0.89945027080E+02 0.  0.
         23    2    4    4    0    0 -0.18199563346E+03 -0.40899028732E+03  0.26420839496E+04  0.26812780747E+04  0.90824288335E+02 0.  0.
          4    1    3    3  502    0  0.14297717401E+03  0.22700535527E+03 -0.29788893690E+02  0.26992829010E+03  0.00000000000E+00 0. -1.
         -3    1    3    3    0  502  0.33392758101E+02  0.17238222740E+03 -0.51544058317E+01  0.17566239358E+03  0.00000000000E+00 0.  1.
         11    1    5    5    0    0  0.87635498733E+01  0.44765841714E+02 -0.48351964980E+02  0.66473249568E+02  0.00000000000E+00 0.  1.
        -11    1    5    5    0    0 -0.31378485256E+01 -0.35163137071E+02  0.19286165179E+01  0.35355506837E+02  0.00000000000E+00 0. -1.
          2    1    6    6  503    0 -0.23002133075E+02 -0.38714437697E+02  0.46822366598E+03  0.47038421231E+03  0.00000000000E+00 0. -1.
         -2    1    6    6    0  503 -0.15899350038E+03 -0.37027584962E+03  0.21738602837E+04  0.22108938624E+04  0.00000000000E+00 0.  1.
<mgrwt>
<rscale>  0 0.19665235E+04</rscale>
<asrwt>0</asrwt>
<pdfrwt beam="1">  1        2 0.44533958E+00 0.19665235E+04</pdfrwt>
<pdfrwt beam="2">  1       -1 0.51383095E-01 0.19665235E+04</pdfrwt>
<totfact> 0.81947213E+00</totfact>
</mgrwt>
</event>
<event>
12    6  0.1530720E-007  0.1208255E+04  0.7818608E-02  0.9105662E-01
          2   -1    0    0  501    0  0.00000000000E+00  0.00000000000E+00  0.12564435852E+04  0.12564435852E+04  0.00000000000E+00 0. -1.
         -1   -1    0    0    0  501 -0.00000000000E+00 -0.00000000000E+00 -0.29047854966E+03  0.29047854966E+03  0.00000000000E+00 0.  1.
         24    2    1    2    0    0  0.33144930805E+02 -0.16128625768E+03 -0.35480454807E+02  0.18721725930E+03  0.81728796335E+02 0.  0.
        254    2    1    2    0    0 -0.33144930805E+02  0.16128625768E+03  0.10014454903E+04  0.13597048755E+04  0.90487150199E+03 0.  0.
         23    2    4    4    0    0  0.26750093619E+02 -0.10437124928E+03 -0.13025682226E+03  0.19195750768E+03  0.90950095240E+02 0.  0.
         23    2    4    4    0    0 -0.59895024423E+02  0.26565750697E+03  0.11317023126E+04  0.11677473679E+04  0.93394142655E+02 0.  0.
          4    1    3    3  502    0 -0.12288708720E+02 -0.13904279067E+02  0.16127834423E+02  0.24585531955E+02  0.00000000000E+00 0. -1.
         -3    1    3    3    0  502  0.45433639524E+02 -0.14738197862E+03 -0.51608289230E+02  0.16263172734E+03  0.00000000000E+00 0.  1.
         11    1    5    5    0    0 -0.70084497367E+01 -0.13036510683E+02  0.12350550929E+02  0.19277061155E+02  0.00000000000E+00 0. -1.
        -11    1    5    5    0    0  0.33758543355E+02 -0.91334738601E+02 -0.14260737319E+03  0.17268044652E+03  0.00000000000E+00 0.  1.
          1    1    6    6  503    0  0.37080719424E+01  0.18517390054E+03  0.71324488192E+03  0.73689984722E+03  0.00000000000E+00 0. -1.
         -1    1    6    6    0  503 -0.63603096366E+02  0.80483606426E+02  0.41845743065E+03  0.43084752064E+03  0.00000000000E+00 0.  1.
<mgrwt>
<rscale>  0 0.12082548E+04</rscale>
<asrwt>0</asrwt>
<pdfrwt beam="1">  1        2 0.19329901E+00 0.12082548E+04</pdfrwt>
<pdfrwt beam="2">  1       -1 0.44689008E-01 0.12082548E+04</pdfrwt>
<totfact> 0.97744437E+01</totfact>
</mgrwt>
</event>
<event>
12    6  0.1530720E-007  0.2276310E+04  0.7818608E-02  0.8487321E-01
          2   -1    0    0  501    0  0.00000000000E+00  0.00000000000E+00  0.33720879548E+04  0.33720879548E+04  0.00000000000E+00 0. -1.
         -1   -1    0    0    0  501 -0.00000000000E+00 -0.00000000000E+00 -0.38415281132E+03  0.38415281132E+03  0.00000000000E+00 0.  1.
         24    2    1    2    0    0  0.45643675681E+03  0.45279317015E+03  0.94383902183E+02  0.65409007144E+03  0.74627961629E+02 0.  0.
        254    2    1    2    0    0 -0.45643675681E+03 -0.45279317015E+03  0.28935512413E+04  0.31021506947E+04  0.91506501329E+03 0.  0.
         23    2    4    4    0    0 -0.45918484215E+02 -0.34212521851E+03  0.28046341934E+03  0.45322461575E+03  0.87147291390E+02 0.  0.
         23    2    4    4    0    0 -0.41051827260E+03 -0.11066795164E+03  0.26130878219E+04  0.26489260789E+04  0.88367181186E+02 0.  0.
          4    1    3    3  502    0  0.92713903854E+02  0.13730048225E+03  0.28796752900E+02  0.16815630637E+03  0.00000000000E+00 0. -1.
         -3    1    3    3    0  502  0.36372285296E+03  0.31549268790E+03  0.65587149283E+02  0.48593376507E+03  0.00000000000E+00 0.  1.
         11    1    5    5    0    0 -0.51785093847E+02 -0.10859450012E+03  0.11922240484E+03  0.16937663126E+03  0.00000000000E+00 0.  1.
        -11    1    5    5    0    0  0.58666096321E+01 -0.23353071839E+03  0.16124101450E+03  0.28384798449E+03  0.00000000000E+00 0. -1.
          2    1    6    6  503    0 -0.33091208063E+03 -0.10121855479E+03  0.18909900891E+04  0.19223921343E+04  0.00000000000E+00 0. -1.
         -2    1    6    6    0  503 -0.79606191963E+02 -0.94493968481E+01  0.72209773290E+03  0.72653394467E+03  0.00000000000E+00 0.  1.
<mgrwt>
<rscale>  0 0.22763102E+04</rscale>
<asrwt>0</asrwt>
<pdfrwt beam="1">  1        2 0.51878274E+00 0.22763102E+04</pdfrwt>
<pdfrwt beam="2">  1       -1 0.59100435E-01 0.22763102E+04</pdfrwt>
<totfact> 0.29940543E+00</totfact>
</mgrwt>
</event>
<event>
12    6  0.1530720E-007  0.1741741E+04  0.7818608E-02  0.8737909E-01
          2   -1    0    0  501    0  0.00000000000E+00  0.00000000000E+00  0.83226882243E+03  0.83226882243E+03  0.00000000000E+00 0. -1.
         -1   -1    0    0    0  501 -0.00000000000E+00 -0.00000000000E+00 -0.91126304230E+03  0.91126304230E+03  0.00000000000E+00 0.  1.
         24    2    1    2    0    0 -0.57047252424E+03  0.22148014720E+03  0.14654611508E+03  0.63418203172E+03  0.78858918321E+02 0.  0.
        254    2    1    2    0    0  0.57047252424E+03 -0.22148014720E+03 -0.22554033495E+03  0.11093498330E+04  0.89738300227E+03 0.  0.
         23    2    4    4    0    0  0.13767696461E+03  0.79826547545E+02 -0.48259982138E+03  0.51584318276E+03  0.88681324619E+02 0.  0.
         23    2    4    4    0    0  0.43279555964E+03 -0.30130669474E+03  0.25705948643E+03  0.59350665023E+03  0.89849004285E+02 0.  0.
          2    1    3    3  502    0 -0.55933033792E+03  0.21909004255E+03  0.13086568123E+03  0.61479809709E+03  0.00000000000E+00 0. -1.
         -1    1    3    3    0  502 -0.11142186324E+02  0.23901046472E+01  0.15680433846E+02  0.19383934634E+02  0.00000000000E+00 0.  1.
         11    1    5    5    0    0  0.47964443758E+02 -0.21650302247E+01 -0.23703189762E+03  0.24184580979E+03  0.00000000000E+00 0.  1.
        -11    1    5    5    0    0  0.89712520848E+02  0.81991577769E+02 -0.24556792375E+03  0.27399737298E+03  0.00000000000E+00 0. -1.
          2    1    6    6  503    0  0.30027254000E+03 -0.25611877905E+03  0.18141011063E+03  0.43436166439E+03  0.00000000000E+00 0. -1.
         -2    1    6    6    0  503  0.13252301964E+03 -0.45187915698E+02  0.75649375804E+02  0.15914498584E+03  0.00000000000E+00 0.  1.
<mgrwt>
<rscale>  0 0.17417414E+04</rscale>
<asrwt>0</asrwt>
<pdfrwt beam="1">  1        2 0.12804136E+00 0.17417414E+04</pdfrwt>
<pdfrwt beam="2">  1       -1 0.14019431E+00 0.17417414E+04</pdfrwt>
<totfact> 0.14769646E+01</totfact>
</mgrwt>
</event>
<event>
12    6  0.1530720E-007  0.1677209E+04  0.7818608E-02  0.8774471E-01
          2   -1    0    0  501    0  0.00000000000E+00  0.00000000000E+00  0.22446301454E+04  0.22446301454E+04  0.00000000000E+00 0. -1.
         -1   -1    0    0    0  501 -0.00000000000E+00 -0.00000000000E+00 -0.31330661949E+03  0.31330661949E+03  0.00000000000E+00 0.  1.
         24    2    1    2    0    0 -0.17529043364E+03 -0.86796498476E+02 -0.16098636050E+03  0.26579208979E+03  0.80426727236E+02 0.  0.
        254    2    1    2    0    0  0.17529043364E+03  0.86796498476E+02  0.20923098864E+04  0.22921446751E+04  0.91537215522E+03 0.  0.
         23    2    4    4    0    0  0.47835407220E+03  0.19050610797E+03  0.79071462320E+03  0.94808886779E+03  0.92345494274E+02 0.  0.
         23    2    4    4    0    0 -0.30306363856E+03 -0.10370960949E+03  0.13015952632E+04  0.13440558073E+04  0.98653595184E+02 0.  0.
          4    1    3    3  502    0 -0.25264687182E+02 -0.34009663006E+02 -0.72022113853E+02  0.83559239346E+02  0.00000000000E+00 0. -1.
         -3    1    3    3    0  502 -0.15002574646E+03 -0.52786835471E+02 -0.88964246651E+02  0.18223285045E+03  0.00000000000E+00 0.  1.
         11    1    5    5    0    0  0.73564803408E+02  0.32338065810E+02  0.70449325268E+02  0.10686738619E+03  0.00000000000E+00 0. -1.
        -11    1    5    5    0    0  0.40478926879E+03  0.15816804216E+03  0.72026529793E+03  0.84122148159E+03  0.00000000000E+00 0.  1.
          2    1    6    6  503    0 -0.96617109542E+02 -0.83044266716E+02  0.46852586296E+03  0.48553856731E+03  0.00000000000E+00 0. -1.
         -2    1    6    6    0  503 -0.20644652902E+03 -0.20665342774E+02  0.83306940029E+03  0.85851724003E+03  0.00000000000E+00 0.  1.
<mgrwt>
<rscale>  0 0.16772090E+04</rscale>
<asrwt>0</asrwt>
<pdfrwt beam="1">  1        2 0.34532770E+00 0.16772090E+04</pdfrwt>
<pdfrwt beam="2">  1       -1 0.48201020E-01 0.16772090E+04</pdfrwt>
<totfact> 0.22781226E+01</totfact>
</mgrwt>
</event>
<event>
12    6  0.1530720E-007  0.1204919E+04  0.7818608E-02  0.9108562E-01
          2   -1    0    0  501    0  0.00000000000E+00  0.00000000000E+00  0.14881857855E+04  0.14881857855E+04  0.00000000000E+00 0. -1.
         -1   -1    0    0    0  501 -0.00000000000E+00 -0.00000000000E+00 -0.24389248873E+03  0.24389248873E+03  0.00000000000E+00 0.  1.
         24    2    1    2    0    0 -0.24812096647E+03  0.63531808636E+02  0.18548737190E+03  0.32609709749E+03  0.79582957618E+02 0.  0.
        254    2    1    2    0    0  0.24812096647E+03 -0.63531808636E+02  0.10588059249E+04  0.14059811767E+04  0.88888288209E+03 0.  0.
         23    2    4    4    0    0 -0.12676167142E+03  0.20740172400E+03  0.15141077045E+02  0.26056432106E+03  0.92631078673E+02 0.  0.
         23    2    4    4    0    0  0.37488263790E+03 -0.27093353264E+03  0.10436648478E+04  0.11454168557E+04  0.93816242562E+02 0.  0.
          2    1    3    3  502    0 -0.82913849953E+02  0.61068752845E+02  0.70468335013E+02  0.12477934656E+03  0.00000000000E+00 0. -1.
         -1    1    3    3    0  502 -0.16520711652E+03  0.24630557916E+01  0.11501903688E+03  0.20131775093E+03  0.00000000000E+00 0.  1.
         11    1    5    5    0    0 -0.13181242918E+03  0.14859989385E+03  0.26705558695E+02  0.20042363085E+03  0.00000000000E+00 0. -1.
        -11    1    5    5    0    0  0.50507577586E+01  0.58801830154E+02 -0.11564481650E+02  0.60140690212E+02  0.00000000000E+00 0.  1.
          3    1    6    6  503    0  0.31978546861E+03 -0.19054042676E+03  0.86960030153E+03  0.94592446030E+03  0.00000000000E+00 0. -1.
         -3    1    6    6    0  503  0.55097169290E+02 -0.80393105879E+02  0.17406454628E+03  0.19949239536E+03  0.00000000000E+00 0.  1.
<mgrwt>
<rscale>  0 0.12049188E+04</rscale>
<asrwt>0</asrwt>
<pdfrwt beam="1">  1        2 0.22895165E+00 0.12049188E+04</pdfrwt>
<pdfrwt beam="2">  1       -1 0.37521922E-01 0.12049188E+04</pdfrwt>
<totfact> 0.99115773E+01</totfact>
</mgrwt>
</event>
<event>
12    6  0.1530720E-007  0.1344593E+04  0.7818608E-02  0.8994931E-01
          2   -1    0    0  501    0  0.00000000000E+00  0.00000000000E+00  0.68830609987E+03  0.68830609987E+03  0.00000000000E+00 0. -1.
         -1   -1    0    0    0  501 -0.00000000000E+00 -0.00000000000E+00 -0.65665917874E+03  0.65665917874E+03  0.00000000000E+00 0.  1.
         24    2    1    2    0    0 -0.91708724726E+02 -0.24606668482E+03 -0.25325603878E+03  0.37403677437E+03  0.82495962529E+02 0.  0.
        254    2    1    2    0    0  0.91708724726E+02  0.24606668482E+03  0.28490295991E+03  0.97092850424E+03  0.89026578066E+03 0.  0.
         23    2    4    4    0    0  0.86545359522E+02 -0.24911753123E+03  0.36680044420E+03  0.46096416491E+03  0.91628335403E+02 0.  0.
         23    2    4    4    0    0  0.51633652034E+01  0.49518421605E+03 -0.81897484285E+02  0.50996433933E+03  0.90124143797E+02 0.  0.
          2    1    3    3  502    0 -0.22928619209E+02 -0.76158500898E+02 -0.29603933764E+02  0.84865963331E+02  0.00000000000E+00 0. -1.
         -1    1    3    3    0  502 -0.68780105517E+02 -0.16990818392E+03 -0.22365210502E+03  0.28917081104E+03  0.00000000000E+00 0.  1.
         11    1    5    5    0    0  0.51161075063E+02 -0.15732273338E+03  0.15179718292E+03  0.22452234361E+03  0.00000000000E+00 0. -1.
        -11    1    5    5    0    0  0.35384284459E+02 -0.91794797852E+02  0.21500326128E+03  0.23644182130E+03  0.00000000000E+00 0.  1.
          4    1    6    6  503    0  0.33144345293E+02  0.41618409468E+03 -0.85131817687E+02  0.42609291789E+03  0.00000000000E+00 0. -1.
         -4    1    6    6    0  503 -0.27980980090E+02  0.79000121367E+02  0.32343334017E+01  0.83871421446E+02  0.00000000000E+00 0.  1.
<mgrwt>
<rscale>  0 0.13445929E+04</rscale>
<asrwt>0</asrwt>
<pdfrwt beam="1">  1        2 0.10589325E+00 0.13445929E+04</pdfrwt>
<pdfrwt beam="2">  1       -1 0.10102449E+00 0.13445929E+04</pdfrwt>
<totfact> 0.43518032E+01</totfact>
</mgrwt>
</event>
<event>
12    6  0.1530720E-007  0.3075626E+04  0.7818608E-02  0.8222459E-01
          2   -1    0    0  501    0  0.00000000000E+00  0.00000000000E+00  0.18131375296E+04  0.18131375296E+04  0.00000000000E+00 0. -1.
         -1   -1    0    0    0  501 -0.00000000000E+00 -0.00000000000E+00 -0.13042962220E+04  0.13042962220E+04  0.00000000000E+00 0.  1.
         24    2    1    2    0    0  0.37089252949E+01 -0.99147907092E+03  0.12435058458E+04  0.15922965788E+04  0.77827387825E+02 0.  0.
        254    2    1    2    0    0 -0.37089252949E+01  0.99147907092E+03 -0.73466453819E+03  0.15251371727E+04  0.89625158730E+03 0.  0.
         23    2    4    4    0    0  0.13345488367E+03 -0.11720692267E+03 -0.35290261402E+02  0.20376502551E+03  0.93419025772E+02 0.  0.
         23    2    4    4    0    0 -0.13716380896E+03  0.11086859936E+04 -0.69937427679E+03  0.13213721472E+04  0.94347387455E+02 0.  0.
          4    1    3    3  502    0  0.30369946321E+02 -0.81138056274E+03  0.10353650122E+04  0.13157664914E+04  0.00000000000E+00 0. -1.
         -3    1    3    3    0  502 -0.26661021026E+02 -0.18009850818E+03  0.20814083352E+03  0.27653008745E+03  0.00000000000E+00 0.  1.
         11    1    5    5    0    0  0.40656341775E+02 -0.38820969584E+02  0.32218750337E+02  0.64792389054E+02  0.00000000000E+00 0. -1.
        -11    1    5    5    0    0  0.92798541893E+02 -0.78385953082E+02 -0.67509011739E+02  0.13897263646E+03  0.00000000000E+00 0.  1.
          2    1    6    6  503    0 -0.90294417251E+02  0.69216727691E+03 -0.38279319736E+03  0.79610253922E+03  0.00000000000E+00 0.  1.
         -2    1    6    6    0  503 -0.46869391712E+02  0.41651871668E+03 -0.31658107943E+03  0.52526960798E+03  0.00000000000E+00 0. -1.
<mgrwt>
<rscale>  0 0.30756257E+04</rscale>
<asrwt>0</asrwt>
<pdfrwt beam="1">  1        2 0.27894424E+00 0.30756257E+04</pdfrwt>
<pdfrwt beam="2">  1       -1 0.20066096E+00 0.30756257E+04</pdfrwt>
<totfact> 0.12233637E+00</totfact>
</mgrwt>
</event>
<event>
12    6  0.1530720E-007  0.1743825E+04  0.7818608E-02  0.8736756E-01
         -1   -1    0    0    0  501 -0.00000000000E+00  0.00000000000E+00  0.46977794214E+03  0.46977794214E+03  0.00000000000E+00 0.  1.
          2   -1    0    0  501    0  0.00000000000E+00 -0.00000000000E+00 -0.16182788122E+04  0.16182788122E+04  0.00000000000E+00 0. -1.
         24    2    1    2    0    0 -0.21689482612E+03 -0.25268627997E+03 -0.10776136136E+04  0.11308257479E+04  0.81375979958E+02 0.  0.
        254    2    1    2    0    0  0.21689482612E+03  0.25268627997E+03 -0.70887256422E+02  0.95723100644E+03  0.89463538656E+03 0.  0.
         23    2    4    4    0    0  0.11798513344E+03 -0.30026165510E+03  0.12085573974E+03  0.35659271014E+03  0.92058122222E+02 0.  0.
         23    2    4    4    0    0  0.98909692682E+02  0.55294793506E+03 -0.19174299616E+03  0.60063829630E+03  0.92013261025E+02 0.  0.
          4    1    3    3  502    0 -0.22276264980E+03 -0.23716335370E+03 -0.10058273792E+04  0.10571463339E+04  0.00000000000E+00 0. -1.
         -3    1    3    3    0  502  0.58678236764E+01 -0.15522926264E+02 -0.71786234428E+02  0.73679414003E+02  0.00000000000E+00 0.  1.
         11    1    5    5    0    0  0.19916926431E+02 -0.56675106959E+02  0.64278621333E+02  0.87980070855E+02  0.00000000000E+00 0.  1.
        -11    1    5    5    0    0  0.98068207006E+02 -0.24358654814E+03  0.56577118406E+02  0.26861263929E+03  0.00000000000E+00 0. -1.
          3    1    6    6  503    0  0.62523258746E+02  0.29389689245E+03 -0.55020578127E+02  0.30546981078E+03  0.00000000000E+00 0. -1.
         -3    1    6    6    0  503  0.36386433936E+02  0.25905104261E+03 -0.13672241803E+03  0.29516848552E+03  0.00000000000E+00 0.  1.
<mgrwt>
<rscale>  0 0.17438253E+04</rscale>
<asrwt>0</asrwt>
<pdfrwt beam="1">  1        2 0.24896597E+00 0.17438253E+04</pdfrwt>
<pdfrwt beam="2">  1       -1 0.72273530E-01 0.17438253E+04</pdfrwt>
<totfact> 0.22726778E+01</totfact>
</mgrwt>
</event>
<event>
12    6  0.1530720E-007  0.2511534E+04  0.7818608E-02  0.8398888E-01
         -1   -1    0    0    0  501 -0.00000000000E+00  0.00000000000E+00  0.10508637982E+04  0.10508637982E+04  0.00000000000E+00 0.  1.
          2   -1    0    0  501    0  0.00000000000E+00 -0.00000000000E+00 -0.15006230300E+04  0.15006230300E+04  0.00000000000E+00 0. -1.
         24    2    1    2    0    0  0.30460153863E+03 -0.69675254932E+03 -0.99608054011E+03  0.12555192792E+04  0.76850542429E+02 0.  0.
        254    2    1    2    0    0 -0.30460153863E+03  0.69675254932E+03  0.54632130831E+03  0.12959675489E+04  0.89600150867E+03 0.  0.
         23    2    4    4    0    0 -0.54572776447E+03  0.24297602404E+03  0.10673006864E+03  0.61367537902E+03  0.91378455289E+02 0.  0.
         23    2    4    4    0    0  0.24112622584E+03  0.45377652528E+03  0.43959123966E+03  0.68229216987E+03  0.90703668008E+02 0.  0.
          4    1    3    3  502    0  0.10757181062E+03 -0.29977537314E+03 -0.46833726236E+03  0.56637157423E+03  0.00000000000E+00 0. -1.
         -3    1    3    3    0  502  0.19702972801E+03 -0.39697717617E+03 -0.52774327774E+03  0.68914770501E+03  0.00000000000E+00 0.  1.
         11    1    5    5    0    0 -0.20326588148E+03  0.52210790014E+02  0.11032717056E+02  0.21015400547E+03  0.00000000000E+00 0. -1.
        -11    1    5    5    0    0 -0.34246188299E+03  0.19076523402E+03  0.95697351588E+02  0.40352137355E+03  0.00000000000E+00 0.  1.
          1    1    6    6  503    0  0.25478351001E+02  0.12606574353E+03  0.12613367694E+03  0.18014278370E+03  0.00000000000E+00 0. -1.
         -1    1    6    6    0  503  0.21564787484E+03  0.32771078176E+03  0.31345756272E+03  0.50214938617E+03  0.00000000000E+00 0.  1.
<mgrwt>
<rscale>  0 0.25115337E+04</rscale>
<asrwt>0</asrwt>
<pdfrwt beam="1">  1        2 0.23086508E+00 0.25115337E+04</pdfrwt>
<pdfrwt beam="2">  1       -1 0.16167135E+00 0.25115337E+04</pdfrwt>
<totfact> 0.36539937E+00</totfact>
</mgrwt>
</event>
<event>
12    6  0.1530720E-007  0.1309596E+04  0.7818608E-02  0.9021990E-01
         -1   -1    0    0    0  501 -0.00000000000E+00  0.00000000000E+00  0.10585822513E+04  0.10585822513E+04  0.00000000000E+00 0.  1.
          2   -1    0    0  501    0  0.00000000000E+00 -0.00000000000E+00 -0.40503296536E+03  0.40503296536E+03  0.00000000000E+00 0. -1.
         24    2    1    2    0    0  0.20225328814E+03 -0.13984824292E+03  0.45825000196E+03  0.52606961102E+03  0.79323689601E+02 0.  0.
        254    2    1    2    0    0 -0.20225328814E+03  0.13984824292E+03  0.19529928396E+03  0.93754560561E+03  0.88339460530E+03 0.  0.
         23    2    4    4    0    0 -0.41331792009E+03 -0.19179392168E+03  0.25426022293E+03  0.52936112132E+03  0.89209440859E+02 0.  0.
         23    2    4    4    0    0  0.21106463195E+03  0.33164216460E+03 -0.58960938971E+02  0.40818448429E+03  0.92754389021E+02 0.  0.
          4    1    3    3  502    0  0.11786195466E+03 -0.53130719211E+02  0.17098614515E+03  0.21436085350E+03  0.00000000000E+00 0. -1.
         -3    1    3    3    0  502  0.84391333477E+02 -0.86717523714E+02  0.28726385681E+03  0.31170875752E+03  0.00000000000E+00 0.  1.
         11    1    5    5    0    0 -0.14261256199E+03 -0.11407136270E+03  0.10328465580E+03  0.20980547836E+03  0.00000000000E+00 0. -1.
        -11    1    5    5    0    0 -0.27070535810E+03 -0.77722558984E+02  0.15097556713E+03  0.31955564296E+03  0.00000000000E+00 0.  1.
          1    1    6    6  503    0  0.75508237318E+02  0.17113376677E+03  0.92976713507E+01  0.18728242502E+03  0.00000000000E+00 0. -1.
         -1    1    6    6    0  503  0.13555639464E+03  0.16050839784E+03 -0.68258610322E+02  0.22090205926E+03  0.00000000000E+00 0.  1.
<mgrwt>
<rscale>  0 0.13095964E+04</rscale>
<asrwt>0</asrwt>
<pdfrwt beam="1">  1        2 0.62312764E-01 0.13095964E+04</pdfrwt>
<pdfrwt beam="2">  1       -1 0.16285881E+00 0.13095964E+04</pdfrwt>
<totfact> 0.24437037E+01</totfact>
</mgrwt>
</event>
<event>
12    6  0.1530720E-007  0.2042153E+04  0.7818608E-02  0.8587162E-01
         -1   -1    0    0    0  501 -0.00000000000E+00  0.00000000000E+00  0.31550094232E+03  0.31550094232E+03  0.00000000000E+00 0.  1.
          2   -1    0    0  501    0  0.00000000000E+00 -0.00000000000E+00 -0.33045781331E+04  0.33045781331E+04  0.00000000000E+00 0. -1.
         24    2    1    2    0    0 -0.78469302486E+03  0.16279003338E+03 -0.89327484266E+03  0.12027447845E+04  0.80070804839E+02 0.  0.
        254    2    1    2    0    0  0.78469302486E+03 -0.16279003338E+03 -0.20958023481E+04  0.24173342909E+04  0.89937414550E+03 0.  0.
         23    2    4    4    0    0  0.60741954728E+03 -0.46648388700E+03 -0.10002816760E+04  0.12632695570E+04  0.93385326694E+02 0.  0.
         23    2    4    4    0    0  0.17727347759E+03  0.30369385362E+03 -0.10955206721E+04  0.11540647339E+04  0.89688485082E+02 0.  0.
          4    1    3    3  502    0 -0.28515483038E+03  0.65444190475E+02 -0.27037793010E+03  0.39837224357E+03  0.00000000000E+00 0. -1.
         -3    1    3    3    0  502 -0.49953819448E+03  0.97345842906E+02 -0.62289691256E+03  0.80437254090E+03  0.00000000000E+00 0.  1.
         11    1    5    5    0    0  0.78419636993E+02 -0.89423425871E+02 -0.11718255077E+03  0.16696687925E+03  0.00000000000E+00 0. -1.
        -11    1    5    5    0    0  0.52899991028E+03 -0.37706046113E+03 -0.88309912519E+03  0.10963026778E+04  0.00000000000E+00 0.  1.
          1    1    6    6  503    0  0.27217653557E+02  0.62126656994E+01 -0.12034992135E+03  0.12354554403E+03  0.00000000000E+00 0. -1.
         -1    1    6    6    0  503  0.15005582403E+03  0.29748118792E+03 -0.97517075079E+03  0.10305191899E+04  0.00000000000E+00 0.  1.
<mgrwt>
<rscale>  0 0.20421533E+04</rscale>
<asrwt>0</asrwt>
<pdfrwt beam="1">  1        2 0.50839667E+00 0.20421533E+04</pdfrwt>
<pdfrwt beam="2">  1       -1 0.48538603E-01 0.20421533E+04</pdfrwt>
<totfact> 0.49686206E+00</totfact>
</mgrwt>
</event>
<event>
12    6  0.1530720E-007  0.1430063E+04  0.7818608E-02  0.8932341E-01
         -1   -1    0    0    0  501 -0.00000000000E+00  0.00000000000E+00  0.52654600196E+03  0.52654600196E+03  0.00000000000E+00 0.  1.
          2   -1    0    0  501    0  0.00000000000E+00 -0.00000000000E+00 -0.97098807879E+03  0.97098807879E+03  0.00000000000E+00 0. -1.
         24    2    1    2    0    0 -0.25953605634E+03 -0.27617604190E+03 -0.33497323242E+03  0.51117376017E+03  0.73887590194E+02 0.  0.
        254    2    1    2    0    0  0.25953605634E+03  0.27617604190E+03 -0.10946884441E+03  0.98636032058E+03  0.90404152750E+03 0.  0.
         23    2    4    4    0    0  0.39660874397E+03  0.49504861808E+03 -0.23832429980E+03  0.68366958134E+03  0.90741360599E+02 0.  0.
         23    2    4    4    0    0 -0.13707268764E+03 -0.21887257618E+03  0.12885545540E+03  0.30269073923E+03  0.91235020322E+02 0.  0.
          2    1    3    3  502    0 -0.91575448351E+02 -0.14771166781E+03 -0.16827233047E+03  0.24190985253E+03  0.00000000000E+00 0. -1.
         -1    1    3    3    0  502 -0.16796060799E+03 -0.12846437409E+03 -0.16670090195E+03  0.26926390764E+03  0.00000000000E+00 0.  1.
         11    1    5    5    0    0  0.35752293114E+03  0.48050777039E+03 -0.21901263074E+03  0.63771223614E+03  0.00000000000E+00 0. -1.
        -11    1    5    5    0    0  0.39085812839E+02  0.14540847686E+02 -0.19311669061E+02  0.45957345209E+02  0.00000000000E+00 0.  1.
          3    1    6    6  503    0 -0.11605334786E+03 -0.14212320640E+03  0.12689441781E+03  0.22309096489E+03  0.00000000000E+00 0. -1.
         -3    1    6    6    0  503 -0.21019339780E+02 -0.76749369779E+02  0.19610375852E+01  0.79599774339E+02  0.00000000000E+00 0.  1.
<mgrwt>
<rscale>  0 0.14300628E+04</rscale>
<asrwt>0</asrwt>
<pdfrwt beam="1">  1        2 0.14938278E+00 0.14300628E+04</pdfrwt>
<pdfrwt beam="2">  1       -1 0.81007078E-01 0.14300628E+04</pdfrwt>
<totfact> 0.44279039E+01</totfact>
</mgrwt>
</event>
<event>
12    6  0.1530720E-007  0.1527060E+04  0.7818608E-02  0.8866655E-01
          2   -1    0    0  501    0  0.00000000000E+00  0.00000000000E+00  0.27136641346E+04  0.27136641346E+04  0.00000000000E+00 0. -1.
         -3   -1    0    0    0  501 -0.00000000000E+00 -0.00000000000E+00 -0.21483059469E+03  0.21483059469E+03  0.00000000000E+00 0.  1.
         24    2    1    2    0    0  0.67640274425E+02 -0.46918452303E+03  0.50102908584E+03  0.69424535983E+03  0.78975638069E+02 0.  0.
        254    2    1    2    0    0 -0.67640274425E+02  0.46918452303E+03  0.19978044541E+04  0.22342493695E+04  0.88087359189E+03 0.  0.
         23    2    4    4    0    0  0.39222017253E+03  0.29861490395E+03  0.10144238217E+04  0.11316443748E+04  0.92497440320E+02 0.  0.
         23    2    4    4    0    0 -0.45986044695E+03  0.17056961908E+03  0.98338063238E+03  0.11026049946E+04  0.90192463347E+02 0.  0.
          4    1    3    3  502    0  0.29368292941E+02 -0.41779721223E+02  0.45025135548E+02  0.68083071074E+02  0.00000000000E+00 0. -1.
         -1    1    3    3    0  502  0.38271981484E+02 -0.42740480181E+03  0.45600395030E+03  0.62616228876E+03  0.00000000000E+00 0.  1.
         11    1    5    5    0    0  0.37091681791E+03  0.25246399727E+03  0.87681512938E+03  0.98494777874E+03  0.00000000000E+00 0. -1.
        -11    1    5    5    0    0  0.21303354618E+02  0.46150906682E+02  0.13760869232E+03  0.14669659610E+03  0.00000000000E+00 0.  1.
          4    1    6    6  503    0 -0.11999832891E+03  0.51569235180E+02  0.18176603219E+03  0.22382554684E+03  0.00000000000E+00 0.  1.
         -4    1    6    6    0  503 -0.33986211804E+03  0.11900038390E+03  0.80161460018E+03  0.87877944780E+03  0.00000000000E+00 0. -1.
<mgrwt>
<rscale>  0 0.15270600E+04</rscale>
<asrwt>0</asrwt>
<pdfrwt beam="1">  1        2 0.41748677E+00 0.15270600E+04</pdfrwt>
<pdfrwt beam="2">  1       -3 0.33050863E-01 0.15270600E+04</pdfrwt>
<totfact> 0.14745215E+01</totfact>
</mgrwt>
</event>
<event>
12    6  0.1530720E-007  0.1796728E+04  0.7818608E-02  0.8708041E-01
         -1   -1    0    0    0  501 -0.00000000000E+00  0.00000000000E+00  0.85734834353E+03  0.85734834353E+03  0.00000000000E+00 0.  1.
          2   -1    0    0  501    0  0.00000000000E+00 -0.00000000000E+00 -0.94134174388E+03  0.94134174388E+03  0.00000000000E+00 0. -1.
         24    2    1    2    0    0  0.20213394939E+03 -0.54905430969E+03 -0.34919937584E+03  0.68708642706E+03  0.88480425400E+02 0.  0.
        254    2    1    2    0    0 -0.20213394939E+03  0.54905430969E+03  0.26520597550E+03  0.11116036603E+04  0.90719883144E+03 0.  0.
         23    2    4    4    0    0  0.29723735234E+03  0.42606546556E+03  0.28602263205E+01  0.52709911821E+03  0.89126174332E+02 0.  0.
         23    2    4    4    0    0 -0.49937130173E+03  0.12298884413E+03  0.26234574918E+03  0.58450454214E+03  0.91226722493E+02 0.  0.
          4    1    3    3  502    0  0.13393886369E+03 -0.39507842942E+03 -0.20235427469E+03  0.46365271172E+03  0.00000000000E+00 0. -1.
         -3    1    3    3    0  502  0.68195085703E+02 -0.15397588027E+03 -0.14684510116E+03  0.22343371534E+03  0.00000000000E+00 0.  1.
         11    1    5    5    0    0  0.19996428942E+03  0.25512024681E+03  0.41066932026E+02  0.32673926957E+03  0.00000000000E+00 0. -1.
        -11    1    5    5    0    0  0.97273062918E+02  0.17094521875E+03 -0.38206705705E+02  0.20035984864E+03  0.00000000000E+00 0.  1.
          1    1    6    6  503    0 -0.40416697502E+03  0.80501559086E+02  0.17203455839E+03  0.44657287647E+03  0.00000000000E+00 0. -1.
         -1    1    6    6    0  503 -0.95204326709E+02  0.42487285041E+02  0.90311190784E+02  0.13793166567E+03  0.00000000000E+00 0.  1.
<mgrwt>
<rscale>  0 0.17967279E+04</rscale>
<asrwt>0</asrwt>
<pdfrwt beam="1">  1        2 0.14482181E+00 0.17967279E+04</pdfrwt>
<pdfrwt beam="2">  1       -1 0.13189975E+00 0.17967279E+04</pdfrwt>
<totfact> 0.14491466E+01</totfact>
</mgrwt>
</event>
<event>
12    6  0.1530720E-007  0.1606275E+04  0.7818608E-02  0.8816702E-01
         -1   -1    0    0    0  501 -0.00000000000E+00  0.00000000000E+00  0.58551992635E+03  0.58551992635E+03  0.00000000000E+00 0.  1.
          2   -1    0    0  501    0  0.00000000000E+00 -0.00000000000E+00 -0.11016359429E+04  0.11016359429E+04  0.00000000000E+00 0. -1.
         24    2    1    2    0    0  0.62135475361E+02  0.35410203971E+03 -0.60972649798E+03  0.71219701680E+03  0.78797947804E+02 0.  0.
        254    2    1    2    0    0 -0.62135475361E+02 -0.35410203971E+03  0.93610481449E+02  0.97495885244E+03  0.90140599614E+03 0.  0.
         23    2    4    4    0    0 -0.10410844197E+03 -0.52033127871E+03 -0.23966715674E+03  0.58940012663E+03  0.91481998001E+02 0.  0.
         23    2    4    4    0    0  0.41972966606E+02  0.16622923900E+03  0.33327763819E+03  0.38555872581E+03  0.90485673478E+02 0.  0.
          2    1    3    3  502    0  0.80150515700E+01  0.24044321165E+03 -0.43080924435E+03  0.49343062745E+03  0.00000000000E+00 0. -1.
         -1    1    3    3    0  502  0.54120423791E+02  0.11365882806E+03 -0.17891725363E+03  0.21876638936E+03  0.00000000000E+00 0.  1.
         11    1    5    5    0    0 -0.10210211679E+03 -0.50425308416E+03 -0.24804577488E+03  0.57115910356E+03  0.00000000000E+00 0.  1.
        -11    1    5    5    0    0 -0.20063251807E+01 -0.16078194552E+02  0.83786181453E+01  0.18241023074E+02  0.00000000000E+00 0. -1.
          3    1    6    6  503    0 -0.23610867242E+02  0.36006365670E+02  0.11747130428E+03  0.12511370329E+03  0.00000000000E+00 0. -1.
         -3    1    6    6    0  503  0.65583833848E+02  0.13022287333E+03  0.21580633391E+03  0.26044502252E+03  0.00000000000E+00 0.  1.
<mgrwt>
<rscale>  0 0.16062749E+04</rscale>
<asrwt>0</asrwt>
<pdfrwt beam="1">  1        2 0.16948245E+00 0.16062749E+04</pdfrwt>
<pdfrwt beam="2">  1       -1 0.90079990E-01 0.16062749E+04</pdfrwt>
<totfact> 0.28651396E+01</totfact>
</mgrwt>
</event>
<event>
12    6  0.1530720E-007  0.2154649E+04  0.7818608E-02  0.8537545E-01
         -1   -1    0    0    0  501 -0.00000000000E+00  0.00000000000E+00  0.60119319333E+03  0.60119319333E+03  0.00000000000E+00 0.  1.
          2   -1    0    0  501    0  0.00000000000E+00 -0.00000000000E+00 -0.19305417051E+04  0.19305417051E+04  0.00000000000E+00 0. -1.
         24    2    1    2    0    0 -0.31876561293E+03 -0.72925702485E+03 -0.90237704335E+02  0.80534811240E+03  0.83758071719E+02 0.  0.
        254    2    1    2    0    0  0.31876561293E+03  0.72925702485E+03 -0.12391108074E+04  0.17263867860E+04  0.90088202202E+03 0.  0.
         23    2    4    4    0    0  0.31165401396E+03  0.28718042759E+03 -0.11968515983E+04  0.12729021618E+04  0.90693674088E+02 0.  0.
         23    2    4    4    0    0  0.71115989627E+01  0.44207659726E+03 -0.42259209078E+02  0.45348462427E+03  0.91543273991E+02 0.  0.
          4    1    3    3  502    0 -0.36509576643E+02 -0.10177786982E+03  0.15491885833E+02  0.10923224111E+03  0.00000000000E+00 0. -1.
         -3    1    3    3    0  502 -0.28225603628E+03 -0.62747915503E+03 -0.10572959017E+03  0.69611587128E+03  0.00000000000E+00 0.  1.
         11    1    5    5    0    0  0.27099426452E+02  0.29116736129E+02 -0.21362882744E+03  0.21730034319E+03  0.00000000000E+00 0.  1.
        -11    1    5    5    0    0  0.28455458751E+03  0.25806369146E+03 -0.98322277091E+03  0.10556018186E+04  0.00000000000E+00 0. -1.
          4    1    6    6  503    0  0.22273169276E+02  0.32229466063E+03  0.68641451902E+01  0.32313628523E+03  0.00000000000E+00 0. -1.
         -4    1    6    6    0  503 -0.15161570313E+02  0.11978193663E+03 -0.49123354268E+02  0.13034833904E+03  0.00000000000E+00 0.  1.
<mgrwt>
<rscale>  0 0.21546494E+04</rscale>
<asrwt>0</asrwt>
<pdfrwt beam="1">  1        2 0.29700642E+00 0.21546494E+04</pdfrwt>
<pdfrwt beam="2">  1       -1 0.92491259E-01 0.21546494E+04</pdfrwt>
<totfact> 0.86705823E+00</totfact>
</mgrwt>
</event>
<event>
12    6  0.1530720E-007  0.1328740E+04  0.7818608E-02  0.9007079E-01
          2   -1    0    0  501    0  0.00000000000E+00  0.00000000000E+00  0.29524482454E+04  0.29524482454E+04  0.00000000000E+00 0. -1.
         -1   -1    0    0    0  501 -0.00000000000E+00 -0.00000000000E+00 -0.14949884262E+03  0.14949884262E+03  0.00000000000E+00 0.  1.
         24    2    1    2    0    0 -0.17119217303E+03 -0.26783649521E+03  0.10981430514E+04  0.11458189745E+04  0.77070180405E+02 0.  0.
        254    2    1    2    0    0  0.17119217303E+03  0.26783649521E+03  0.17048063513E+04  0.19561281135E+04  0.90500240469E+03 0.  0.
         23    2    4    4    0    0 -0.52266179192E+01  0.53404073300E+03  0.63004707270E+03  0.83116788477E+03  0.93026430748E+02 0.  0.
         23    2    4    4    0    0  0.17641879095E+03 -0.26620423779E+03  0.10747592786E+04  0.11249602287E+04  0.91867965732E+02 0.  0.
          4    1    3    3  502    0 -0.10366586642E+03 -0.12534391232E+03  0.44154903267E+03  0.47055632656E+03  0.00000000000E+00 0. -1.
         -3    1    3    3    0  502 -0.67526306610E+02 -0.14249258289E+03  0.65659401878E+03  0.67526264798E+03  0.00000000000E+00 0.  1.
         11    1    5    5    0    0 -0.23796399630E+02  0.21903601220E+03  0.19846959689E+03  0.29653536748E+03  0.00000000000E+00 0. -1.
        -11    1    5    5    0    0  0.18569781711E+02  0.31500472080E+03  0.43157747581E+03  0.53463251729E+03  0.00000000000E+00 0.  1.
          3    1    6    6  503    0 -0.10800858833E+02 -0.10534860312E+02  0.60328884141E+02  0.62186944731E+02  0.00000000000E+00 0. -1.
         -3    1    6    6    0  503  0.18721964978E+03 -0.25566937748E+03  0.10144303945E+04  0.10627732840E+04  0.00000000000E+00 0.  1.
<mgrwt>
<rscale>  0 0.13287401E+04</rscale>
<asrwt>0</asrwt>
<pdfrwt beam="1">  1        2 0.45422276E+00 0.13287401E+04</pdfrwt>
<pdfrwt beam="2">  1       -1 0.22999824E-01 0.13287401E+04</pdfrwt>
<totfact> 0.33890419E+01</totfact>
</mgrwt>
</event>
<event>
12    6  0.1530720E-007  0.2397296E+04  0.7818608E-02  0.8440517E-01
         -1   -1    0    0    0  501 -0.00000000000E+00  0.00000000000E+00  0.78013456403E+03  0.78013456403E+03  0.00000000000E+00 0.  1.
          2   -1    0    0  501    0  0.00000000000E+00 -0.00000000000E+00 -0.18416785023E+04  0.18416785023E+04  0.00000000000E+00 0. -1.
         24    2    1    2    0    0 -0.35502436759E+03  0.14456159239E+03 -0.15252389589E+04  0.15747052393E+04  0.80014707145E+02 0.  0.
        254    2    1    2    0    0  0.35502436759E+03 -0.14456159239E+03  0.46369502056E+03  0.10471078271E+04  0.85701888770E+03 0.  0.
         23    2    4    4    0    0  0.77983098967E+01 -0.26055696239E+03  0.58760692322E+03  0.64906704592E+03  0.89751822280E+02 0.  0.
         23    2    4    4    0    0  0.34722605769E+03  0.11599537000E+03 -0.12391190265E+03  0.39804078116E+03  0.95191611240E+02 0.  0.
          2    1    3    3  502    0 -0.12595554568E+03  0.90209004593E+02 -0.66745727764E+03  0.68520192752E+03  0.00000000000E+00 0. -1.
         -1    1    3    3    0  502 -0.22906882191E+03  0.54352587798E+02 -0.85778168123E+03  0.88950331175E+03  0.00000000000E+00 0.  1.
         11    1    5    5    0    0  0.46548172179E+02 -0.18512287345E+03  0.40571992222E+03  0.44838138442E+03  0.00000000000E+00 0.  1.
        -11    1    5    5    0    0 -0.38749862283E+02 -0.75434088940E+02  0.18188700099E+03  0.20068566150E+03  0.00000000000E+00 0. -1.
          4    1    6    6  503    0  0.13939400077E+03  0.23853731866E+01 -0.26377591408E+02  0.14188782466E+03  0.00000000000E+00 0. -1.
         -4    1    6    6    0  503  0.20783205692E+03  0.11360999682E+03 -0.97534311246E+02  0.25615295651E+03  0.00000000000E+00 0.  1.
<mgrwt>
<rscale>  0 0.23972960E+04</rscale>
<asrwt>0</asrwt>
<pdfrwt beam="1">  1        2 0.28333515E+00 0.23972960E+04</pdfrwt>
<pdfrwt beam="2">  1       -1 0.12002070E+00 0.23972960E+04</pdfrwt>
<totfact> 0.51830830E+00</totfact>
</mgrwt>
</event>
<event>
12    6  0.1530720E-007  0.2257321E+04  0.7818608E-02  0.8494941E-01
         -1   -1    0    0    0  501 -0.00000000000E+00  0.00000000000E+00  0.89840377500E+03  0.89840377500E+03  0.00000000000E+00 0.  1.
          2   -1    0    0  501    0  0.00000000000E+00 -0.00000000000E+00 -0.14179313346E+04  0.14179313346E+04  0.00000000000E+00 0. -1.
         24    2    1    2    0    0 -0.71709554079E+03  0.50302242318E+03  0.15105388245E+03  0.89217447739E+03  0.76814385801E+02 0.  0.
        254    2    1    2    0    0  0.71709554079E+03 -0.50302242318E+03 -0.67058144203E+03  0.14241606322E+04  0.90071996928E+03 0.  0.
         23    2    4    4    0    0  0.18642645625E+03 -0.66006766167E+03 -0.31363832467E+03  0.75936833625E+03  0.88471067697E+02 0.  0.
         23    2    4    4    0    0  0.53066908454E+03  0.15704523850E+03 -0.35694311736E+03  0.66479229595E+03  0.90925923140E+02 0.  0.
          4    1    3    3  502    0 -0.19342160490E+03  0.17106969596E+03  0.24587471689E+02  0.25938639494E+03  0.00000000000E+00 0. -1.
         -3    1    3    3    0  502 -0.52367393589E+03  0.33195272722E+03  0.12646641076E+03  0.63278808244E+03  0.00000000000E+00 0.  1.
         11    1    5    5    0    0  0.75936853830E+02 -0.31246244888E+03 -0.19379947644E+03  0.37544297144E+03  0.00000000000E+00 0.  1.
        -11    1    5    5    0    0  0.11048960242E+03 -0.34760521279E+03 -0.11983884822E+03  0.38392536481E+03  0.00000000000E+00 0. -1.
          3    1    6    6  503    0  0.35129429021E+03  0.12632966947E+03 -0.28254523143E+03  0.46818657769E+03  0.00000000000E+00 0. -1.
         -3    1    6    6    0  503  0.17937479433E+03  0.30715569026E+02 -0.74397885930E+02  0.19660571826E+03  0.00000000000E+00 0.  1.
<mgrwt>
<rscale>  0 0.22573213E+04</rscale>
<asrwt>0</asrwt>
<pdfrwt beam="1">  1        2 0.21814328E+00 0.22573213E+04</pdfrwt>
<pdfrwt beam="2">  1       -1 0.13821597E+00 0.22573213E+04</pdfrwt>
<totfact> 0.63500962E+00</totfact>
</mgrwt>
</event>
<event>
12    6  0.1530720E-007  0.1055987E+04  0.7818608E-02  0.9249185E-01
          2   -1    0    0  501    0  0.00000000000E+00  0.00000000000E+00  0.49641611491E+03  0.49641611491E+03  0.00000000000E+00 0. -1.
         -1   -1    0    0    0  501 -0.00000000000E+00 -0.00000000000E+00 -0.56157915617E+03  0.56157915617E+03  0.00000000000E+00 0.  1.
         24    2    1    2    0    0 -0.10300977109E+02  0.10385742128E+03 -0.84811862180E+02  0.15714777934E+03  0.81301282283E+02 0.  0.
        254    2    1    2    0    0  0.10300977109E+02 -0.10385742128E+03  0.19648820921E+02  0.90084749173E+03  0.89456562258E+03 0.  0.
         23    2    4    4    0    0  0.66837573322E+02  0.38065249969E+03 -0.44471353707E+02  0.40045569785E+03  0.94991988664E+02 0.  0.
         23    2    4    4    0    0 -0.56536596213E+02 -0.48450992098E+03  0.64120174628E+02  0.50039179388E+03  0.91292389320E+02 0.  0.
          2    1    3    3  502    0 -0.28501930547E+02  0.33829646858E+01 -0.93739275007E+01  0.30193956544E+02  0.00000000000E+00 0. -1.
         -3    1    3    3    0  502  0.18200953438E+02  0.10047445660E+03 -0.75437934680E+02  0.12695382280E+03  0.00000000000E+00 0.  1.
         11    1    5    5    0    0 -0.16288497157E+02  0.17949515350E+03 -0.15910201186E+02  0.18093357834E+03  0.00000000000E+00 0. -1.
        -11    1    5    5    0    0  0.83126070478E+02  0.20115734620E+03 -0.28561152521E+02  0.21952211951E+03  0.00000000000E+00 0.  1.
          4    1    6    6  503    0 -0.37768873320E+02 -0.33165300095E+03  0.58825200267E+00  0.33379716427E+03  0.00000000000E+00 0.  1.
         -4    1    6    6    0  503 -0.18767722893E+02 -0.15285692003E+03  0.63531922625E+02  0.16659462961E+03  0.00000000000E+00 0. -1.
<mgrwt>
<rscale>  0 0.10559866E+04</rscale>
<asrwt>0</asrwt>
<pdfrwt beam="1">  1        2 0.76371711E-01 0.10559866E+04</pdfrwt>
<pdfrwt beam="2">  1       -1 0.86396793E-01 0.10559866E+04</pdfrwt>
<totfact> 0.93462357E+01</totfact>
</mgrwt>
</event>
<event>
12    6  0.1530720E-007  0.1713045E+04  0.7818608E-02  0.8753959E-01
          2   -1    0    0  501    0  0.00000000000E+00  0.00000000000E+00  0.75622344865E+03  0.75622344865E+03  0.00000000000E+00 0. -1.
         -1   -1    0    0    0  501 -0.00000000000E+00 -0.00000000000E+00 -0.97012424085E+03  0.97012424085E+03  0.00000000000E+00 0.  1.
         24    2    1    2    0    0  0.32040007748E+03 -0.49933014526E+03  0.78389081342E+02  0.60378035034E+03  0.80119034970E+02 0.  0.
        254    2    1    2    0    0 -0.32040007748E+03  0.49933014526E+03 -0.29228987355E+03  0.11225673392E+04  0.90704865204E+03 0.  0.
         23    2    4    4    0    0 -0.62374599823E+03  0.24853510342E+03 -0.14852088366E+03  0.69399630674E+03  0.93507502026E+02 0.  0.
         23    2    4    4    0    0  0.30334592075E+03  0.25079504184E+03 -0.14376898989E+03  0.42857103243E+03  0.89926118233E+02 0.  0.
          2    1    3    3  502    0  0.22338357722E+03 -0.39878464688E+03  0.39732359607E+02  0.45881159266E+03  0.00000000000E+00 0. -1.
         -1    1    3    3    0  502  0.97016500258E+02 -0.10054549838E+03  0.38656721735E+02  0.14496875767E+03  0.00000000000E+00 0.  1.
         11    1    5    5    0    0 -0.43478999596E+03  0.21759695254E+03 -0.98127711743E+02  0.49600385296E+03  0.00000000000E+00 0. -1.
        -11    1    5    5    0    0 -0.18895600227E+03  0.30938150880E+02 -0.50393171921E+02  0.19799245377E+03  0.00000000000E+00 0.  1.
          1    1    6    6  503    0  0.22201802036E+03  0.12931812979E+03 -0.80202319527E+02  0.26916090376E+03  0.00000000000E+00 0. -1.
         -1    1    6    6    0  503  0.81327900396E+02  0.12147691204E+03 -0.63566670358E+02  0.15941012867E+03  0.00000000000E+00 0.  1.
<mgrwt>
<rscale>  0 0.17130449E+04</rscale>
<asrwt>0</asrwt>
<pdfrwt beam="1">  1        2 0.11634207E+00 0.17130449E+04</pdfrwt>
<pdfrwt beam="2">  1       -1 0.14924988E+00 0.17130449E+04</pdfrwt>
<totfact> 0.14240362E+01</totfact>
</mgrwt>
</event>
<event>
12    6  0.1530720E-007  0.1993350E+04  0.7818608E-02  0.8609736E-01
          2   -1    0    0  501    0  0.00000000000E+00  0.00000000000E+00  0.96073298261E+03  0.96073298261E+03  0.00000000000E+00 0. -1.
         -1   -1    0    0    0  501 -0.00000000000E+00 -0.00000000000E+00 -0.10339613252E+04  0.10339613252E+04  0.00000000000E+00 0.  1.
         24    2    1    2    0    0  0.49618875532E+03  0.21956533611E+03 -0.60518501113E+03  0.81686858267E+03  0.81321374358E+02 0.  0.
        254    2    1    2    0    0 -0.49618875532E+03 -0.21956533611E+03  0.53195666849E+03  0.11778257252E+04  0.89993517768E+03 0.  0.
         23    2    4    4    0    0  0.24219181537E+03 -0.73405449255E+02  0.25391139104E+03  0.37016243427E+03  0.92217123313E+02 0.  0.
         23    2    4    4    0    0 -0.73838057069E+03 -0.14615988685E+03  0.27804527745E+03  0.80766329092E+03  0.91881638439E+02 0.  0.
          2    1    3    3  502    0  0.25423934656E+03  0.14132986154E+03 -0.27673686978E+03  0.40149105868E+03  0.00000000000E+00 0. -1.
         -1    1    3    3    0  502  0.24194940876E+03  0.78235474568E+02 -0.32844814135E+03  0.41537752399E+03  0.00000000000E+00 0.  1.
         11    1    5    5    0    0  0.19557393203E+03 -0.80735109997E+02  0.24207838079E+03  0.32151090701E+03  0.00000000000E+00 0.  1.
        -11    1    5    5    0    0  0.46617883338E+02  0.73296607424E+01  0.11833010246E+02  0.48651527263E+02  0.00000000000E+00 0. -1.
          4    1    6    6  503    0 -0.61083768854E+03 -0.14446525148E+03  0.20313968119E+03  0.65974132863E+03  0.00000000000E+00 0.  1.
         -4    1    6    6    0  503 -0.12754288215E+03 -0.16946353795E+01  0.74905596259E+02  0.14792196229E+03  0.00000000000E+00 0. -1.
<mgrwt>
<rscale>  0 0.19933497E+04</rscale>
<asrwt>0</asrwt>
<pdfrwt beam="1">  1        2 0.14780508E+00 0.19933497E+04</pdfrwt>
<pdfrwt beam="2">  1       -1 0.15907097E+00 0.19933497E+04</pdfrwt>
<totfact> 0.84142001E+00</totfact>
</mgrwt>
</event>
<event>
12    6  0.1530720E-007  0.1664111E+04  0.7818608E-02  0.8782102E-01
         -1   -1    0    0    0  501 -0.00000000000E+00  0.00000000000E+00  0.55460255311E+03  0.55460255311E+03  0.00000000000E+00 0.  1.
          2   -1    0    0  501    0  0.00000000000E+00 -0.00000000000E+00 -0.12483105417E+04  0.12483105417E+04  0.00000000000E+00 0. -1.
         24    2    1    2    0    0  0.18285227086E+03  0.47803169118E+03  0.97220728883E+02  0.52595271227E+03  0.72285093132E+02 0.  0.
        254    2    1    2    0    0 -0.18285227086E+03 -0.47803169118E+03 -0.79092871749E+03  0.12769603826E+04  0.86203847463E+03 0.  0.
         23    2    4    4    0    0 -0.20532914852E+03  0.13940655869E+03  0.58285205643E+01  0.26466228596E+03  0.91749147790E+02 0.  0.
         23    2    4    4    0    0  0.22476877660E+02 -0.61743824987E+03 -0.79675723806E+03  0.10122980966E+04  0.90499378796E+02 0.  0.
          4    1    3    3  502    0  0.70534428718E+02  0.15186584314E+03 -0.38515219478E+00  0.16744697158E+03  0.00000000000E+00 0. -1.
         -3    1    3    3    0  502  0.11231784214E+03  0.32616584804E+03  0.97605881078E+02  0.35850574069E+03  0.00000000000E+00 0.  1.
         11    1    5    5    0    0 -0.58911399727E+02  0.95810970017E+01  0.31184148196E+02  0.67340935071E+02  0.00000000000E+00 0. -1.
        -11    1    5    5    0    0 -0.14641774879E+03  0.12982546169E+03 -0.25355627632E+02  0.19732135089E+03  0.00000000000E+00 0.  1.
          3    1    6    6  503    0  0.15019408729E+02 -0.15729893966E+03 -0.26990486800E+03  0.31275737694E+03  0.00000000000E+00 0. -1.
         -3    1    6    6    0  503  0.74574689317E+01 -0.46013931020E+03 -0.52685237005E+03  0.69954071967E+03  0.00000000000E+00 0.  1.
<mgrwt>
<rscale>  0 0.16641108E+04</rscale>
<asrwt>0</asrwt>
<pdfrwt beam="1">  1        2 0.19204777E+00 0.16641108E+04</pdfrwt>
<pdfrwt beam="2">  1       -1 0.85323472E-01 0.16641108E+04</pdfrwt>
<totfact> 0.26191511E+01</totfact>
</mgrwt>
</event>
<event>
12    6  0.1530720E-007  0.1067491E+04  0.7818608E-02  0.9237470E-01
         -1   -1    0    0    0  501 -0.00000000000E+00  0.00000000000E+00  0.46400817947E+03  0.46400817947E+03  0.00000000000E+00 0.  1.
          2   -1    0    0  501    0  0.00000000000E+00 -0.00000000000E+00 -0.61396373512E+03  0.61396373512E+03  0.00000000000E+00 0. -1.
         24    2    1    2    0    0  0.19394565083E+02 -0.21672550247E+02  0.98260418465E+02  0.12966972575E+03  0.79456147338E+02 0.  0.
        254    2    1    2    0    0 -0.19394565083E+02  0.21672550247E+02 -0.24821597412E+03  0.94830218885E+03  0.91477867431E+03 0.  0.
         23    2    4    4    0    0  0.68186581644E+02  0.45102232039E+03 -0.92245474226E+02  0.47450534429E+03  0.92604270104E+02 0.  0.
         23    2    4    4    0    0 -0.87581146727E+02 -0.42934977014E+03 -0.15597049989E+03  0.47379684456E+03  0.90249491377E+02 0.  0.
          4    1    3    3  502    0  0.34765175824E+02  0.18495935878E+01  0.88127711205E+01  0.35912440482E+02  0.00000000000E+00 0. -1.
         -3    1    3    3    0  502 -0.15370610741E+02 -0.23522143834E+02  0.89447647344E+02  0.93757285266E+02  0.00000000000E+00 0.  1.
         11    1    5    5    0    0 -0.21779818165E+02  0.13983356771E+03 -0.27796454810E+02  0.14422354190E+03  0.00000000000E+00 0.  1.
        -11    1    5    5    0    0  0.89966399809E+02  0.31118875267E+03 -0.64449019416E+02  0.33028180239E+03  0.00000000000E+00 0. -1.
          4    1    6    6  503    0 -0.10191962831E+03 -0.37817523191E+03 -0.15324804681E+03  0.42058183569E+03  0.00000000000E+00 0. -1.
         -4    1    6    6    0  503  0.14338481586E+02 -0.51174538231E+02 -0.27224530800E+01  0.53215008862E+02  0.00000000000E+00 0.  1.
<mgrwt>
<rscale>  0 0.10674909E+04</rscale>
<asrwt>0</asrwt>
<pdfrwt beam="1">  1        2 0.94455960E-01 0.10674909E+04</pdfrwt>
<pdfrwt beam="2">  1       -1 0.71385873E-01 0.10674909E+04</pdfrwt>
<totfact> 0.10866771E+02</totfact>
</mgrwt>
</event>
<event>
12    6  0.1530720E-007  0.1298894E+04  0.7818608E-02  0.9030443E-01
         -1   -1    0    0    0  501 -0.00000000000E+00  0.00000000000E+00  0.10159137522E+04  0.10159137522E+04  0.00000000000E+00 0.  1.
          2   -1    0    0  501    0  0.00000000000E+00 -0.00000000000E+00 -0.41517443535E+03  0.41517443535E+03  0.00000000000E+00 0. -1.
         24    2    1    2    0    0 -0.66832564939E+02  0.11160200241E+03 -0.17592335860E+03  0.23284261235E+03  0.79655855686E+02 0.  0.
        254    2    1    2    0    0  0.66832564939E+02 -0.11160200241E+03  0.77666267541E+03  0.11982455752E+04  0.90314226364E+03 0.  0.
         23    2    4    4    0    0 -0.19445434183E+03  0.27095813594E+03  0.60527165659E+03  0.69613085285E+03  0.83747140427E+02 0.  0.
         23    2    4    4    0    0  0.26128690677E+03 -0.38256013835E+03  0.17139101882E+03  0.50211472233E+03  0.90117733760E+02 0.  0.
          4    1    3    3  502    0 -0.53090633766E+02  0.12278882544E+03 -0.14562541089E+03  0.19774344829E+03  0.00000000000E+00 0. -1.
         -3    1    3    3    0  502 -0.13741931173E+02 -0.11186823027E+02 -0.30297947709E+02  0.35099164052E+02  0.00000000000E+00 0.  1.
         11    1    5    5    0    0 -0.70061609066E+02  0.49432157206E+02  0.20275533865E+03  0.22014062456E+03  0.00000000000E+00 0. -1.
        -11    1    5    5    0    0 -0.12439273277E+03  0.22152597873E+03  0.40251631793E+03  0.47599022828E+03  0.00000000000E+00 0.  1.
          4    1    6    6  503    0  0.50247172381E+02 -0.35827767551E+02  0.47008785780E+02  0.77577272448E+02  0.00000000000E+00 0. -1.
         -4    1    6    6    0  503  0.21103973439E+03 -0.34673237080E+03  0.12438223304E+03  0.42453744988E+03  0.00000000000E+00 0.  1.
<mgrwt>
<rscale>  0 0.12988940E+04</rscale>
<asrwt>0</asrwt>
<pdfrwt beam="1">  1        2 0.63872990E-01 0.12988940E+04</pdfrwt>
<pdfrwt beam="2">  1       -1 0.15629442E+00 0.12988940E+04</pdfrwt>
<totfact> 0.26671107E+01</totfact>
</mgrwt>
</event>
<event>
12    6  0.1530720E-007  0.1566845E+04  0.7818608E-02  0.8841179E-01
          2   -1    0    0  501    0  0.00000000000E+00  0.00000000000E+00  0.14177554412E+04  0.14177554412E+04  0.00000000000E+00 0. -1.
         -1   -1    0    0    0  501 -0.00000000000E+00 -0.00000000000E+00 -0.43290314875E+03  0.43290314875E+03  0.00000000000E+00 0.  1.
         24    2    1    2    0    0  0.20728269591E+03 -0.19370590589E+03  0.83960126458E+03  0.88989715297E+03  0.80613679884E+02 0.  0.
        254    2    1    2    0    0 -0.20728269591E+03  0.19370590589E+03  0.14525102789E+03  0.96076143700E+03  0.90635345408E+03 0.  0.
         23    2    4    4    0    0  0.30813275562E+03  0.26162171924E+03  0.30117408337E+01  0.41410800467E+03  0.89914681137E+02 0.  0.
         23    2    4    4    0    0 -0.51541545152E+03 -0.67915813356E+02  0.14223928706E+03  0.54665343233E+03  0.91281514689E+02 0.  0.
          2    1    3    3  502    0  0.17717939521E+03 -0.15531026374E+03  0.58503974324E+03  0.63070224138E+03  0.00000000000E+00 0. -1.
         -1    1    3    3    0  502  0.30103300695E+02 -0.38395642150E+02  0.25456152133E+03  0.25919491159E+03  0.00000000000E+00 0.  1.
         11    1    5    5    0    0  0.30444132520E+03  0.22822687403E+03  0.19969588114E+01  0.38049443408E+03  0.00000000000E+00 0.  1.
        -11    1    5    5    0    0  0.36914304146E+01  0.33394845211E+02  0.10147820223E+01  0.33613570588E+02  0.00000000000E+00 0. -1.
          3    1    6    6  503    0 -0.14993009496E+02  0.24830838942E+01  0.22766523648E+02  0.27372808376E+02  0.00000000000E+00 0. -1.
         -3    1    6    6    0  503 -0.50042244203E+03 -0.70398897251E+02  0.11947276341E+03  0.51928062395E+03  0.00000000000E+00 0.  1.
<mgrwt>
<rscale>  0 0.15668450E+04</rscale>
<asrwt>0</asrwt>
<pdfrwt beam="1">  1        2 0.21811622E+00 0.15668450E+04</pdfrwt>
<pdfrwt beam="2">  1       -1 0.66600485E-01 0.15668450E+04</pdfrwt>
<totfact> 0.35378601E+01</totfact>
</mgrwt>
</event>
<event>
12    6  0.1530720E-007  0.1177537E+04  0.7818608E-02  0.9132748E-01
          2   -1    0    0  501    0  0.00000000000E+00  0.00000000000E+00  0.36944835103E+03  0.36944835103E+03  0.00000000000E+00 0. -1.
         -1   -1    0    0    0  501 -0.00000000000E+00 -0.00000000000E+00 -0.93828686354E+03  0.93828686354E+03  0.00000000000E+00 0.  1.
         24    2    1    2    0    0 -0.22954786760E+03 -0.38421514740E+02 -0.11052417472E+03  0.26967370443E+03  0.79623346768E+02 0.  0.
        254    2    1    2    0    0  0.22954786760E+03  0.38421514740E+02 -0.45831433778E+03  0.10380615101E+04  0.90185987287E+03 0.  0.
         23    2    4    4    0    0 -0.84871607784E+02  0.25353650707E+03 -0.56493923724E+03  0.63168020319E+03  0.91540084664E+02 0.  0.
         23    2    4    4    0    0  0.31441947538E+03 -0.21511499233E+03  0.10662489946E+03  0.40638130695E+03  0.92966827593E+02 0.  0.
          2    1    3    3  502    0 -0.16576593132E+03 -0.62515610518E+01 -0.10848693879E+03  0.19820908629E+03  0.00000000000E+00 0. -1.
         -1    1    3    3    0  502 -0.63781936279E+02 -0.32169953689E+02 -0.20372359388E+01  0.71464618141E+02  0.00000000000E+00 0.  1.
         11    1    5    5    0    0  0.53330791031E+01  0.59554497896E+02 -0.19908120826E+03  0.20786656161E+03  0.00000000000E+00 0. -1.
        -11    1    5    5    0    0 -0.90204686887E+02  0.19398200917E+03 -0.36585802898E+03  0.42381364158E+03  0.00000000000E+00 0.  1.
          2    1    6    6  503    0  0.83991104531E+02 -0.39361297202E+02  0.65777566946E+02  0.11371238134E+03  0.00000000000E+00 0. -1.
         -2    1    6    6    0  503  0.23042837085E+03 -0.17575369512E+03  0.40847332511E+02  0.29266892561E+03  0.00000000000E+00 0.  1.
<mgrwt>
<rscale>  0 0.11775373E+04</rscale>
<asrwt>0</asrwt>
<pdfrwt beam="1">  1        2 0.56838208E-01 0.11775373E+04</pdfrwt>
<pdfrwt beam="2">  1       -1 0.14435182E+00 0.11775373E+04</pdfrwt>
<totfact> 0.38048040E+01</totfact>
</mgrwt>
</event>
<event>
12    6  0.1530720E-007  0.2371945E+04  0.7818608E-02  0.8450082E-01
          2   -1    0    0  501    0  0.00000000000E+00  0.00000000000E+00  0.20682481332E+04  0.20682481332E+04  0.00000000000E+00 0. -1.
         -1   -1    0    0    0  501 -0.00000000000E+00 -0.00000000000E+00 -0.68005904579E+03  0.68005904579E+03  0.00000000000E+00 0.  1.
         24    2    1    2    0    0 -0.77765534188E+03  0.75646702531E+02  0.13643127792E+04  0.15742193448E+04  0.79667631372E+02 0.  0.
        254    2    1    2    0    0  0.77765534188E+03 -0.75646702531E+02  0.23876308170E+02  0.11740878342E+04  0.87603761905E+03 0.  0.
         23    2    4    4    0    0 -0.13513865033E+03 -0.16707416873E+03  0.88103203693E+02  0.24995253538E+03  0.92400556133E+02 0.  0.
         23    2    4    4    0    0  0.91279399221E+03  0.91427466198E+02 -0.64226895523E+02  0.92413529883E+03  0.91373424151E+02 0.  0.
          2    1    3    3  502    0 -0.53649750419E+03  0.42219440986E+02  0.10081763229E+04  0.11428173744E+04  0.00000000000E+00 0. -1.
         -1    1    3    3    0  502 -0.24115783769E+03  0.33427261545E+02  0.35613645633E+03  0.43140197035E+03  0.00000000000E+00 0.  1.
         11    1    5    5    0    0 -0.63011699470E+02 -0.13978518430E+03  0.78448052405E+02  0.17223376250E+03  0.00000000000E+00 0. -1.
        -11    1    5    5    0    0 -0.72126950859E+02 -0.27288984430E+02  0.96551512876E+01  0.77718772879E+02  0.00000000000E+00 0.  1.
          2    1    6    6  503    0  0.82197868017E+03  0.93142049552E+02 -0.82972291564E+02  0.83138967591E+03  0.00000000000E+00 0. -1.
         -2    1    6    6    0  503  0.90815312041E+02 -0.17145833539E+01  0.18745396041E+02  0.92745622915E+02  0.00000000000E+00 0.  1.
<mgrwt>
<rscale>  0 0.23719451E+04</rscale>
<asrwt>0</asrwt>
<pdfrwt beam="1">  1        2 0.31819202E+00 0.23719451E+04</pdfrwt>
<pdfrwt beam="2">  1       -1 0.10462447E+00 0.23719451E+04</pdfrwt>
<totfact> 0.53889066E+00</totfact>
</mgrwt>
</event>
<event>
12    6  0.1530720E-007  0.1706490E+04  0.7818608E-02  0.8757672E-01
         -1   -1    0    0    0  501 -0.00000000000E+00  0.00000000000E+00  0.54148796523E+03  0.54148796523E+03  0.00000000000E+00 0.  1.
          2   -1    0    0  501    0  0.00000000000E+00 -0.00000000000E+00 -0.13444933586E+04  0.13444933586E+04  0.00000000000E+00 0. -1.
         24    2    1    2    0    0 -0.16615000743E+03  0.58469764822E+03 -0.42600884282E+03  0.74451364840E+03  0.57791640318E+02 0.  0.
        254    2    1    2    0    0  0.16615000743E+03 -0.58469764822E+03 -0.37699655056E+03  0.11414676755E+04  0.88957567985E+03 0.  0.
         23    2    4    4    0    0 -0.22185677244E+03 -0.84660709974E+02 -0.43011433559E+03  0.49988834733E+03  0.92207130015E+02 0.  0.
         23    2    4    4    0    0  0.38800677987E+03 -0.50003693824E+03  0.53117785023E+02  0.64157932813E+03  0.90643997963E+02 0.  0.
          4    1    3    3  502    0 -0.10167120292E+03  0.32582729787E+03 -0.27221047986E+03  0.43657646167E+03  0.00000000000E+00 0. -1.
         -3    1    3    3    0  502 -0.64478804506E+02  0.25887035034E+03 -0.15379836296E+03  0.30793718673E+03  0.00000000000E+00 0.  1.
         11    1    5    5    0    0 -0.36676218537E+02  0.13997515089E+02 -0.35351914816E+02  0.52828338191E+02  0.00000000000E+00 0. -1.
        -11    1    5    5    0    0 -0.18518055390E+03 -0.98658225063E+02 -0.39476242077E+03  0.44706000914E+03  0.00000000000E+00 0.  1.
          2    1    6    6  503    0  0.12720247608E+03 -0.20802099953E+03 -0.14486089194E+02  0.24426021565E+03  0.00000000000E+00 0. -1.
         -2    1    6    6    0  503  0.26080430378E+03 -0.29201593871E+03  0.67603874218E+02  0.39731911248E+03  0.00000000000E+00 0.  1.
<mgrwt>
<rscale>  0 0.17064899E+04</rscale>
<asrwt>0</asrwt>
<pdfrwt beam="1">  1        2 0.20684513E+00 0.17064899E+04</pdfrwt>
<pdfrwt beam="2">  1       -1 0.83305842E-01 0.17064899E+04</pdfrwt>
<totfact> 0.24149121E+01</totfact>
</mgrwt>
</event>
<event>
12    6  0.1530720E-007  0.2230033E+04  0.7818608E-02  0.8506031E-01
          2   -1    0    0  501    0  0.00000000000E+00  0.00000000000E+00  0.15655674792E+04  0.15655674792E+04  0.00000000000E+00 0. -1.
         -3   -1    0    0    0  501 -0.00000000000E+00 -0.00000000000E+00 -0.79412819691E+03  0.79412819691E+03  0.00000000000E+00 0.  1.
         24    2    1    2    0    0  0.34926312438E+00  0.92180083513E+03  0.44191182612E+03  0.10254833486E+04  0.81321181864E+02 0.  0.
        254    2    1    2    0    0 -0.34926312438E+00 -0.92180083513E+03  0.32952745613E+03  0.13342123274E+04  0.90654138830E+03 0.  0.
         23    2    4    4    0    0  0.74162071872E+02  0.14141762866E+02 -0.21426982644E+03  0.24529801599E+03  0.92517867258E+02 0.  0.
         23    2    4    4    0    0 -0.74511334996E+02 -0.93594259800E+03  0.54379728257E+03  0.10889143114E+04  0.92078267579E+02 0.  0.
          4    1    3    3  502    0  0.66797684884E+01  0.91596640906E+03  0.44156549416E+03  0.10168673303E+04  0.00000000000E+00 0. -1.
         -3    1    3    3    0  502 -0.63305053640E+01  0.58344260735E+01  0.34633195832E+00  0.86160183145E+01  0.00000000000E+00 0.  1.
         11    1    5    5    0    0  0.33382740904E+02  0.62582986301E+01 -0.19767424273E+03  0.20057088506E+03  0.00000000000E+00 0.  1.
        -11    1    5    5    0    0  0.40779330968E+02  0.78834642361E+01 -0.16595583708E+02  0.44727130929E+02  0.00000000000E+00 0. -1.
          3    1    6    6  503    0  0.17102698262E+02 -0.53670173641E+02  0.35476556369E+02  0.66570082457E+02  0.00000000000E+00 0. -1.
         -3    1    6    6    0  503 -0.91614033258E+02 -0.88227242436E+03  0.50832072620E+03  0.10223442290E+04  0.00000000000E+00 0.  1.
<mgrwt>
<rscale>  0 0.22300325E+04</rscale>
<asrwt>0</asrwt>
<pdfrwt beam="1">  1        2 0.24085654E+00 0.22300325E+04</pdfrwt>
<pdfrwt beam="2">  1       -3 0.12217357E+00 0.22300325E+04</pdfrwt>
<totfact> 0.36540728E+00</totfact>
</mgrwt>
</event>
<event>
12    6  0.1530720E-007  0.1371430E+04  0.7818608E-02  0.8974762E-01
          2   -1    0    0  501    0  0.00000000000E+00  0.00000000000E+00  0.12470612756E+04  0.12470612756E+04  0.00000000000E+00 0. -1.
         -1   -1    0    0    0  501 -0.00000000000E+00 -0.00000000000E+00 -0.37705075701E+03  0.37705075701E+03  0.00000000000E+00 0.  1.
         24    2    1    2    0    0  0.30937044431E+03 -0.77137811901E+02 -0.16927471137E+01  0.32815579594E+03  0.77608293232E+02 0.  0.
        254    2    1    2    0    0 -0.30937044431E+03  0.77137811901E+02  0.87170326571E+03  0.12959562367E+04  0.90442007392E+03 0.  0.
         23    2    4    4    0    0 -0.25084452399E+03  0.29911151129E+03  0.95318261839E+03  0.10338655592E+04  0.89051777256E+02 0.  0.
         23    2    4    4    0    0 -0.58525920314E+02 -0.22197369939E+03 -0.81479352678E+02  0.26209067751E+03  0.96721413133E+02 0.  0.
          2    1    3    3  502    0  0.58230597518E+01 -0.14905884888E+02  0.85138730935E+01  0.18126760996E+02  0.00000000000E+00 0. -1.
         -1    1    3    3    0  502  0.30354738455E+03 -0.62231927014E+02 -0.10206620207E+02  0.31002903494E+03  0.00000000000E+00 0.  1.
         11    1    5    5    0    0 -0.23535608630E+03  0.29914184805E+03  0.93750668837E+03  0.10118286037E+04  0.00000000000E+00 0. -1.
        -11    1    5    5    0    0 -0.15488437692E+02 -0.30336762821E-01  0.15675930022E+02  0.22036955428E+02  0.00000000000E+00 0.  1.
          3    1    6    6  503    0 -0.67829524996E+02 -0.11058584713E+03 -0.11553051584E+02  0.13024418239E+03  0.00000000000E+00 0. -1.
         -3    1    6    6    0  503  0.93036046817E+01 -0.11138785226E+03 -0.69926301094E+02  0.13184649512E+03  0.00000000000E+00 0.  1.
<mgrwt>
<rscale>  0 0.13714305E+04</rscale>
<asrwt>0</asrwt>
<pdfrwt beam="1">  1        2 0.19185558E+00 0.13714305E+04</pdfrwt>
<pdfrwt beam="2">  1       -1 0.58007809E-01 0.13714305E+04</pdfrwt>
<totfact> 0.59445273E+01</totfact>
</mgrwt>
</event>
<event>
12    6  0.1530720E-007  0.2003577E+04  0.7818608E-02  0.8604950E-01
          2   -1    0    0  501    0  0.00000000000E+00  0.00000000000E+00  0.48980337609E+03  0.48980337609E+03  0.00000000000E+00 0. -1.
         -1   -1    0    0    0  501 -0.00000000000E+00 -0.00000000000E+00 -0.20489456768E+04  0.20489456768E+04  0.00000000000E+00 0.  1.
         24    2    1    2    0    0 -0.75250098902E+03  0.25957933864E+03 -0.62890994857E+03  0.10175600556E+04  0.79130094589E+02 0.  0.
        254    2    1    2    0    0  0.75250098902E+03 -0.25957933864E+03 -0.93023235211E+03  0.15211889972E+04  0.90279818614E+03 0.  0.
         23    2    4    4    0    0 -0.17105290618E+03 -0.14471482328E+03 -0.78809056184E+02  0.25660270066E+03  0.97121582853E+02 0.  0.
         23    2    4    4    0    0  0.92355389520E+03 -0.11486451536E+03 -0.85142329593E+03  0.12645862966E+04  0.90062303113E+02 0.  0.
          2    1    3    3  502    0 -0.12283219461E+03  0.70394427806E+02 -0.13020595070E+03  0.19234529653E+03  0.00000000000E+00 0. -1.
         -1    1    3    3    0  502 -0.62966879441E+03  0.18918491084E+03 -0.49870399787E+03  0.82521475910E+03  0.00000000000E+00 0.  1.
         11    1    5    5    0    0 -0.13388785923E+03 -0.14324129326E+03 -0.35062768729E+02  0.19918188847E+03  0.00000000000E+00 0. -1.
        -11    1    5    5    0    0 -0.37165046951E+02 -0.14735300221E+01 -0.43746287455E+02  0.57420812183E+02  0.00000000000E+00 0.  1.
          4    1    6    6  503    0  0.87700688073E+03 -0.89325780885E+02 -0.81110763631E+03  0.11979214338E+04  0.00000000000E+00 0. -1.
         -4    1    6    6    0  503  0.46547014471E+02 -0.25538734472E+02 -0.40315659622E+02  0.66664862749E+02  0.00000000000E+00 0.  1.
<mgrwt>
<rscale>  0 0.20035773E+04</rscale>
<asrwt>0</asrwt>
<pdfrwt beam="1">  1        2 0.75354366E-01 0.20035773E+04</pdfrwt>
<pdfrwt beam="2">  1       -1 0.31522241E+00 0.20035773E+04</pdfrwt>
<totfact> 0.17615106E+00</totfact>
</mgrwt>
</event>
<event>
12    6  0.1530720E-007  0.1572249E+04  0.7818608E-02  0.8837780E-01
         -1   -1    0    0    0  501 -0.00000000000E+00  0.00000000000E+00  0.28493260328E+03  0.28493260328E+03  0.00000000000E+00 0.  1.
          2   -1    0    0  501    0  0.00000000000E+00 -0.00000000000E+00 -0.21689050170E+04  0.21689050170E+04  0.00000000000E+00 0. -1.
         24    2    1    2    0    0  0.48071300877E+03 -0.16080213122E+03 -0.40779908462E+03  0.65639997338E+03  0.87284073170E+02 0.  0.
        254    2    1    2    0    0 -0.48071300877E+03  0.16080213122E+03 -0.14761733291E+04  0.17974376469E+04  0.89148868458E+03 0.  0.
         23    2    4    4    0    0 -0.65636621096E+03  0.95825348591E+02 -0.60935772271E+03  0.90576671863E+03  0.95380364973E+02 0.  0.
         23    2    4    4    0    0  0.17565320219E+03  0.64976782626E+02 -0.86681560635E+03  0.89167092824E+03  0.92907045661E+02 0.  0.
          4    1    3    3  502    0  0.12384253021E+03 -0.77728645171E+02 -0.14119602368E+03  0.20326099398E+03  0.00000000000E+00 0. -1.
         -3    1    3    3    0  502  0.35687047856E+03 -0.83073486047E+02 -0.26660306094E+03  0.45313897940E+03  0.00000000000E+00 0.  1.
         11    1    5    5    0    0 -0.45992314757E+03  0.75144387173E+02 -0.36746868484E+03  0.59347216863E+03  0.00000000000E+00 0. -1.
        -11    1    5    5    0    0 -0.19644306339E+03  0.20680961418E+02 -0.24188903787E+03  0.31229455000E+03  0.00000000000E+00 0.  1.
          3    1    6    6  503    0  0.15478784494E+03  0.74441881164E+02 -0.83489141463E+03  0.85237582370E+03  0.00000000000E+00 0. -1.
         -3    1    6    6    0  503  0.20865357247E+02 -0.94650985372E+01 -0.31924191722E+02  0.39295104536E+02  0.00000000000E+00 0.  1.
<mgrwt>
<rscale>  0 0.15722490E+04</rscale>
<asrwt>0</asrwt>
<pdfrwt beam="1">  1        2 0.33367768E+00 0.15722490E+04</pdfrwt>
<pdfrwt beam="2">  1       -1 0.43835786E-01 0.15722490E+04</pdfrwt>
<totfact> 0.30282804E+01</totfact>
</mgrwt>
</event>
<event>
12    6  0.1530720E-007  0.1651338E+04  0.7818608E-02  0.8789615E-01
         -1   -1    0    0    0  501 -0.00000000000E+00  0.00000000000E+00  0.75815560428E+03  0.75815560428E+03  0.00000000000E+00 0.  1.
          2   -1    0    0  501    0  0.00000000000E+00 -0.00000000000E+00 -0.89919430998E+03  0.89919430998E+03  0.00000000000E+00 0. -1.
         24    2    1    2    0    0 -0.18887103981E+03  0.57476899151E+02  0.49299520548E+03  0.53708020043E+03  0.80218485679E+02 0.  0.
        254    2    1    2    0    0  0.18887103981E+03 -0.57476899151E+02 -0.63403391119E+03  0.11202697138E+04  0.90223576054E+03 0.  0.
         23    2    4    4    0    0 -0.15712926768E+03  0.33159194284E+03 -0.15940334523E+03  0.40992077002E+03  0.89346448776E+02 0.  0.
         23    2    4    4    0    0  0.34600030749E+03 -0.38906884199E+03 -0.47463056596E+03  0.71034894382E+03  0.90723046987E+02 0.  0.
          2    1    3    3  502    0 -0.21688833832E+02  0.11521507144E+02  0.15777926322E+03  0.15967919884E+03  0.00000000000E+00 0. -1.
         -1    1    3    3    0  502 -0.16718220598E+03  0.45955392007E+02  0.33521594226E+03  0.37740100158E+03  0.00000000000E+00 0.  1.
         11    1    5    5    0    0 -0.81106931590E+02  0.79807778240E+02 -0.35583979125E+02  0.11922179075E+03  0.00000000000E+00 0.  1.
        -11    1    5    5    0    0 -0.76022336086E+02  0.25178416460E+03 -0.12381936610E+03  0.29069897927E+03  0.00000000000E+00 0. -1.
          2    1    6    6  503    0  0.33977310641E+03 -0.39223383985E+03 -0.47478906252E+03  0.70336178660E+03  0.00000000000E+00 0. -1.
         -2    1    6    6    0  503  0.62272010795E+01  0.31649978673E+01  0.15849656135E+00  0.69871572148E+01  0.00000000000E+00 0.  1.
<mgrwt>
<rscale>  0 0.16513379E+04</rscale>
<asrwt>0</asrwt>
<pdfrwt beam="1">  1        2 0.13833759E+00 0.16513379E+04</pdfrwt>
<pdfrwt beam="2">  1       -1 0.11663932E+00 0.16513379E+04</pdfrwt>
<totfact> 0.21235523E+01</totfact>
</mgrwt>
</event>
<event>
12    6  0.1530720E-007  0.2237839E+04  0.7818608E-02  0.8502842E-01
          2   -1    0    0  501    0  0.00000000000E+00  0.00000000000E+00  0.11870817336E+04  0.11870817336E+04  0.00000000000E+00 0. -1.
         -1   -1    0    0    0  501 -0.00000000000E+00 -0.00000000000E+00 -0.10546709620E+04  0.10546709620E+04  0.00000000000E+00 0.  1.
         24    2    1    2    0    0 -0.53135826354E+03  0.64554504363E+03  0.46156197833E+03  0.95842609539E+03  0.80443227787E+02 0.  0.
        254    2    1    2    0    0  0.53135826354E+03 -0.64554504363E+03 -0.32915120670E+03  0.12833266002E+04  0.91625140569E+03 0.  0.
         23    2    4    4    0    0  0.52972287454E+03 -0.74178856460E+03  0.14834860498E+02  0.91625293742E+03  0.91884568154E+02 0.  0.
         23    2    4    4    0    0  0.16353889942E+01  0.96243520966E+02 -0.34398606719E+03  0.36707366282E+03  0.84564588851E+02 0.  0.
          4    1    3    3  502    0 -0.37084105485E+03  0.41233436405E+03  0.33859895951E+03  0.64976301151E+03  0.00000000000E+00 0. -1.
         -3    1    3    3    0  502 -0.16051720868E+03  0.23321067958E+03  0.12296301882E+03  0.30866308388E+03  0.00000000000E+00 0.  1.
         11    1    5    5    0    0  0.52136397593E+03 -0.72803475804E+03  0.27324962786E+02  0.89588038147E+03  0.00000000000E+00 0.  1.
        -11    1    5    5    0    0  0.83588986132E+01 -0.13753806565E+02 -0.12490102288E+02  0.20372555957E+02  0.00000000000E+00 0. -1.
          4    1    6    6  503    0  0.11545453966E+02 -0.12547514223E+01 -0.26016918063E+01  0.11901290210E+02  0.00000000000E+00 0. -1.
         -4    1    6    6    0  503 -0.99100649720E+01  0.97498272389E+02 -0.34138437539E+03  0.35517237261E+03  0.00000000000E+00 0.  1.
<mgrwt>
<rscale>  0 0.22378388E+04</rscale>
<asrwt>0</asrwt>
<pdfrwt beam="1">  1        2 0.18262796E+00 0.22378388E+04</pdfrwt>
<pdfrwt beam="2">  1       -1 0.16225707E+00 0.22378388E+04</pdfrwt>
<totfact> 0.56281657E+00</totfact>
</mgrwt>
</event>
<event>
12    6  0.1530720E-007  0.1240345E+04  0.7818608E-02  0.9078258E-01
          4   -1    0    0  501    0  0.00000000000E+00  0.00000000000E+00  0.18369662645E+04  0.18369662645E+04  0.00000000000E+00 0. -1.
         -3   -1    0    0    0  501 -0.00000000000E+00 -0.00000000000E+00 -0.20937448913E+03  0.20937448913E+03  0.00000000000E+00 0.  1.
         24    2    1    2    0    0  0.13949439567E+03  0.21105831005E+03  0.18150568155E+03  0.32098891072E+03  0.78008151536E+02 0.  0.
        254    2    1    2    0    0 -0.13949439567E+03 -0.21105831005E+03  0.14460860938E+04  0.17253518429E+04  0.90645997949E+03 0.  0.
         23    2    4    4    0    0 -0.11974342380E+03  0.15006510454E+03 -0.19781294524E+02  0.21279453437E+03  0.89622492164E+02 0.  0.
         23    2    4    4    0    0 -0.19750971877E+02 -0.36112341459E+03  0.14658673883E+04  0.15125573085E+04  0.90896589356E+02 0.  0.
          2    1    3    3  502    0  0.80678666959E+02  0.16382840351E+03  0.15936276282E+03  0.24237426281E+03  0.00000000000E+00 0. -1.
         -1    1    3    3    0  502  0.58815728716E+02  0.47229906542E+02  0.22142918721E+02  0.78614647909E+02  0.00000000000E+00 0.  1.
         11    1    5    5    0    0 -0.13306336135E+03  0.13598610549E+03 -0.86730491078E+01  0.19045550872E+03  0.00000000000E+00 0.  1.
        -11    1    5    5    0    0  0.13319937557E+02  0.14078999048E+02 -0.11108245416E+02  0.22339025649E+02  0.00000000000E+00 0. -1.
          2    1    6    6  503    0 -0.35129276159E+02 -0.77985285874E+02  0.43924781598E+03  0.44749794938E+03  0.00000000000E+00 0. -1.
         -2    1    6    6    0  503  0.15378304282E+02 -0.28313812872E+03  0.10266195723E+04  0.10650593591E+04  0.00000000000E+00 0.  1.
<mgrwt>
<rscale>  0 0.12403449E+04</rscale>
<asrwt>0</asrwt>
<pdfrwt beam="1">  1        4 0.28261018E+00 0.12403449E+04</pdfrwt>
<pdfrwt beam="2">  1       -3 0.32211461E-01 0.12403449E+04</pdfrwt>
<totfact> 0.85179508E-01</totfact>
</mgrwt>
</event>
<event>
12    6  0.1530720E-007  0.1656816E+04  0.7818608E-02  0.8786384E-01
         -1   -1    0    0    0  501 -0.00000000000E+00  0.00000000000E+00  0.34351378827E+03  0.34351378827E+03  0.00000000000E+00 0.  1.
          2   -1    0    0  501    0  0.00000000000E+00 -0.00000000000E+00 -0.19977653784E+04  0.19977653784E+04  0.00000000000E+00 0. -1.
         24    2    1    2    0    0  0.18882539782E+03  0.28991045321E+03  0.75603747302E+02  0.36264156913E+03  0.78037678777E+02 0.  0.
        254    2    1    2    0    0 -0.18882539782E+03 -0.28991045321E+03 -0.17298553375E+04  0.19786375976E+04  0.89604919075E+03 0.  0.
         23    2    4    4    0    0  0.73413820688E+02 -0.48221487664E+03 -0.14731206164E+04  0.15545840006E+04  0.93414603683E+02 0.  0.
         23    2    4    4    0    0 -0.26223921851E+03  0.19230442343E+03 -0.25673472108E+03  0.42405359698E+03  0.90323513581E+02 0.  0.
          4    1    3    3  502    0  0.21260875265E+02  0.32845444941E+02 -0.16200575237E+02  0.42347452207E+02  0.00000000000E+00 0. -1.
         -3    1    3    3    0  502  0.16756452256E+03  0.25706500827E+03  0.91804322539E+02  0.32029411692E+03  0.00000000000E+00 0.  1.
         11    1    5    5    0    0  0.47770532807E+02 -0.23232372528E+03 -0.57509583199E+03  0.62208645147E+03  0.00000000000E+00 0.  1.
        -11    1    5    5    0    0  0.25643287882E+02 -0.24989115135E+03 -0.89802478438E+03  0.93249754911E+03  0.00000000000E+00 0. -1.
          4    1    6    6  503    0 -0.24958656446E+03  0.15483187538E+03 -0.24586748732E+03  0.38303679211E+03  0.00000000000E+00 0. -1.
         -4    1    6    6    0  503 -0.12652654054E+02  0.37472548047E+02 -0.10867233764E+02  0.41016804866E+02  0.00000000000E+00 0.  1.
<mgrwt>
<rscale>  0 0.16568162E+04</rscale>
<asrwt>0</asrwt>
<pdfrwt beam="1">  1        2 0.30734852E+00 0.16568162E+04</pdfrwt>
<pdfrwt beam="2">  1       -1 0.52848274E-01 0.16568162E+04</pdfrwt>
<totfact> 0.26303458E+01</totfact>
</mgrwt>
</event>
<event>
12    6  0.1530720E-007  0.1635767E+04  0.7818608E-02  0.8798871E-01
          2   -1    0    0  501    0  0.00000000000E+00  0.00000000000E+00  0.15328184247E+04  0.15328184247E+04  0.00000000000E+00 0. -1.
         -1   -1    0    0    0  501 -0.00000000000E+00 -0.00000000000E+00 -0.43640753213E+03  0.43640753213E+03  0.00000000000E+00 0.  1.
         24    2    1    2    0    0 -0.20516493630E+03 -0.33431393727E+03  0.86960864873E+03  0.95735769583E+03  0.80349835677E+02 0.  0.
        254    2    1    2    0    0  0.20516493630E+03  0.33431393727E+03  0.22680224379E+03  0.10118682610E+04  0.90475392234E+03 0.  0.
         23    2    4    4    0    0 -0.20140298651E+03 -0.78036411889E+02 -0.18267519760E+03  0.29693590469E+03  0.90265492405E+02 0.  0.
         23    2    4    4    0    0  0.40656792281E+03  0.41235034916E+03  0.40947744140E+03  0.71493235626E+03  0.90145508479E+02 0.  0.
          2    1    3    3  502    0 -0.19795356064E+03 -0.32012224846E+03  0.86001805407E+03  0.93877309264E+03  0.00000000000E+00 0. -1.
         -1    1    3    3    0  502 -0.72113756578E+01 -0.14191688811E+02  0.95905946546E+01  0.18584603197E+02  0.00000000000E+00 0.  1.
         11    1    5    5    0    0 -0.19870920771E+03 -0.91676166411E+02 -0.16312540209E+03  0.27294645175E+03  0.00000000000E+00 0. -1.
        -11    1    5    5    0    0 -0.26937787998E+01  0.13639754522E+02 -0.19549795516E+02  0.23989452941E+02  0.00000000000E+00 0.  1.
          1    1    6    6  503    0  0.30524476505E+03  0.25896021866E+03  0.25321325743E+03  0.47365780388E+03  0.00000000000E+00 0. -1.
         -1    1    6    6    0  503  0.10132315776E+03  0.15339013050E+03  0.15626418397E+03  0.24127455237E+03  0.00000000000E+00 0.  1.
<mgrwt>
<rscale>  0 0.16357671E+04</rscale>
<asrwt>0</asrwt>
<pdfrwt beam="1">  1        2 0.23581822E+00 0.16357671E+04</pdfrwt>
<pdfrwt beam="2">  1       -1 0.67139621E-01 0.16357671E+04</pdfrwt>
<totfact> 0.29784094E+01</totfact>
</mgrwt>
</event>
<event>
12    6  0.1530720E-007  0.2459129E+04  0.7818608E-02  0.8417692E-01
          2   -1    0    0  501    0  0.00000000000E+00  0.00000000000E+00  0.37531612662E+04  0.37531612662E+04  0.00000000000E+00 0. -1.
         -1   -1    0    0    0  501 -0.00000000000E+00 -0.00000000000E+00 -0.40281494231E+03  0.40281494231E+03  0.00000000000E+00 0.  1.
         24    2    1    2    0    0  0.10063875166E+04  0.28591511330E+03  0.17338141027E+04  0.20266680166E+04  0.81906174005E+02 0.  0.
        254    2    1    2    0    0 -0.10063875166E+04 -0.28591511330E+03  0.16165322212E+04  0.21293081919E+04  0.90896296319E+03 0.  0.
         23    2    4    4    0    0 -0.81078925819E+03 -0.34646301568E+03  0.16784582999E+04  0.18981808285E+04  0.91936666113E+02 0.  0.
         23    2    4    4    0    0 -0.19559825836E+03  0.60547902376E+02 -0.61926078763E+02  0.23112736339E+03  0.87523092518E+02 0.  0.
          2    1    3    3  502    0  0.67873381220E+03  0.20298810908E+03  0.11005113582E+04  0.13088197010E+04  0.00000000000E+00 0. -1.
         -1    1    3    3    0  502  0.32765370435E+03  0.82927004227E+02  0.63330274448E+03  0.71784831557E+03  0.00000000000E+00 0.  1.
         11    1    5    5    0    0 -0.57607512216E+03 -0.20355180180E+03  0.11219931191E+04  0.12775619130E+04  0.00000000000E+00 0. -1.
        -11    1    5    5    0    0 -0.23471413604E+03 -0.14291121388E+03  0.55646518086E+03  0.62061891545E+03  0.00000000000E+00 0.  1.
          1    1    6    6  503    0 -0.14911120379E+03  0.40670777471E+02 -0.84057491207E+02  0.17593727594E+03  0.00000000000E+00 0. -1.
         -1    1    6    6    0  503 -0.46487054565E+02  0.19877124905E+02  0.22131412444E+02  0.55190087456E+02  0.00000000000E+00 0.  1.
<mgrwt>
<rscale>  0 0.24591295E+04</rscale>
<asrwt>0</asrwt>
<pdfrwt beam="1">  1        2 0.57740940E+00 0.24591295E+04</pdfrwt>
<pdfrwt beam="2">  1       -1 0.61971532E-01 0.24591295E+04</pdfrwt>
<totfact> 0.14360084E+00</totfact>
</mgrwt>
</event>
<event>
12    6  0.1530720E-007  0.1716849E+04  0.7818608E-02  0.8751812E-01
          2   -1    0    0  501    0  0.00000000000E+00  0.00000000000E+00  0.11248945051E+04  0.11248945051E+04  0.00000000000E+00 0. -1.
         -1   -1    0    0    0  501 -0.00000000000E+00 -0.00000000000E+00 -0.65507740581E+03  0.65507740581E+03  0.00000000000E+00 0.  1.
         24    2    1    2    0    0  0.41693459665E+03 -0.41518127046E+03  0.40741778099E+03  0.72008591079E+03  0.79526885000E+02 0.  0.
        254    2    1    2    0    0 -0.41693459665E+03  0.41518127046E+03  0.62399318299E+02  0.10598860001E+04  0.87934902803E+03 0.  0.
         23    2    4    4    0    0 -0.43578245641E+03  0.36293277109E+03  0.40370338161E+03  0.70296335551E+03  0.97747190322E+02 0.  0.
         23    2    4    4    0    0  0.18847859766E+02  0.52248499365E+02 -0.34130406331E+03  0.35692264461E+03  0.88431686072E+02 0.  0.
          2    1    3    3  502    0  0.19996449364E+03 -0.22431232560E+03  0.25071826624E+03  0.39135848931E+03  0.00000000000E+00 0. -1.
         -1    1    3    3    0  502  0.21697010301E+03 -0.19086894486E+03  0.15669951475E+03  0.32872742148E+03  0.00000000000E+00 0.  1.
         11    1    5    5    0    0 -0.27657929290E+03  0.22793549048E+03  0.31118697978E+03  0.47464516164E+03  0.00000000000E+00 0. -1.
        -11    1    5    5    0    0 -0.15920316351E+03  0.13499728061E+03  0.92516401826E+02  0.22831819387E+03  0.00000000000E+00 0.  1.
          2    1    6    6  503    0  0.20048713555E+02  0.11078273807E+02 -0.29103446114E+03  0.29193447319E+03  0.00000000000E+00 0. -1.
         -2    1    6    6    0  503 -0.12008537895E+01  0.41170225558E+02 -0.50269602165E+02  0.64988171417E+02  0.00000000000E+00 0.  1.
<mgrwt>
<rscale>  0 0.17168494E+04</rscale>
<asrwt>0</asrwt>
<pdfrwt beam="1">  1        2 0.17306069E+00 0.17168494E+04</pdfrwt>
<pdfrwt beam="2">  1       -1 0.10078114E+00 0.17168494E+04</pdfrwt>
<totfact> 0.21343545E+01</totfact>
</mgrwt>
</event>
<event>
12    6  0.1530720E-007  0.2362927E+04  0.7818608E-02  0.8453515E-01
         -1   -1    0    0    0  501 -0.00000000000E+00  0.00000000000E+00  0.15146354517E+04  0.15146354517E+04  0.00000000000E+00 0.  1.
          2   -1    0    0  501    0  0.00000000000E+00 -0.00000000000E+00 -0.92157887518E+03  0.92157887518E+03  0.00000000000E+00 0. -1.
         24    2    1    2    0    0  0.81274432044E+02 -0.70081101565E+03 -0.49356901559E+03  0.86642380510E+03  0.96634486278E+02 0.  0.
        254    2    1    2    0    0 -0.81274432044E+02  0.70081101565E+03  0.10866255921E+04  0.15697905218E+04  0.88642286292E+03 0.  0.
         23    2    4    4    0    0 -0.36520233306E+03  0.72688632924E+03  0.67551020849E+03  0.10612356743E+04  0.90391564098E+02 0.  0.
         23    2    4    4    0    0  0.28392790102E+03 -0.26075313592E+02  0.41111538365E+03  0.50855484754E+03  0.91198680501E+02 0.  0.
          2    1    3    3  502    0  0.15470362034E+02 -0.51011778572E+03 -0.35630049862E+03  0.62242231060E+03  0.00000000000E+00 0. -1.
         -1    1    3    3    0  502  0.65804070010E+02 -0.19069322993E+03 -0.13726851696E+03  0.24400149450E+03  0.00000000000E+00 0.  1.
         11    1    5    5    0    0 -0.11797098837E+03  0.33327758418E+03  0.30101919385E+03  0.46433140889E+03  0.00000000000E+00 0. -1.
        -11    1    5    5    0    0 -0.24723134469E+03  0.39360874506E+03  0.37449101464E+03  0.59690426538E+03  0.00000000000E+00 0.  1.
          1    1    6    6  503    0  0.11406460837E+03 -0.40361534181E+02  0.22970027388E+03  0.25961895953E+03  0.00000000000E+00 0. -1.
         -1    1    6    6    0  503  0.16986329265E+03  0.14286220590E+02  0.18141510977E+03  0.24893588802E+03  0.00000000000E+00 0.  1.
<mgrwt>
<rscale>  0 0.23629270E+04</rscale>
<asrwt>0</asrwt>
<pdfrwt beam="1">  1        2 0.14178137E+00 0.23629270E+04</pdfrwt>
<pdfrwt beam="2">  1       -1 0.23302084E+00 0.23629270E+04</pdfrwt>
<totfact> 0.26290915E+00</totfact>
</mgrwt>
</event>
<event>
12    6  0.1530720E-007  0.1147138E+04  0.7818608E-02  0.9160428E-01
          2   -1    0    0  501    0  0.00000000000E+00  0.00000000000E+00  0.13435408481E+04  0.13435408481E+04  0.00000000000E+00 0. -1.
         -1   -1    0    0    0  501 -0.00000000000E+00 -0.00000000000E+00 -0.24486157943E+03  0.24486157943E+03  0.00000000000E+00 0.  1.
         24    2    1    2    0    0  0.62741139951E+02  0.79179871424E+02 -0.35341338448E+02  0.13519539755E+03  0.82600742336E+02 0.  0.
        254    2    1    2    0    0 -0.62741139951E+02 -0.79179871424E+02  0.11340206071E+04  0.14532070300E+04  0.90310687737E+03 0.  0.
         23    2    4    4    0    0 -0.26344020831E+02 -0.10833082868E+03  0.12727408162E+04  0.12807904894E+04  0.90141648369E+02 0.  0.
         23    2    4    4    0    0 -0.36397119120E+02  0.29150957255E+02 -0.13872020904E+03  0.17241654057E+03  0.91157218446E+02 0.  0.
          2    1    3    3  502    0  0.27207475224E+02  0.87495219943E+02 -0.36631604223E+02  0.98678947344E+02  0.00000000000E+00 0. -1.
         -1    1    3    3    0  502  0.35533664727E+02 -0.83153485193E+01  0.12902657750E+01  0.36516450207E+02  0.00000000000E+00 0.  1.
         11    1    5    5    0    0  0.72931022428E+01  0.45621014767E+01  0.40490905777E+03  0.40500042861E+03  0.00000000000E+00 0. -1.
        -11    1    5    5    0    0 -0.33637123074E+02 -0.11289293016E+03  0.86783175842E+03  0.87579006083E+03  0.00000000000E+00 0.  1.
          3    1    6    6  503    0 -0.32150848251E+02 -0.27466322843E+02 -0.81451710068E+02  0.91773945142E+02  0.00000000000E+00 0. -1.
         -3    1    6    6    0  503 -0.42462708691E+01  0.56617280098E+02 -0.57268498976E+02  0.80642595426E+02  0.00000000000E+00 0.  1.
<mgrwt>
<rscale>  0 0.11471382E+04</rscale>
<asrwt>0</asrwt>
<pdfrwt beam="1">  1        2 0.20669859E+00 0.11471382E+04</pdfrwt>
<pdfrwt beam="2">  1       -1 0.37671013E-01 0.11471382E+04</pdfrwt>
<totfact> 0.11948107E+02</totfact>
</mgrwt>
</event>
<event>
12    6  0.1530720E-007  0.1200838E+04  0.7818608E-02  0.9112123E-01
          2   -1    0    0  501    0  0.00000000000E+00  0.00000000000E+00  0.47388620708E+03  0.47388620708E+03  0.00000000000E+00 0. -1.
         -1   -1    0    0    0  501 -0.00000000000E+00 -0.00000000000E+00 -0.76073760896E+03  0.76073760896E+03  0.00000000000E+00 0.  1.
         24    2    1    2    0    0 -0.17648663001E+02 -0.17033466786E+03  0.12778153654E+03  0.22857225348E+03  0.81189775216E+02 0.  0.
        254    2    1    2    0    0  0.17648663001E+02  0.17033466786E+03 -0.41463293842E+03  0.10060515626E+04  0.90049647336E+03 0.  0.
         23    2    4    4    0    0  0.24389753060E+03  0.38325402063E+03 -0.48965911093E+03  0.67429383865E+03  0.92393106654E+02 0.  0.
         23    2    4    4    0    0 -0.22624886760E+03 -0.21291935277E+03  0.75026172510E+02  0.33175772392E+03  0.88944139446E+02 0.  0.
          4    1    3    3  502    0 -0.26468525348E+02 -0.14528121332E+03  0.13601296277E+03  0.20076538501E+03  0.00000000000E+00 0. -1.
         -3    1    3    3    0  502  0.88198623469E+01 -0.25053454540E+02 -0.82314262296E+01  0.27806868468E+02  0.00000000000E+00 0.  1.
         11    1    5    5    0    0 -0.35115878210E+01  0.41410161499E+02 -0.46442654253E+02  0.62322169879E+02  0.00000000000E+00 0. -1.
        -11    1    5    5    0    0  0.24740911843E+03  0.34184385913E+03 -0.44321645667E+03  0.61197166877E+03  0.00000000000E+00 0.  1.
          4    1    6    6  503    0 -0.12081473011E+03 -0.17124502649E+03  0.42859195197E+02  0.21391112342E+03  0.00000000000E+00 0. -1.
         -4    1    6    6    0  503 -0.10543413750E+03 -0.41674326283E+02  0.32166977313E+02  0.11784660050E+03  0.00000000000E+00 0.  1.
<mgrwt>
<rscale>  0 0.12008381E+04</rscale>
<asrwt>0</asrwt>
<pdfrwt beam="1">  1        2 0.72905571E-01 0.12008381E+04</pdfrwt>
<pdfrwt beam="2">  1       -1 0.11703655E+00 0.12008381E+04</pdfrwt>
<totfact> 0.48683808E+01</totfact>
</mgrwt>
</event>
<event>
12    6  0.1530720E-007  0.4668143E+04  0.7818608E-02  0.7881843E-01
         -1   -1    0    0    0  501 -0.00000000000E+00  0.00000000000E+00  0.28823806761E+04  0.28823806761E+04  0.00000000000E+00 0.  1.
          2   -1    0    0  501    0  0.00000000000E+00 -0.00000000000E+00 -0.18900659841E+04  0.18900659841E+04  0.00000000000E+00 0. -1.
         24    2    1    2    0    0 -0.16637570530E+04  0.10467248196E+04  0.15741554758E+04  0.25195723371E+04  0.80987163385E+02 0.  0.
        254    2    1    2    0    0  0.16637570530E+04 -0.10467248196E+04 -0.58184078387E+03  0.22528743230E+04  0.93444295620E+03 0.  0.
         23    2    4    4    0    0  0.71595805026E+03 -0.13490827958E+03  0.14302202515E+03  0.74826111305E+03  0.92968919506E+02 0.  0.
         23    2    4    4    0    0  0.94779900270E+03 -0.91181654001E+03 -0.72486280902E+03  0.15046132100E+04  0.93287017341E+02 0.  0.
          4    1    3    3  502    0 -0.15454102816E+03  0.71167670568E+02  0.14322583360E+03  0.22239920443E+03  0.00000000000E+00 0. -1.
         -1    1    3    3    0  502 -0.15092160248E+04  0.97555714902E+03  0.14309296422E+04  0.22971731327E+04  0.00000000000E+00 0.  1.
         11    1    5    5    0    0  0.54536644480E+01 -0.11318200622E+02 -0.17953218047E+01  0.12691229318E+02  0.00000000000E+00 0. -1.
        -11    1    5    5    0    0  0.71050438581E+03 -0.12359007896E+03  0.14481734696E+03  0.73556988373E+03  0.00000000000E+00 0.  1.
          3    1    6    6  503    0  0.11837968765E+02 -0.36642969528E+01  0.35772892652E+00  0.12397279808E+02  0.00000000000E+00 0. -1.
         -3    1    6    6    0  503  0.93596103393E+03 -0.90815224306E+03 -0.72522053795E+03  0.14922159302E+04  0.00000000000E+00 0.  1.
<mgrwt>
<rscale>  0 0.46681430E+04</rscale>
<asrwt>0</asrwt>
<pdfrwt beam="1">  1        2 0.29077938E+00 0.46681430E+04</pdfrwt>
<pdfrwt beam="2">  1       -1 0.44344318E+00 0.46681430E+04</pdfrwt>
<totfact> 0.23537314E-02</totfact>
</mgrwt>
</event>
<event>
12    6  0.1530720E-007  0.1498765E+04  0.7818608E-02  0.8885274E-01
          2   -1    0    0  501    0  0.00000000000E+00  0.00000000000E+00  0.20756765902E+04  0.20756765902E+04  0.00000000000E+00 0. -1.
         -1   -1    0    0    0  501 -0.00000000000E+00 -0.00000000000E+00 -0.27055007915E+03  0.27055007915E+03  0.00000000000E+00 0.  1.
         24    2    1    2    0    0  0.42305548620E+03 -0.18032606209E+03  0.78720199785E+03  0.91516424395E+03  0.79656606203E+02 0.  0.
        254    2    1    2    0    0 -0.42305548620E+03  0.18032606209E+03  0.10179245132E+04  0.14310624254E+04  0.89458142039E+03 0.  0.
         23    2    4    4    0    0  0.10168284705E+03  0.40326479610E+03  0.47193574269E+03  0.63549377518E+03  0.90371986348E+02 0.  0.
         23    2    4    4    0    0 -0.52473833325E+03 -0.22293873400E+03  0.54598877047E+03  0.79556865017E+03  0.98862238260E+02 0.  0.
          4    1    3    3  502    0  0.20790666830E+03 -0.97565397251E+02  0.46929848940E+03  0.52247991503E+03  0.00000000000E+00 0. -1.
         -3    1    3    3    0  502  0.21514881790E+03 -0.82760664844E+02  0.31790350846E+03  0.39268432892E+03  0.00000000000E+00 0.  1.
         11    1    5    5    0    0  0.98621705809E+02  0.27700514515E+03  0.28205916139E+03  0.40744995008E+03  0.00000000000E+00 0.  1.
        -11    1    5    5    0    0  0.30611412401E+01  0.12625965095E+03  0.18987658129E+03  0.22804382510E+03  0.00000000000E+00 0. -1.
          1    1    6    6  503    0 -0.83911066382E+02 -0.57586096911E+02  0.56507456723E+02  0.11640583441E+03  0.00000000000E+00 0. -1.
         -1    1    6    6    0  503 -0.44082726687E+03 -0.16535263709E+03  0.48948131375E+03  0.67916281576E+03  0.00000000000E+00 0.  1.
<mgrwt>
<rscale>  0 0.14987654E+04</rscale>
<asrwt>0</asrwt>
<pdfrwt beam="1">  1        2 0.31933485E+00 0.14987654E+04</pdfrwt>
<pdfrwt beam="2">  1       -1 0.41623090E-01 0.14987654E+04</pdfrwt>
<totfact> 0.37799063E+01</totfact>
</mgrwt>
</event>
<event>
12    6  0.1530720E-007  0.2099452E+04  0.7818608E-02  0.8561485E-01
          2   -1    0    0  501    0  0.00000000000E+00  0.00000000000E+00  0.72643948807E+03  0.72643948807E+03  0.00000000000E+00 0. -1.
         -1   -1    0    0    0  501 -0.00000000000E+00 -0.00000000000E+00 -0.15168843382E+04  0.15168843382E+04  0.00000000000E+00 0.  1.
         24    2    1    2    0    0  0.79618036981E+03 -0.29538967310E+02  0.11702703333E+02  0.80064465253E+03  0.78225152540E+02 0.  0.
        254    2    1    2    0    0 -0.79618036981E+03  0.29538967310E+02 -0.80214755342E+03  0.14426791737E+04  0.89616224475E+03 0.  0.
         23    2    4    4    0    0 -0.35821275017E+03  0.44755221208E+03 -0.31922107749E+03  0.66257930744E+03  0.92140574210E+02 0.  0.
         23    2    4    4    0    0 -0.43796761965E+03 -0.41801324477E+03 -0.48292647594E+03  0.78009986626E+03  0.93739594165E+02 0.  0.
          2    1    3    3  502    0  0.57784582961E+03 -0.18399657396E+02  0.43284463779E+02  0.57975675502E+03  0.00000000000E+00 0. -1.
         -1    1    3    3    0  502  0.21833454020E+03 -0.11139309913E+02 -0.31581760447E+02  0.22088789750E+03  0.00000000000E+00 0.  1.
         11    1    5    5    0    0 -0.11537887286E+02 -0.31795046221E+01 -0.71646428231E+01  0.13948627152E+02  0.00000000000E+00 0. -1.
        -11    1    5    5    0    0 -0.34667486288E+03  0.45073171671E+03 -0.31205643466E+03  0.64863068029E+03  0.00000000000E+00 0.  1.
          3    1    6    6  503    0 -0.32873933115E+02 -0.54512487278E+01 -0.37941985754E+02  0.50497582854E+02  0.00000000000E+00 0. -1.
         -3    1    6    6    0  503 -0.40509368653E+03 -0.41256199605E+03 -0.44498449018E+03  0.72960228341E+03  0.00000000000E+00 0.  1.
<mgrwt>
<rscale>  0 0.20994520E+04</rscale>
<asrwt>0</asrwt>
<pdfrwt beam="1">  1        2 0.11175992E+00 0.20994520E+04</pdfrwt>
<pdfrwt beam="2">  1       -1 0.23336682E+00 0.20994520E+04</pdfrwt>
<totfact> 0.36853733E+00</totfact>
</mgrwt>
</event>
<event>
12    6  0.1530720E-007  0.1185540E+04  0.7818608E-02  0.9125608E-01
          2   -1    0    0  501    0  0.00000000000E+00  0.00000000000E+00  0.33317425603E+03  0.33317425603E+03  0.00000000000E+00 0. -1.
         -1   -1    0    0    0  501 -0.00000000000E+00 -0.00000000000E+00 -0.10546320051E+04  0.10546320051E+04  0.00000000000E+00 0.  1.
         24    2    1    2    0    0 -0.18165799144E+03 -0.78422608824E+02  0.95072630513E+00  0.21334600248E+03  0.79786474197E+02 0.  0.
        254    2    1    2    0    0  0.18165799144E+03  0.78422608824E+02 -0.72240847536E+03  0.11744602586E+04  0.90461768855E+03 0.  0.
         23    2    4    4    0    0 -0.34141814030E+03 -0.97292529949E+02 -0.28976102457E+03  0.46724604199E+03  0.91242695558E+02 0.  0.
         23    2    4    4    0    0  0.52307613174E+03  0.17571513877E+03 -0.43264745080E+03  0.70721421665E+03  0.92106905110E+02 0.  0.
          2    1    3    3  502    0 -0.15610682822E+03 -0.72834377208E+02 -0.27786183008E+02  0.17448856778E+03  0.00000000000E+00 0. -1.
         -1    1    3    3    0  502 -0.25551163220E+02 -0.55882316160E+01  0.28736909313E+02  0.38857434698E+02  0.00000000000E+00 0.  1.
         11    1    5    5    0    0 -0.30792534959E+03 -0.79365548165E+02 -0.28830722332E+03  0.42922950292E+03  0.00000000000E+00 0. -1.
        -11    1    5    5    0    0 -0.33492790704E+02 -0.17926981784E+02 -0.14538012449E+01  0.38016539073E+02  0.00000000000E+00 0.  1.
          2    1    6    6  503    0  0.30035569367E+03  0.70768095937E+02 -0.19503947164E+03  0.36505076581E+03  0.00000000000E+00 0. -1.
         -2    1    6    6    0  503  0.22272043807E+03  0.10494704284E+03 -0.23760797916E+03  0.34216345084E+03  0.00000000000E+00 0.  1.
<mgrwt>
<rscale>  0 0.11855399E+04</rscale>
<asrwt>0</asrwt>
<pdfrwt beam="1">  1        2 0.51257578E-01 0.11855399E+04</pdfrwt>
<pdfrwt beam="2">  1       -1 0.16225108E+00 0.11855399E+04</pdfrwt>
<totfact> 0.31043192E+01</totfact>
</mgrwt>
</event>
<event>
12    6  0.1530720E-007  0.1559494E+04  0.7818608E-02  0.8845826E-01
         -1   -1    0    0    0  501 -0.00000000000E+00  0.00000000000E+00  0.18102338245E+04  0.18102338245E+04  0.00000000000E+00 0.  1.
          2   -1    0    0  501    0  0.00000000000E+00 -0.00000000000E+00 -0.33587131435E+03  0.33587131435E+03  0.00000000000E+00 0. -1.
         24    2    1    2    0    0  0.25274323600E+03 -0.50225947110E+02 -0.11710735342E+03  0.29503588754E+03  0.83248144741E+02 0.  0.
        254    2    1    2    0    0 -0.25274323600E+03  0.50225947110E+02  0.15914698636E+04  0.18510692513E+04  0.90954893072E+03 0.  0.
         23    2    4    4    0    0 -0.19579638262E+02 -0.40633282557E+03  0.58592790372E+03  0.71842541446E+03  0.85637844506E+02 0.  0.
         23    2    4    4    0    0 -0.23316359774E+03  0.45655877268E+03  0.10055419598E+04  0.11326438368E+04  0.94637476194E+02 0.  0.
          4    1    3    3  502    0  0.22496617194E+03 -0.63066659012E+02 -0.12274489135E+03  0.26391947702E+03  0.00000000000E+00 0. -1.
         -3    1    3    3    0  502  0.27777064054E+02  0.12840711901E+02  0.56375379254E+01  0.31116410517E+02  0.00000000000E+00 0.  1.
         11    1    5    5    0    0  0.11037306830E+02 -0.35727270485E+03  0.51542981412E+03  0.62724277681E+03  0.00000000000E+00 0.  1.
        -11    1    5    5    0    0 -0.30616945092E+02 -0.49060120720E+02  0.70498089604E+02  0.91182637655E+02  0.00000000000E+00 0. -1.
          4    1    6    6  503    0 -0.15336865064E+01  0.69823351735E+02  0.15554356442E+03  0.17050352804E+03  0.00000000000E+00 0. -1.
         -4    1    6    6    0  503 -0.23162991123E+03  0.38673542095E+03  0.84999839542E+03  0.96214030879E+03  0.00000000000E+00 0.  1.
<mgrwt>
<rscale>  0 0.15594943E+04</rscale>
<asrwt>0</asrwt>
<pdfrwt beam="1">  1        2 0.51672511E-01 0.15594943E+04</pdfrwt>
<pdfrwt beam="2">  1       -1 0.27849751E+00 0.15594943E+04</pdfrwt>
<totfact> 0.48556569E+00</totfact>
</mgrwt>
</event>
<event>
12    6  0.1530720E-007  0.1080724E+04  0.7818608E-02  0.9224186E-01
         -1   -1    0    0    0  501 -0.00000000000E+00  0.00000000000E+00  0.10255365287E+03  0.10255365287E+03  0.00000000000E+00 0.  1.
          2   -1    0    0  501    0  0.00000000000E+00 -0.00000000000E+00 -0.28472035218E+04  0.28472035218E+04  0.00000000000E+00 0. -1.
         24    2    1    2    0    0  0.61909037667E+01  0.66226586152E+00 -0.27942890143E+02  0.84686253997E+02  0.79700631246E+02 0.  0.
        254    2    1    2    0    0 -0.61909037667E+01 -0.66226586152E+00 -0.27167069787E+04  0.28650709206E+04  0.90999769557E+03 0.  0.
         23    2    4    4    0    0 -0.30437164231E+03 -0.15985816403E+02 -0.33245744225E+03  0.46037451625E+03  0.92298977945E+02 0.  0.
         23    2    4    4    0    0  0.29818073854E+03  0.15323550542E+02 -0.23842495365E+04  0.24046964044E+04  0.93660989292E+02 0.  0.
          4    1    3    3  502    0  0.40686962354E+02 -0.83644193918E+01 -0.39869153142E+01  0.41728742026E+02  0.00000000000E+00 0. -1.
         -3    1    3    3    0  502 -0.34496058587E+02  0.90266852533E+01 -0.23955974829E+02  0.42957511971E+02  0.00000000000E+00 0.  1.
         11    1    5    5    0    0 -0.28752335724E+03 -0.25702065083E+02 -0.33327146409E+03  0.44090831914E+03  0.00000000000E+00 0. -1.
        -11    1    5    5    0    0 -0.16848285072E+02  0.97162486795E+01  0.81402183842E+00  0.19466197108E+02  0.00000000000E+00 0.  1.
          2    1    6    6  503    0  0.25292531820E+03  0.38401361067E+02 -0.21387771482E+04  0.21540226486E+04  0.00000000000E+00 0. -1.
         -2    1    6    6    0  503  0.45255420346E+02 -0.23077810526E+02 -0.24547238827E+03  0.25067375573E+03  0.00000000000E+00 0.  1.
<mgrwt>
<rscale>  0 0.10807241E+04</rscale>
<asrwt>0</asrwt>
<pdfrwt beam="1">  1        2 0.43803129E+00 0.10807241E+04</pdfrwt>
<pdfrwt beam="2">  1       -1 0.15777486E-01 0.10807241E+04</pdfrwt>
<totfact> 0.75459601E+01</totfact>
</mgrwt>
</event>
<event>
12    6  0.1530720E-007  0.1519097E+04  0.7818608E-02  0.8871852E-01
          2   -1    0    0  501    0  0.00000000000E+00  0.00000000000E+00  0.89919660390E+03  0.89919660390E+03  0.00000000000E+00 0. -1.
         -1   -1    0    0    0  501 -0.00000000000E+00 -0.00000000000E+00 -0.64158818466E+03  0.64158818466E+03  0.00000000000E+00 0.  1.
         24    2    1    2    0    0 -0.66791912040E+02  0.30354796178E+03 -0.30316184380E+03  0.44073035911E+03  0.75720679394E+02 0.  0.
        254    2    1    2    0    0  0.66791912040E+02 -0.30354796178E+03  0.56077026304E+03  0.11000544295E+04  0.89389816826E+03 0.  0.
         23    2    4    4    0    0 -0.30023476133E+03 -0.33778506794E+03  0.50570380826E+02  0.46416262016E+03  0.93004895075E+02 0.  0.
         23    2    4    4    0    0  0.36702667337E+03  0.34237106159E+02  0.51019988222E+03  0.63589180929E+03  0.90408599684E+02 0.  0.
          2    1    3    3  502    0 -0.22944795801E+01  0.46314364486E+02 -0.87043595157E+02  0.98624907869E+02  0.00000000000E+00 0. -1.
         -1    1    3    3    0  502 -0.64497432460E+02  0.25723359729E+03 -0.21611824865E+03  0.34210545124E+03  0.00000000000E+00 0.  1.
         11    1    5    5    0    0 -0.23141387430E+03 -0.29344995743E+03  0.69528643422E+02  0.38013088666E+03  0.00000000000E+00 0.  1.
        -11    1    5    5    0    0 -0.68820887033E+02 -0.44335110503E+02 -0.18958262596E+02  0.84031733506E+02  0.00000000000E+00 0. -1.
          1    1    6    6  503    0  0.66464807348E+02  0.40838170418E+02  0.12356919663E+03  0.14613238222E+03  0.00000000000E+00 0. -1.
         -1    1    6    6    0  503  0.30056186602E+03 -0.66010642593E+01  0.38663068559E+03  0.48975942707E+03  0.00000000000E+00 0.  1.
<mgrwt>
<rscale>  0 0.15190970E+04</rscale>
<asrwt>0</asrwt>
<pdfrwt beam="1">  1        2 0.13833794E+00 0.15190970E+04</pdfrwt>
<pdfrwt beam="2">  1       -1 0.98705875E-01 0.15190970E+04</pdfrwt>
<totfact> 0.31752300E+01</totfact>
</mgrwt>
</event>
<event>
12    6  0.1530720E-007  0.1865613E+04  0.7818608E-02  0.8672165E-01
          2   -1    0    0  501    0  0.00000000000E+00  0.00000000000E+00  0.14205695964E+04  0.14205695964E+04  0.00000000000E+00 0. -1.
         -1   -1    0    0    0  501 -0.00000000000E+00 -0.00000000000E+00 -0.61252022388E+03  0.61252022388E+03  0.00000000000E+00 0.  1.
         24    2    1    2    0    0  0.50612073551E+03  0.16807297769E+03 -0.20760876062E+03  0.57717567846E+03  0.74990943259E+02 0.  0.
        254    2    1    2    0    0 -0.50612073551E+03 -0.16807297769E+03  0.10156581331E+04  0.14559141418E+04  0.89650310662E+03 0.  0.
         23    2    4    4    0    0 -0.41335669892E+03  0.26272850978E+03  0.22649121418E+03  0.54742493991E+03  0.92118208493E+02 0.  0.
         23    2    4    4    0    0 -0.92764036587E+02 -0.43080148747E+03  0.78916691891E+03  0.90848920188E+03  0.91504731733E+02 0.  0.
          2    1    3    3  502    0  0.44891928045E+02  0.80647508075E+01  0.25174077354E+01  0.45680003841E+02  0.00000000000E+00 0. -1.
         -1    1    3    3    0  502  0.46122880746E+03  0.16000822688E+03 -0.21012616836E+03  0.53149567461E+03  0.00000000000E+00 0.  1.
         11    1    5    5    0    0 -0.29876964676E+03  0.22679262241E+03  0.14427344516E+03  0.40188682783E+03  0.00000000000E+00 0. -1.
        -11    1    5    5    0    0 -0.11458705217E+03  0.35935887368E+02  0.82217769018E+02  0.14553811208E+03  0.00000000000E+00 0.  1.
          3    1    6    6  503    0 -0.99656756984E+02 -0.25768720457E+03  0.50641952809E+03  0.57688378643E+03  0.00000000000E+00 0. -1.
         -3    1    6    6    0  503  0.68927203966E+01 -0.17311428290E+03  0.28274739083E+03  0.33160541545E+03  0.00000000000E+00 0.  1.
<mgrwt>
<rscale>  0 0.18656126E+04</rscale>
<asrwt>0</asrwt>
<pdfrwt beam="1">  1        2 0.21854917E+00 0.18656126E+04</pdfrwt>
<pdfrwt beam="2">  1       -1 0.94233881E-01 0.18656126E+04</pdfrwt>
<totfact> 0.16436794E+01</totfact>
</mgrwt>
</event>
<event>
12    6  0.1530720E-007  0.1539553E+04  0.7818608E-02  0.8858569E-01
          2   -1    0    0  501    0  0.00000000000E+00  0.00000000000E+00  0.85070266013E+03  0.85070266013E+03  0.00000000000E+00 0. -1.
         -3   -1    0    0    0  501 -0.00000000000E+00 -0.00000000000E+00 -0.69654863871E+03  0.69654863871E+03  0.00000000000E+00 0.  1.
         24    2    1    2    0    0 -0.14617543362E+03 -0.19622258583E+03 -0.39367547726E+03  0.47018231494E+03  0.78869939129E+02 0.  0.
        254    2    1    2    0    0  0.14617543362E+03  0.19622258583E+03  0.54782949868E+03  0.10770689839E+04  0.89447743174E+03 0.  0.
         23    2    4    4    0    0  0.41422095861E+03  0.38030616445E+03  0.23911310688E+03  0.61894906346E+03  0.98544832493E+02 0.  0.
         23    2    4    4    0    0 -0.26804552499E+03 -0.18408357862E+03  0.30871639180E+03  0.45811992045E+03  0.93983421758E+02 0.  0.
          2    1    3    3  502    0  0.25038241834E+01 -0.44405824833E+02 -0.73477502526E+02  0.85889986565E+02  0.00000000000E+00 0. -1.
         -1    1    3    3    0  502 -0.14867925780E+03 -0.15181676100E+03 -0.32019797473E+03  0.38429232837E+03  0.00000000000E+00 0.  1.
         11    1    5    5    0    0  0.62826033519E+02  0.10388280471E+03  0.28334814575E+02  0.12466599103E+03  0.00000000000E+00 0. -1.
        -11    1    5    5    0    0  0.35139492509E+03  0.27642335974E+03  0.21077829230E+03  0.49428307243E+03  0.00000000000E+00 0.  1.
          1    1    6    6  503    0 -0.22404517491E+02 -0.43245197659E+02  0.17011200421E+02  0.51589635241E+02  0.00000000000E+00 0. -1.
         -1    1    6    6    0  503 -0.24564100749E+03 -0.14083838096E+03  0.29170519138E+03  0.40653028521E+03  0.00000000000E+00 0.  1.
<mgrwt>
<rscale>  0 0.15395529E+04</rscale>
<asrwt>0</asrwt>
<pdfrwt beam="1">  1        2 0.13087733E+00 0.15395529E+04</pdfrwt>
<pdfrwt beam="2">  1       -3 0.10716133E+00 0.15395529E+04</pdfrwt>
<totfact> 0.14336853E+01</totfact>
</mgrwt>
</event>
<event>
12    6  0.1530720E-007  0.1797643E+04  0.7818608E-02  0.8707554E-01
          2   -1    0    0  501    0  0.00000000000E+00  0.00000000000E+00  0.23559905719E+04  0.23559905719E+04  0.00000000000E+00 0. -1.
         -1   -1    0    0    0  501 -0.00000000000E+00 -0.00000000000E+00 -0.34290461338E+03  0.34290461338E+03  0.00000000000E+00 0.  1.
         24    2    1    2    0    0  0.65489101688E+03 -0.13329841322E+03  0.80898635724E+03  0.10525445114E+04  0.82099399553E+02 0.  0.
        254    2    1    2    0    0 -0.65489101688E+03  0.13329841322E+03  0.12040996012E+04  0.16463506738E+04  0.90219952366E+03 0.  0.
         23    2    4    4    0    0 -0.98911955072E+02 -0.48971107516E+02 -0.12559140146E+03  0.19072984635E+03  0.91776521715E+02 0.  0.
         23    2    4    4    0    0 -0.55597906181E+03  0.18226952073E+03  0.13296910027E+04  0.14556208275E+04  0.91754756384E+02 0.  0.
          4    1    3    3  502    0  0.44572866151E+03 -0.79190702785E+02  0.60310351004E+03  0.75410811620E+03  0.00000000000E+00 0. -1.
         -3    1    3    3    0  502  0.20916235537E+03 -0.54107710431E+02  0.20588284720E+03  0.29843639524E+03  0.00000000000E+00 0.  1.
         11    1    5    5    0    0 -0.57151651268E+02 -0.39597186279E+02 -0.13610228304E+02  0.70848336030E+02  0.00000000000E+00 0.  1.
        -11    1    5    5    0    0 -0.41760303804E+02 -0.93739212368E+01 -0.11198117316E+03  0.11988151032E+03  0.00000000000E+00 0. -1.
          1    1    6    6  503    0 -0.25752231041E+03  0.37364464628E+02  0.56347831954E+03  0.62066227545E+03  0.00000000000E+00 0. -1.
         -1    1    6    6    0  503 -0.29845675140E+03  0.14490505610E+03  0.76621268316E+03  0.83495855201E+03  0.00000000000E+00 0.  1.
<mgrwt>
<rscale>  0 0.17976429E+04</rscale>
<asrwt>0</asrwt>
<pdfrwt beam="1">  1        2 0.36246008E+00 0.17976429E+04</pdfrwt>
<pdfrwt beam="2">  1       -1 0.52754557E-01 0.17976429E+04</pdfrwt>
<totfact> 0.16416124E+01</totfact>
</mgrwt>
</event>
<event>
12    6  0.1530720E-007  0.2219454E+04  0.7818608E-02  0.8510374E-01
         -1   -1    0    0    0  501 -0.00000000000E+00  0.00000000000E+00  0.36685642096E+03  0.36685642096E+03  0.00000000000E+00 0.  1.
          2   -1    0    0  501    0  0.00000000000E+00 -0.00000000000E+00 -0.33568821722E+04  0.33568821722E+04  0.00000000000E+00 0. -1.
         24    2    1    2    0    0  0.14673488344E+02 -0.74881141350E+03 -0.33558693132E+03  0.82461270065E+03  0.80210182358E+02 0.  0.
        254    2    1    2    0    0 -0.14673488344E+02  0.74881141350E+03 -0.26544388200E+04  0.28991258926E+04  0.89328139338E+03 0.  0.
         23    2    4    4    0    0 -0.41556314612E+03  0.18080063834E+03 -0.96092093374E+03  0.10662188728E+04  0.89844557643E+02 0.  0.
         23    2    4    4    0    0  0.40088965777E+03  0.56801077516E+03 -0.16935178862E+04  0.18329070198E+04  0.90534821002E+02 0.  0.
          4    1    3    3  502    0 -0.27236072441E+01 -0.24085711996E+02  0.31486200651E+01  0.24442859225E+02  0.00000000000E+00 0. -1.
         -3    1    3    3    0  502  0.17397095589E+02 -0.72472570150E+03 -0.33873555139E+03  0.80016984143E+03  0.00000000000E+00 0.  1.
         11    1    5    5    0    0 -0.18154978540E+03  0.99381518760E+02 -0.34488474773E+03  0.40222195373E+03  0.00000000000E+00 0. -1.
        -11    1    5    5    0    0 -0.23401336072E+03  0.81419119579E+02 -0.61603618601E+03  0.66399691904E+03  0.00000000000E+00 0.  1.
          1    1    6    6  503    0  0.24434214061E+01  0.26099409425E+02 -0.97053203240E+02  0.10053095911E+03  0.00000000000E+00 0. -1.
         -1    1    6    6    0  503  0.39844623636E+03  0.54191136573E+03 -0.15964646830E+04  0.17323760607E+04  0.00000000000E+00 0.  1.
<mgrwt>
<rscale>  0 0.22194538E+04</rscale>
<asrwt>0</asrwt>
<pdfrwt beam="1">  1        2 0.51644340E+00 0.22194538E+04</pdfrwt>
<pdfrwt beam="2">  1       -1 0.56439450E-01 0.22194538E+04</pdfrwt>
<totfact> 0.33734801E+00</totfact>
</mgrwt>
</event>
<event>
12    6  0.1530720E-007  0.1943770E+04  0.7818608E-02  0.8633371E-01
         -1   -1    0    0    0  501 -0.00000000000E+00  0.00000000000E+00  0.77916522813E+03  0.77916522813E+03  0.00000000000E+00 0.  1.
          2   -1    0    0  501    0  0.00000000000E+00 -0.00000000000E+00 -0.12122724897E+04  0.12122724897E+04  0.00000000000E+00 0. -1.
         24    2    1    2    0    0 -0.52378874719E+02 -0.95840779586E+02  0.63388637705E+03  0.64801871054E+03  0.78659447319E+02 0.  0.
        254    2    1    2    0    0  0.52378874719E+02  0.95840779586E+02 -0.10669936386E+04  0.13434190073E+04  0.80893151918E+03 0.  0.
         23    2    4    4    0    0  0.19381246050E+03 -0.30901633662E+03 -0.45072745595E+03  0.58709608408E+03  0.92044588379E+02 0.  0.
         23    2    4    4    0    0 -0.14143358578E+03  0.40485711621E+03 -0.61626618264E+03  0.75632292318E+03  0.91255753420E+02 0.  0.
          4    1    3    3  502    0 -0.56602800373E+01 -0.17306348950E+02  0.18766068218E+02  0.26147921532E+02  0.00000000000E+00 0. -1.
         -3    1    3    3    0  502 -0.46718594682E+02 -0.78534430636E+02  0.61512030883E+03  0.62187078901E+03  0.00000000000E+00 0.  1.
         11    1    5    5    0    0  0.98065782349E+02 -0.21738208547E+03 -0.24132340349E+03  0.33927695740E+03  0.00000000000E+00 0. -1.
        -11    1    5    5    0    0  0.95746678150E+02 -0.91634251148E+02 -0.20940405246E+03  0.24781912667E+03  0.00000000000E+00 0.  1.
          1    1    6    6  503    0 -0.11315500650E+03  0.33775654458E+03 -0.44348931550E+03  0.56882889507E+03  0.00000000000E+00 0. -1.
         -1    1    6    6    0  503 -0.28278579275E+02  0.67100571629E+02 -0.17277686714E+03  0.18749402811E+03  0.00000000000E+00 0.  1.
<mgrwt>
<rscale>  0 0.19437701E+04</rscale>
<asrwt>0</asrwt>
<pdfrwt beam="1">  1        2 0.18650346E+00 0.19437701E+04</pdfrwt>
<pdfrwt beam="2">  1       -1 0.11987157E+00 0.19437701E+04</pdfrwt>
<totfact> 0.12301937E+01</totfact>
</mgrwt>
</event>
<event>
12    6  0.1530720E-007  0.2180715E+04  0.7818608E-02  0.8526498E-01
         -1   -1    0    0    0  501 -0.00000000000E+00  0.00000000000E+00  0.92508485163E+03  0.92508485163E+03  0.00000000000E+00 0.  1.
          2   -1    0    0  501    0  0.00000000000E+00 -0.00000000000E+00 -0.12851572334E+04  0.12851572334E+04  0.00000000000E+00 0. -1.
         24    2    1    2    0    0  0.34640691779E+02  0.81498290317E+03  0.23823568887E+03  0.85358123561E+03  0.80296776681E+02 0.  0.
        254    2    1    2    0    0 -0.34640691779E+02 -0.81498290317E+03 -0.59830807069E+03  0.13566608495E+04  0.90396847458E+03 0.  0.
         23    2    4    4    0    0 -0.19045203065E+03 -0.95950887365E+02  0.17187331836E+03  0.28757037159E+03  0.87622669958E+02 0.  0.
         23    2    4    4    0    0  0.15581133887E+03 -0.71903201581E+03 -0.77018138905E+03  0.10690904779E+04  0.92145888466E+02 0.  0.
          4    1    3    3  502    0  0.20595884324E+02  0.63295800460E+03  0.21861230573E+03  0.66996370518E+03  0.00000000000E+00 0. -1.
         -3    1    3    3    0  502  0.14044807456E+02  0.18202489857E+03  0.19623383140E+02  0.18361753043E+03  0.00000000000E+00 0.  1.
         11    1    5    5    0    0 -0.11645498979E+03 -0.25317726968E+02  0.52123148263E+02  0.13007526487E+03  0.00000000000E+00 0. -1.
        -11    1    5    5    0    0 -0.73997040851E+02 -0.70633160397E+02  0.11975017010E+03  0.15749510672E+03  0.00000000000E+00 0.  1.
          1    1    6    6  503    0  0.15719766481E+03 -0.71119505586E+03 -0.77152576767E+03  0.10610190967E+04  0.00000000000E+00 0. -1.
         -1    1    6    6    0  503 -0.13863259412E+01 -0.78369599438E+01  0.13443786170E+01  0.80713812103E+01  0.00000000000E+00 0.  1.
<mgrwt>
<rscale>  0 0.21807150E+04</rscale>
<asrwt>0</asrwt>
<pdfrwt beam="1">  1        2 0.19771650E+00 0.21807150E+04</pdfrwt>
<pdfrwt beam="2">  1       -1 0.14232075E+00 0.21807150E+04</pdfrwt>
<totfact> 0.70649039E+00</totfact>
</mgrwt>
</event>
<event>
12    6  0.1530720E-007  0.1682757E+04  0.7818608E-02  0.8771260E-01
         -1   -1    0    0    0  501 -0.00000000000E+00  0.00000000000E+00  0.59424968825E+03  0.59424968825E+03  0.00000000000E+00 0.  1.
          2   -1    0    0  501    0  0.00000000000E+00 -0.00000000000E+00 -0.11912802850E+04  0.11912802850E+04  0.00000000000E+00 0. -1.
         24    2    1    2    0    0 -0.40150904576E+03  0.66120094135E+02 -0.67703962042E+03  0.79394263053E+03  0.79880362261E+02 0.  0.
        254    2    1    2    0    0  0.40150904576E+03 -0.66120094135E+02  0.80009023713E+02  0.99158734269E+03  0.90070118998E+03 0.  0.
         23    2    4    4    0    0  0.52851018742E+03  0.27780798074E+03 -0.35945109138E+01  0.60442479896E+03  0.93894220897E+02 0.  0.
         23    2    4    4    0    0 -0.12700114166E+03 -0.34392807488E+03  0.83603534627E+02  0.38716254373E+03  0.92138339429E+02 0.  0.
          4    1    3    3  502    0 -0.35711322725E+03  0.46259706357E+02 -0.63336784764E+03  0.72857713932E+03  0.00000000000E+00 0. -1.
         -3    1    3    3    0  502 -0.44395818502E+02  0.19860387778E+02 -0.43671772782E+02  0.65365491210E+02  0.00000000000E+00 0.  1.
         11    1    5    5    0    0  0.28909072509E+03  0.99133453025E+02 -0.59818102110E+01  0.30567412533E+03  0.00000000000E+00 0. -1.
        -11    1    5    5    0    0  0.23941946233E+03  0.17867452772E+03  0.23872992972E+01  0.29875067363E+03  0.00000000000E+00 0.  1.
          4    1    6    6  503    0 -0.97779479550E+02 -0.13968321570E+03  0.22525523226E+02  0.17198728606E+03  0.00000000000E+00 0. -1.
         -4    1    6    6    0  503 -0.29221662112E+02 -0.20424485917E+03  0.61078011401E+02  0.21517525767E+03  0.00000000000E+00 0.  1.
<mgrwt>
<rscale>  0 0.16827572E+04</rscale>
<asrwt>0</asrwt>
<pdfrwt beam="1">  1        2 0.18327389E+00 0.16827572E+04</pdfrwt>
<pdfrwt beam="2">  1       -1 0.91423030E-01 0.16827572E+04</pdfrwt>
<totfact> 0.24303264E+01</totfact>
</mgrwt>
</event>
<event>
12    6  0.1530720E-007  0.1921433E+04  0.7818608E-02  0.8644261E-01
          2   -1    0    0  501    0  0.00000000000E+00  0.00000000000E+00  0.66971610126E+03  0.66971610126E+03  0.00000000000E+00 0. -1.
         -1   -1    0    0    0  501 -0.00000000000E+00 -0.00000000000E+00 -0.13781610485E+04  0.13781610485E+04  0.00000000000E+00 0.  1.
         24    2    1    2    0    0  0.64631218394E+03 -0.15115978501E+03  0.85221736637E+02  0.67401936064E+03  0.80440253727E+02 0.  0.
        254    2    1    2    0    0 -0.64631218394E+03  0.15115978501E+03 -0.79366668384E+03  0.13738577891E+04  0.90388588873E+03 0.  0.
         23    2    4    4    0    0  0.17265131721E+03  0.12718760836E+03 -0.39475863592E+03  0.45818531359E+03  0.90079053629E+02 0.  0.
         23    2    4    4    0    0 -0.81896350115E+03  0.23972176653E+02 -0.39890804792E+03  0.91567247548E+03  0.89736114215E+02 0.  0.
          4    1    3    3  502    0  0.27742642124E+03 -0.63175397388E+02  0.76720686352E+02  0.29469070863E+03  0.00000000000E+00 0. -1.
         -1    1    3    3    0  502  0.36888576269E+03 -0.87984387621E+02  0.85010502850E+01  0.37932865201E+03  0.00000000000E+00 0.  1.
         11    1    5    5    0    0  0.86819874483E+01  0.37320918040E+02 -0.31401308349E+02  0.49540589373E+02  0.00000000000E+00 0. -1.
        -11    1    5    5    0    0  0.16396932976E+03  0.89866690316E+02 -0.36335732757E+03  0.40864472422E+03  0.00000000000E+00 0.  1.
          3    1    6    6  503    0 -0.14710011136E+03  0.15115676260E+02 -0.10985497752E+03  0.18421466422E+03  0.00000000000E+00 0. -1.
         -3    1    6    6    0  503 -0.67186338979E+03  0.88565003928E+01 -0.28905307040E+03  0.73145781126E+03  0.00000000000E+00 0.  1.
<mgrwt>
<rscale>  0 0.19214335E+04</rscale>
<asrwt>0</asrwt>
<pdfrwt beam="1">  1        2 0.10303325E+00 0.19214335E+04</pdfrwt>
<pdfrwt beam="2">  1       -1 0.21202478E+00 0.19214335E+04</pdfrwt>
<totfact> 0.57592566E+00</totfact>
</mgrwt>
</event>
<event>
12    6  0.1530720E-007  0.1843166E+04  0.7818608E-02  0.8683675E-01
         -1   -1    0    0    0  501 -0.00000000000E+00  0.00000000000E+00  0.37798802657E+03  0.37798802657E+03  0.00000000000E+00 0.  1.
          2   -1    0    0  501    0  0.00000000000E+00 -0.00000000000E+00 -0.22469378131E+04  0.22469378131E+04  0.00000000000E+00 0. -1.
         24    2    1    2    0    0 -0.56659841076E+02 -0.69588481381E+02  0.27547334285E+03  0.29999961315E+03  0.77854421447E+02 0.  0.
        254    2    1    2    0    0  0.56659841076E+02  0.69588481381E+02 -0.21444231294E+04  0.23249262265E+04  0.89368814842E+03 0.  0.
         23    2    4    4    0    0  0.29889786783E+03 -0.15776223687E+03 -0.18152135962E+04  0.18486569000E+04  0.91121212232E+02 0.  0.
         23    2    4    4    0    0 -0.24223802676E+03  0.22735071825E+03 -0.32920953320E+03  0.47626932654E+03  0.89921876960E+02 0.  0.
          2    1    3    3  502    0  0.17409437091E+02 -0.48648593191E+01  0.24563087715E+02  0.30497551281E+02  0.00000000000E+00 0. -1.
         -1    1    3    3    0  502 -0.74069278168E+02 -0.64723622062E+02  0.25091025513E+03  0.26950206187E+03  0.00000000000E+00 0.  1.
         11    1    5    5    0    0 -0.65968708765E+00 -0.14183057725E+02 -0.36011919618E+02  0.38709852338E+02  0.00000000000E+00 0. -1.
        -11    1    5    5    0    0  0.29955755492E+03 -0.14357917914E+03 -0.17792016766E+04  0.18099470477E+04  0.00000000000E+00 0.  1.
          3    1    6    6  503    0 -0.62513362476E+02  0.62522251481E+02 -0.14819890582E+03  0.17256844469E+03  0.00000000000E+00 0. -1.
         -3    1    6    6    0  503 -0.17972466428E+03  0.16482846677E+03 -0.18101062738E+03  0.30370088184E+03  0.00000000000E+00 0.  1.
<mgrwt>
<rscale>  0 0.18431664E+04</rscale>
<asrwt>0</asrwt>
<pdfrwt beam="1">  1        2 0.34568274E+00 0.18431664E+04</pdfrwt>
<pdfrwt beam="2">  1       -1 0.58152005E-01 0.18431664E+04</pdfrwt>
<totfact> 0.15598369E+01</totfact>
</mgrwt>
</event>
<event>
12    6  0.1530720E-007  0.1321454E+04  0.7818608E-02  0.9012722E-01
          2   -1    0    0  501    0  0.00000000000E+00  0.00000000000E+00  0.42278603346E+03  0.42278603346E+03  0.00000000000E+00 0. -1.
         -1   -1    0    0    0  501 -0.00000000000E+00 -0.00000000000E+00 -0.10325801893E+04  0.10325801893E+04  0.00000000000E+00 0.  1.
         24    2    1    2    0    0  0.77957093153E+02 -0.33938100843E+03 -0.25154763286E+03  0.44107676645E+03  0.10007859440E+03 0.  0.
        254    2    1    2    0    0 -0.77957093153E+02  0.33938100843E+03 -0.35824652298E+03  0.10142894563E+04  0.88271498950E+03 0.  0.
         23    2    4    4    0    0  0.35133343718E+03  0.12479070330E+03  0.37075860046E+02  0.38554295800E+03  0.90889214737E+02 0.  0.
         23    2    4    4    0    0 -0.42929053033E+03  0.21459030512E+03 -0.39532238303E+03  0.62874649830E+03  0.93289946502E+02 0.  0.
          2    1    3    3  502    0  0.64816258663E+02 -0.10244241041E+03 -0.11602801026E+03  0.16780373655E+03  0.00000000000E+00 0. -1.
         -1    1    3    3    0  502  0.13140834491E+02 -0.23693859802E+03 -0.13551962260E+03  0.27327302990E+03  0.00000000000E+00 0.  1.
         11    1    5    5    0    0  0.12283583349E+03  0.11430680117E+02  0.42301795393E+02  0.13041757677E+03  0.00000000000E+00 0. -1.
        -11    1    5    5    0    0  0.22849760369E+03  0.11336002318E+03 -0.52259353469E+01  0.25512538123E+03  0.00000000000E+00 0.  1.
          1    1    6    6  503    0 -0.88025832852E+01  0.68372154327E+01  0.49079955164E+01  0.12178727658E+02  0.00000000000E+00 0. -1.
         -1    1    6    6    0  503 -0.42048794705E+03  0.20775308969E+03 -0.40023037855E+03  0.61656777065E+03  0.00000000000E+00 0.  1.
<mgrwt>
<rscale>  0 0.13214545E+04</rscale>
<asrwt>0</asrwt>
<pdfrwt beam="1">  1        2 0.65044005E-01 0.13214545E+04</pdfrwt>
<pdfrwt beam="2">  1       -1 0.15885849E+00 0.13214545E+04</pdfrwt>
<totfact> 0.24932258E+01</totfact>
</mgrwt>
</event>
<event>
12    6  0.1530720E-007  0.1314838E+04  0.7818608E-02  0.9017880E-01
          2   -1    0    0  501    0  0.00000000000E+00  0.00000000000E+00  0.12305227123E+04  0.12305227123E+04  0.00000000000E+00 0. -1.
         -1   -1    0    0    0  501 -0.00000000000E+00 -0.00000000000E+00 -0.35123281106E+03  0.35123281106E+03  0.00000000000E+00 0.  1.
         24    2    1    2    0    0 -0.24042862016E+03 -0.42985574454E+02  0.49189883581E+03  0.55531070367E+03  0.82169531650E+02 0.  0.
        254    2    1    2    0    0  0.24042862016E+03  0.42985574454E+02  0.38739106541E+03  0.10264448197E+04  0.91862040543E+03 0.  0.
         23    2    4    4    0    0 -0.16255661277E+03 -0.20677951280E+03  0.46069599917E+03  0.53797312524E+03  0.89397206682E+02 0.  0.
         23    2    4    4    0    0  0.40298523293E+03  0.24976508725E+03 -0.73304933758E+02  0.48847169443E+03  0.91930877175E+02 0.  0.
          4    1    3    3  502    0 -0.24358293415E+03 -0.31301770372E+02  0.46949426354E+03  0.52984649677E+03  0.00000000000E+00 0. -1.
         -3    1    3    3    0  502  0.31543139872E+01 -0.11683804081E+02  0.22404572267E+02  0.25464206899E+02  0.00000000000E+00 0.  1.
         11    1    5    5    0    0  0.69265979355E+01 -0.37957076827E+02  0.64050986812E+02  0.74774637089E+02  0.00000000000E+00 0.  1.
        -11    1    5    5    0    0 -0.16948321071E+03 -0.16882243597E+03  0.39664501235E+03  0.46319848815E+03  0.00000000000E+00 0. -1.
          4    1    6    6  503    0  0.31481013014E+03  0.15848100073E+03 -0.27419970352E+02  0.35351591252E+03  0.00000000000E+00 0. -1.
         -4    1    6    6    0  503  0.88175102786E+02  0.91284086524E+02 -0.45884963406E+02  0.13495578191E+03  0.00000000000E+00 0.  1.
<mgrwt>
<rscale>  0 0.13148383E+04</rscale>
<asrwt>0</asrwt>
<pdfrwt beam="1">  1        2 0.18931118E+00 0.13148383E+04</pdfrwt>
<pdfrwt beam="2">  1       -1 0.54035818E-01 0.13148383E+04</pdfrwt>
<totfact> 0.70098909E+01</totfact>
</mgrwt>
</event>
<event>
12    6  0.1530720E-007  0.1207285E+04  0.7818608E-02  0.9106504E-01
         -1   -1    0    0    0  501 -0.00000000000E+00  0.00000000000E+00  0.26156971123E+03  0.26156971123E+03  0.00000000000E+00 0.  1.
          2   -1    0    0  501    0  0.00000000000E+00 -0.00000000000E+00 -0.13930669235E+04  0.13930669235E+04  0.00000000000E+00 0. -1.
         24    2    1    2    0    0 -0.21834208037E+03 -0.58855116777E+02 -0.99792006607E+02  0.25984224410E+03  0.80139618203E+02 0.  0.
        254    2    1    2    0    0  0.21834208037E+03  0.58855116777E+02 -0.10317052057E+04  0.13947943907E+04  0.91098769032E+03 0.  0.
         23    2    4    4    0    0  0.55445018169E+03 -0.11168486498E+02 -0.48190412228E+03  0.74019965179E+03  0.90134357337E+02 0.  0.
         23    2    4    4    0    0 -0.33610810132E+03  0.70023603276E+02 -0.54980108342E+03  0.65459473887E+03  0.91329513499E+02 0.  0.
          4    1    3    3  502    0 -0.11028076030E+03 -0.14022170331E+02 -0.85877052192E+01  0.11149984769E+03  0.00000000000E+00 0. -1.
         -3    1    3    3    0  502 -0.10806132007E+03 -0.44832946446E+02 -0.91204301388E+02  0.14834239641E+03  0.00000000000E+00 0.  1.
         11    1    5    5    0    0  0.18351989358E+03  0.37407440183E+02 -0.17485142626E+03  0.25622624609E+03  0.00000000000E+00 0. -1.
        -11    1    5    5    0    0  0.37093028812E+03 -0.48575926681E+02 -0.30705269602E+03  0.48397340570E+03  0.00000000000E+00 0.  1.
          1    1    6    6  503    0 -0.83502083940E+02 -0.20315564680E+02 -0.15583821897E+03  0.17796311607E+03  0.00000000000E+00 0. -1.
         -1    1    6    6    0  503 -0.25260601738E+03  0.90339167955E+02 -0.39396286445E+03  0.47663162279E+03  0.00000000000E+00 0.  1.
<mgrwt>
<rscale>  0 0.12072847E+04</rscale>
<asrwt>0</asrwt>
<pdfrwt beam="1">  1        2 0.21431798E+00 0.12072847E+04</pdfrwt>
<pdfrwt beam="2">  1       -1 0.40241495E-01 0.12072847E+04</pdfrwt>
<totfact> 0.98825213E+01</totfact>
</mgrwt>
</event>
<event>
12    6  0.1530720E-007  0.2062851E+04  0.7818608E-02  0.8577787E-01
         -1   -1    0    0    0  501 -0.00000000000E+00  0.00000000000E+00  0.10614701575E+04  0.10614701575E+04  0.00000000000E+00 0.  1.
          2   -1    0    0  501    0  0.00000000000E+00 -0.00000000000E+00 -0.10022313761E+04  0.10022313761E+04  0.00000000000E+00 0. -1.
         24    2    1    2    0    0 -0.41837447864E+03 -0.62838429015E+03 -0.36699803778E+03  0.84360246414E+03  0.84104323788E+02 0.  0.
        254    2    1    2    0    0  0.41837447864E+03  0.62838429015E+03  0.42623681917E+03  0.12200990696E+04  0.85852192344E+03 0.  0.
         23    2    4    4    0    0 -0.78624866068E+02  0.41579933578E+03  0.50597226055E+03  0.66618206551E+03  0.93379113120E+02 0.  0.
         23    2    4    4    0    0  0.49699934471E+03  0.21258495437E+03 -0.79735441377E+02  0.55391700404E+03  0.90915319333E+02 0.  0.
          2    1    3    3  502    0 -0.31344500921E+03 -0.52878262486E+03 -0.28915461609E+03  0.67931526566E+03  0.00000000000E+00 0. -1.
         -1    1    3    3    0  502 -0.10492946943E+03 -0.99601665289E+02 -0.77843421692E+02  0.16428719848E+03  0.00000000000E+00 0.  1.
         11    1    5    5    0    0 -0.90267094076E+02  0.41058120808E+03  0.49430707868E+03  0.64889487957E+03  0.00000000000E+00 0. -1.
        -11    1    5    5    0    0  0.11642228009E+02  0.52181276967E+01  0.11665181870E+02  0.17287185940E+02  0.00000000000E+00 0.  1.
          2    1    6    6  503    0  0.21152137517E+03  0.12687659063E+03 -0.53709494936E+01  0.24671402170E+03  0.00000000000E+00 0. -1.
         -2    1    6    6    0  503  0.28547796954E+03  0.85708363731E+02 -0.74364491884E+02  0.30720298234E+03  0.00000000000E+00 0.  1.
<mgrwt>
<rscale>  0 0.20628511E+04</rscale>
<asrwt>0</asrwt>
<pdfrwt beam="1">  1        2 0.15418944E+00 0.20628511E+04</pdfrwt>
<pdfrwt beam="2">  1       -1 0.16330310E+00 0.20628511E+04</pdfrwt>
<totfact> 0.73041708E+00</totfact>
</mgrwt>
</event>
<event>
12    6  0.1530720E-007  0.2171752E+04  0.7818608E-02  0.8530278E-01
          2   -1    0    0  501    0  0.00000000000E+00  0.00000000000E+00  0.34878026817E+04  0.34878026817E+04  0.00000000000E+00 0. -1.
         -1   -1    0    0    0  501 -0.00000000000E+00 -0.00000000000E+00 -0.33807146780E+03  0.33807146780E+03  0.00000000000E+00 0.  1.
         24    2    1    2    0    0 -0.53179553881E+02 -0.36149892549E+03  0.27429558402E+04  0.27682977748E+04  0.78462032800E+02 0.  0.
        254    2    1    2    0    0  0.53179553881E+02  0.36149892549E+03  0.40677537368E+03  0.10575763747E+04  0.90525799944E+03 0.  0.
         23    2    4    4    0    0 -0.24213530987E+03 -0.18332986274E+03  0.27435624252E+03  0.41758629739E+03  0.82871111370E+02 0.  0.
         23    2    4    4    0    0  0.29531486375E+03  0.54482878824E+03  0.13241913116E+03  0.63999007728E+03  0.89460580602E+02 0.  0.
          4    1    3    3  502    0 -0.46004775614E+02 -0.34732620684E+03  0.24515210614E+04  0.24764303842E+04  0.00000000000E+00 0. -1.
         -3    1    3    3    0  502 -0.71747782669E+01 -0.14172718657E+02  0.29143477884E+03  0.29186739063E+03  0.00000000000E+00 0.  1.
         11    1    5    5    0    0 -0.24788630373E+03 -0.17919020812E+03  0.27373630497E+03  0.41047328162E+03  0.00000000000E+00 0.  1.
        -11    1    5    5    0    0  0.57509938646E+01 -0.41396546243E+01  0.61993755492E+00  0.71130157747E+01  0.00000000000E+00 0. -1.
          4    1    6    6  503    0  0.43281298494E+02  0.73611704618E+02 -0.12503092553E+02  0.86303425074E+02  0.00000000000E+00 0. -1.
         -4    1    6    6    0  503  0.25203356526E+03  0.47121708362E+03  0.14492222371E+03  0.55368665221E+03  0.00000000000E+00 0.  1.
<mgrwt>
<rscale>  0 0.21717519E+04</rscale>
<asrwt>0</asrwt>
<pdfrwt beam="1">  1        2 0.53658500E+00 0.21717519E+04</pdfrwt>
<pdfrwt beam="2">  1       -1 0.52010997E-01 0.21717519E+04</pdfrwt>
<totfact> 0.32291541E+00</totfact>
</mgrwt>
</event>
<event>
12    6  0.1530720E-007  0.1801280E+04  0.7818608E-02  0.8705619E-01
          2   -1    0    0  501    0  0.00000000000E+00  0.00000000000E+00  0.73011578072E+03  0.73011578072E+03  0.00000000000E+00 0. -1.
         -1   -1    0    0    0  501 -0.00000000000E+00 -0.00000000000E+00 -0.11109912490E+04  0.11109912490E+04  0.00000000000E+00 0.  1.
         24    2    1    2    0    0 -0.39073836566E+03  0.46668432363E+03 -0.42407190943E+03  0.74594491767E+03  0.78269454485E+02 0.  0.
        254    2    1    2    0    0  0.39073836566E+03 -0.46668432363E+03  0.43196441134E+02  0.10951621121E+04  0.90941926021E+03 0.  0.
         23    2    4    4    0    0  0.42876158445E+03 -0.49571734247E+02 -0.30953740499E+03  0.53986718311E+03  0.96691867158E+02 0.  0.
         23    2    4    4    0    0 -0.38023218787E+02 -0.41711258938E+03  0.35273384613E+03  0.55529492895E+03  0.92209622763E+02 0.  0.
          2    1    3    3  502    0 -0.82326560733E+02  0.85778550936E+02 -0.48171282285E+02  0.12828131134E+03  0.00000000000E+00 0. -1.
         -1    1    3    3    0  502 -0.30841180493E+03  0.38090577269E+03 -0.37590062715E+03  0.61766360633E+03  0.00000000000E+00 0.  1.
         11    1    5    5    0    0  0.41712975819E+03 -0.30016201352E+02 -0.28326317563E+03  0.50511012084E+03  0.00000000000E+00 0. -1.
        -11    1    5    5    0    0  0.11631826263E+02 -0.19555532895E+02 -0.26274229361E+02  0.34757062269E+02  0.00000000000E+00 0.  1.
          4    1    6    6  503    0 -0.58500521787E+02 -0.34608632393E+03  0.26053681895E+03  0.43712411131E+03  0.00000000000E+00 0. -1.
         -4    1    6    6    0  503  0.20477303001E+02 -0.71026265450E+02  0.92197027171E+02  0.11817081764E+03  0.00000000000E+00 0.  1.
<mgrwt>
<rscale>  0 0.18012798E+04</rscale>
<asrwt>0</asrwt>
<pdfrwt beam="1">  1        2 0.11232551E+00 0.18012798E+04</pdfrwt>
<pdfrwt beam="2">  1       -1 0.17092173E+00 0.18012798E+04</pdfrwt>
<totfact> 0.10136763E+01</totfact>
</mgrwt>
</event>
<event>
12    6  0.1530720E-007  0.2088219E+04  0.7818608E-02  0.8566451E-01
          2   -1    0    0  501    0  0.00000000000E+00  0.00000000000E+00  0.22223966055E+04  0.22223966055E+04  0.00000000000E+00 0. -1.
         -1   -1    0    0    0  501 -0.00000000000E+00 -0.00000000000E+00 -0.49053567966E+03  0.49053567966E+03  0.00000000000E+00 0.  1.
         24    2    1    2    0    0  0.80189649976E+03  0.25668560649E+03  0.79403627866E+03  0.11603653318E+04  0.83836713733E+02 0.  0.
        254    2    1    2    0    0 -0.80189649976E+03 -0.25668560649E+03  0.93782464721E+03  0.15525669534E+04  0.90665515985E+03 0.  0.
         23    2    4    4    0    0  0.18439845727E+03 -0.45349094556E+02  0.82678930733E+02  0.22699565228E+03  0.92907960614E+02 0.  0.
         23    2    4    4    0    0 -0.98629495702E+03 -0.21133651193E+03  0.85514571648E+03  0.13255713011E+04  0.91783518924E+02 0.  0.
          2    1    3    3  502    0  0.80285134419E+03  0.25856893632E+03  0.78926729241E+03  0.11551497888E+04  0.00000000000E+00 0. -1.
         -1    1    3    3    0  502 -0.95484443455E+00 -0.18833298331E+01  0.47689862530E+01  0.52155430241E+01  0.00000000000E+00 0.  1.
         11    1    5    5    0    0  0.15267446013E+03 -0.69034318249E+01  0.32459960911E+02  0.15623955072E+03  0.00000000000E+00 0. -1.
        -11    1    5    5    0    0  0.31723997135E+02 -0.38445662731E+02  0.50218969822E+02  0.70756101554E+02  0.00000000000E+00 0.  1.
          2    1    6    6  503    0 -0.93951496858E+03 -0.18550823319E+03  0.82621644589E+03  0.12648064264E+04  0.00000000000E+00 0. -1.
         -2    1    6    6    0  503 -0.46779988446E+02 -0.25828278738E+02  0.28929270585E+02  0.60764874707E+02  0.00000000000E+00 0.  1.
<mgrwt>
<rscale>  0 0.20882192E+04</rscale>
<asrwt>0</asrwt>
<pdfrwt beam="1">  1        2 0.34190717E+00 0.20882192E+04</pdfrwt>
<pdfrwt beam="2">  1       -1 0.75467028E-01 0.20882192E+04</pdfrwt>
<totfact> 0.92943989E+00</totfact>
</mgrwt>
</event>
<event>
12    6  0.1530720E-007  0.2105161E+04  0.7818608E-02  0.8558973E-01
         -1   -1    0    0    0  501 -0.00000000000E+00  0.00000000000E+00  0.65166400448E+03  0.65166400448E+03  0.00000000000E+00 0.  1.
          2   -1    0    0  501    0  0.00000000000E+00 -0.00000000000E+00 -0.17001483028E+04  0.17001483028E+04  0.00000000000E+00 0. -1.
         24    2    1    2    0    0 -0.29626991551E+03 -0.62952979978E+03  0.12295707176E+03  0.71126187217E+03  0.81800841427E+02 0.  0.
        254    2    1    2    0    0  0.29626991551E+03  0.62952979978E+03 -0.11714413701E+04  0.16405504351E+04  0.91380917862E+03 0.  0.
         23    2    4    4    0    0  0.41360105101E+03 -0.69020792291E+02 -0.51704745008E+03  0.67197137514E+03  0.91530127305E+02 0.  0.
         23    2    4    4    0    0 -0.11733113550E+03  0.69855059207E+03 -0.65439391999E+03  0.96857905996E+03  0.90412763684E+02 0.  0.
          4    1    3    3  502    0 -0.51776824456E+02 -0.16232421601E+03  0.57903674554E+02  0.17995228863E+03  0.00000000000E+00 0. -1.
         -3    1    3    3    0  502 -0.24449309105E+03 -0.46720558376E+03  0.65053397207E+02  0.53130958354E+03  0.00000000000E+00 0.  1.
         11    1    5    5    0    0  0.47139636539E+02 -0.13620560215E+02 -0.22558837589E+02  0.54005241847E+02  0.00000000000E+00 0. -1.
        -11    1    5    5    0    0  0.36646141447E+03 -0.55400232075E+02 -0.49448861249E+03  0.61796613329E+03  0.00000000000E+00 0.  1.
          3    1    6    6  503    0  0.13394228862E+02  0.30321730027E+02 -0.28291964643E+02  0.43580361885E+02  0.00000000000E+00 0. -1.
         -3    1    6    6    0  503 -0.13072536436E+03  0.66822886204E+03 -0.62610195535E+03  0.92499869808E+03  0.00000000000E+00 0.  1.
<mgrwt>
<rscale>  0 0.21051608E+04</rscale>
<asrwt>0</asrwt>
<pdfrwt beam="1">  1        2 0.26156127E+00 0.21051608E+04</pdfrwt>
<pdfrwt beam="2">  1       -1 0.10025600E+00 0.21051608E+04</pdfrwt>
<totfact> 0.97464188E+00</totfact>
</mgrwt>
</event>
<event>
12    6  0.1530720E-007  0.1288299E+04  0.7818608E-02  0.9038896E-01
         -1   -1    0    0    0  501 -0.00000000000E+00  0.00000000000E+00  0.20858136195E+03  0.20858136195E+03  0.00000000000E+00 0.  1.
          2   -1    0    0  501    0  0.00000000000E+00 -0.00000000000E+00 -0.19892886456E+04  0.19892886456E+04  0.00000000000E+00 0. -1.
         24    2    1    2    0    0  0.20161125383E+03  0.15748302456E+03 -0.12646930218E+03  0.29605683702E+03  0.78785567560E+02 0.  0.
        254    2    1    2    0    0 -0.20161125383E+03 -0.15748302456E+03 -0.16542379815E+04  0.19018131705E+04  0.90274140017E+03 0.  0.
         23    2    4    4    0    0 -0.52133690411E+03 -0.18474748057E+03 -0.73578651450E+03  0.92484968362E+03  0.89673536785E+02 0.  0.
         23    2    4    4    0    0  0.31972565028E+03  0.27264456011E+02 -0.91845146698E+03  0.97696348692E+03  0.89088246044E+02 0.  0.
          4    1    3    3  502    0  0.17410251819E+03  0.15501824119E+03 -0.13199589789E+03  0.26789038617E+03  0.00000000000E+00 0. -1.
         -3    1    3    3    0  502  0.27508735634E+02  0.24647833744E+01  0.55265957087E+01  0.28166450849E+02  0.00000000000E+00 0.  1.
         11    1    5    5    0    0 -0.29700285524E+03 -0.58084648034E+02 -0.40494556396E+03  0.50553479814E+03  0.00000000000E+00 0. -1.
        -11    1    5    5    0    0 -0.22433404887E+03 -0.12666283254E+03 -0.33084095054E+03  0.41931488548E+03  0.00000000000E+00 0.  1.
          2    1    6    6  503    0  0.20124492550E+03  0.59142135954E+02 -0.55140694264E+03  0.58995502259E+03  0.00000000000E+00 0.  1.
         -2    1    6    6    0  503  0.11848072478E+03 -0.31877679943E+02 -0.36704452433E+03  0.38700846434E+03  0.00000000000E+00 0. -1.
<mgrwt>
<rscale>  0 0.12882989E+04</rscale>
<asrwt>0</asrwt>
<pdfrwt beam="1">  1        2 0.30604443E+00 0.12882989E+04</pdfrwt>
<pdfrwt beam="2">  1       -1 0.32089438E-01 0.12882989E+04</pdfrwt>
<totfact> 0.68636766E+01</totfact>
</mgrwt>
</event>
<event>
12    6  0.1530720E-007  0.2145125E+04  0.7818608E-02  0.8541622E-01
         -1   -1    0    0    0  501 -0.00000000000E+00  0.00000000000E+00  0.93084407158E+03  0.93084407158E+03  0.00000000000E+00 0.  1.
          2   -1    0    0  501    0  0.00000000000E+00 -0.00000000000E+00 -0.12358576064E+04  0.12358576064E+04  0.00000000000E+00 0. -1.
         24    2    1    2    0    0 -0.76659804038E+03 -0.42292035395E+03 -0.16143148925E+03  0.89378112243E+03  0.79059394101E+02 0.  0.
        254    2    1    2    0    0  0.76659804038E+03  0.42292035395E+03 -0.14358204557E+03  0.12729205555E+04  0.91278516401E+03 0.  0.
         23    2    4    4    0    0  0.70058620336E+03  0.13341570458E+03 -0.44055717313E+03  0.84322526446E+03  0.91200028809E+02 0.  0.
         23    2    4    4    0    0  0.66011837018E+02  0.28950464937E+03  0.29697512756E+03  0.42969529109E+03  0.90957749316E+02 0.  0.
          4    1    3    3  502    0 -0.67231568576E+03 -0.34017102287E+03 -0.13238697084E+03  0.76501700384E+03  0.00000000000E+00 0. -1.
         -3    1    3    3    0  502 -0.94282354623E+02 -0.82749331078E+02 -0.29044518411E+02  0.12876411859E+03  0.00000000000E+00 0.  1.
         11    1    5    5    0    0  0.57344093316E+03  0.13743393281E+03 -0.33692752839E+03  0.67914854715E+03  0.00000000000E+00 0.  1.
        -11    1    5    5    0    0  0.12714527020E+03 -0.40182282330E+01 -0.10362964474E+03  0.16407671730E+03  0.00000000000E+00 0. -1.
          3    1    6    6  503    0  0.36579477337E+02  0.67842824556E+02  0.33273180079E+02  0.83951244890E+02  0.00000000000E+00 0. -1.
         -3    1    6    6    0  503  0.29432359680E+02  0.22166182482E+03  0.26370194748E+03  0.34574404620E+03  0.00000000000E+00 0.  1.
<mgrwt>
<rscale>  0 0.21451254E+04</rscale>
<asrwt>0</asrwt>
<pdfrwt beam="1">  1        2 0.19013194E+00 0.21451254E+04</pdfrwt>
<pdfrwt beam="2">  1       -1 0.14320678E+00 0.21451254E+04</pdfrwt>
<totfact> 0.74535417E+00</totfact>
</mgrwt>
</event>
<event>
12    6  0.1530720E-007  0.2037367E+04  0.7818608E-02  0.8589347E-01
          2   -1    0    0  501    0  0.00000000000E+00  0.00000000000E+00  0.54563650607E+04  0.54563650607E+04  0.00000000000E+00 0. -1.
         -1   -1    0    0    0  501 -0.00000000000E+00 -0.00000000000E+00 -0.19018449948E+03  0.19018449948E+03  0.00000000000E+00 0.  1.
         24    2    1    2    0    0  0.23336389666E+03 -0.78435432377E+03  0.22162238880E+04  0.23638907814E+04  0.81614281965E+02 0.  0.
        254    2    1    2    0    0 -0.23336389666E+03  0.78435432377E+03  0.30499566733E+04  0.32826587788E+04  0.89662842698E+03 0.  0.
         23    2    4    4    0    0  0.13524324057E+02 -0.13824065262E+03  0.10632723084E+04  0.10764523494E+04  0.94383650605E+02 0.  0.
         23    2    4    4    0    0 -0.24688822071E+03  0.92259497640E+03  0.19866843649E+04  0.22062064294E+04  0.91086549016E+02 0.  0.
          4    1    3    3  502    0  0.95446679144E+02 -0.25405627366E+03  0.64093080034E+03  0.69602223353E+03  0.00000000000E+00 0. -1.
         -3    1    3    3    0  502  0.13791721751E+03 -0.53029805011E+03  0.15752930877E+04  0.16678685478E+04  0.00000000000E+00 0.  1.
         11    1    5    5    0    0  0.22495872901E+01 -0.11754190954E+03  0.53998903353E+03  0.55263850524E+03  0.00000000000E+00 0. -1.
        -11    1    5    5    0    0  0.11274736767E+02 -0.20698743085E+02  0.52328327484E+03  0.52381384421E+03  0.00000000000E+00 0.  1.
          3    1    6    6  503    0 -0.69386930020E+02  0.25970819624E+03  0.46880233949E+03  0.54040589075E+03  0.00000000000E+00 0. -1.
         -3    1    6    6    0  503 -0.17750129069E+03  0.66288678016E+03  0.15178820254E+04  0.16658005386E+04  0.00000000000E+00 0.  1.
<mgrwt>
<rscale>  0 0.20373670E+04</rscale>
<asrwt>0</asrwt>
<pdfrwt beam="1">  1        2 0.83944066E+00 0.20373670E+04</pdfrwt>
<pdfrwt beam="2">  1       -1 0.29259158E-01 0.20373670E+04</pdfrwt>
<totfact> 0.83573979E-02</totfact>
</mgrwt>
</event>
<event>
12    6  0.1530720E-007  0.1484604E+04  0.7818608E-02  0.8894756E-01
         -1   -1    0    0    0  501 -0.00000000000E+00  0.00000000000E+00  0.19620355629E+03  0.19620355629E+03  0.00000000000E+00 0.  1.
          2   -1    0    0  501    0  0.00000000000E+00 -0.00000000000E+00 -0.28083710687E+04  0.28083710687E+04  0.00000000000E+00 0. -1.
         24    2    1    2    0    0 -0.32079452389E+03 -0.12179194082E+02 -0.15132750592E+04  0.15488665336E+04  0.76997887430E+02 0.  0.
        254    2    1    2    0    0  0.32079452389E+03  0.12179194082E+02 -0.10988924532E+04  0.14557080915E+04  0.89914624196E+03 0.  0.
         23    2    4    4    0    0  0.43421476398E+03  0.24694515526E+03 -0.25729257601E+03  0.56952099292E+03  0.92899519600E+02 0.  0.
         23    2    4    4    0    0 -0.11342024009E+03 -0.23476596118E+03 -0.84159987723E+03  0.88618709854E+03  0.95173593368E+02 0.  0.
          4    1    3    3  502    0 -0.18954066558E+03  0.87301849795E+01 -0.72247041846E+03  0.74697080638E+03  0.00000000000E+00 0. -1.
         -3    1    3    3    0  502 -0.13125385831E+03 -0.20909379061E+02 -0.79080464073E+03  0.80189572717E+03  0.00000000000E+00 0.  1.
         11    1    5    5    0    0  0.88255010781E+02  0.64721756653E+02 -0.99347687189E+02  0.14781006617E+03  0.00000000000E+00 0. -1.
        -11    1    5    5    0    0  0.34595975320E+03  0.18222339861E+03 -0.15794488882E+03  0.42171092675E+03  0.00000000000E+00 0.  1.
          3    1    6    6  503    0 -0.28764247248E+02 -0.43381096411E+02 -0.31942421913E+03  0.32363734830E+03  0.00000000000E+00 0. -1.
         -3    1    6    6    0  503 -0.84655992839E+02 -0.19138486477E+03 -0.52217565810E+03  0.56254975024E+03  0.00000000000E+00 0.  1.
<mgrwt>
<rscale>  0 0.14846042E+04</rscale>
<asrwt>0</asrwt>
<pdfrwt beam="1">  1        2 0.43205708E+00 0.14846042E+04</pdfrwt>
<pdfrwt beam="2">  1       -1 0.30185163E-01 0.14846042E+04</pdfrwt>
<totfact> 0.25554796E+01</totfact>
</mgrwt>
</event>
<event>
12    6  0.1530720E-007  0.1805078E+04  0.7818608E-02  0.8703604E-01
         -1   -1    0    0    0  501 -0.00000000000E+00  0.00000000000E+00  0.95984851307E+03  0.95984851307E+03  0.00000000000E+00 0.  1.
          2   -1    0    0  501    0  0.00000000000E+00 -0.00000000000E+00 -0.84865142974E+03  0.84865142974E+03  0.00000000000E+00 0. -1.
         24    2    1    2    0    0  0.88851823758E+02  0.62764519447E+03  0.22572711747E+03  0.67756989261E+03  0.79467547285E+02 0.  0.
        254    2    1    2    0    0 -0.88851823758E+02 -0.62764519447E+03 -0.11453003414E+03  0.11309300502E+04  0.92954425017E+03 0.  0.
         23    2    4    4    0    0 -0.40812664787E+03 -0.18805864980E+03 -0.30211296821E+03  0.54931994166E+03  0.92448560198E+02 0.  0.
         23    2    4    4    0    0  0.31927482411E+03 -0.43958654467E+03  0.18758293407E+03  0.58161010855E+03  0.88939404377E+02 0.  0.
          4    1    3    3  502    0 -0.35555251131E+01  0.59179183962E+02  0.83814403284E+00  0.59291821179E+02  0.00000000000E+00 0. -1.
         -3    1    3    3    0  502  0.92407348872E+02  0.56846601051E+03  0.22488897344E+03  0.61827807143E+03  0.00000000000E+00 0.  1.
         11    1    5    5    0    0 -0.37530546454E+03 -0.15316112655E+03 -0.29395953091E+03  0.50072420374E+03  0.00000000000E+00 0.  1.
        -11    1    5    5    0    0 -0.32821183330E+02 -0.34897523256E+02 -0.81534372993E+01  0.48595737924E+02  0.00000000000E+00 0. -1.
          1    1    6    6  503    0  0.26817805108E+03 -0.32468191850E+03  0.11552070428E+03  0.43667247268E+03  0.00000000000E+00 0. -1.
         -1    1    6    6    0  503  0.51096773027E+02 -0.11490462617E+03  0.72062229783E+02  0.14493763587E+03  0.00000000000E+00 0.  1.
<mgrwt>
<rscale>  0 0.18050782E+04</rscale>
<asrwt>0</asrwt>
<pdfrwt beam="1">  1        2 0.13056176E+00 0.18050782E+04</pdfrwt>
<pdfrwt beam="2">  1       -1 0.14766900E+00 0.18050782E+04</pdfrwt>
<totfact> 0.12468245E+01</totfact>
</mgrwt>
</event>
<event>
12    6  0.1530720E-007  0.2045452E+04  0.7818608E-02  0.8585660E-01
          2   -1    0    0  501    0  0.00000000000E+00  0.00000000000E+00  0.33969055589E+04  0.33969055589E+04  0.00000000000E+00 0. -1.
         -1   -1    0    0    0  501 -0.00000000000E+00 -0.00000000000E+00 -0.30791793808E+03  0.30791793808E+03  0.00000000000E+00 0.  1.
         24    2    1    2    0    0  0.20307671495E+03 -0.44365005333E+03  0.51394419502E+02  0.49712794607E+03  0.80182831298E+02 0.  0.
        254    2    1    2    0    0 -0.20307671495E+03  0.44365005333E+03  0.30375932013E+04  0.32076955509E+04  0.90789469028E+03 0.  0.
         23    2    4    4    0    0 -0.45264893606E+03 -0.47804187165E+02  0.15793846920E+04  0.16461046288E+04  0.89599910539E+02 0.  0.
         23    2    4    4    0    0  0.24957222110E+03  0.49145424050E+03  0.14582085093E+04  0.15615909221E+04  0.91545547948E+02 0.  0.
          2    1    3    3  502    0 -0.58334209740E+01 -0.10356707165E+02 -0.48223705404E+01  0.12827526698E+02  0.00000000000E+00 0. -1.
         -3    1    3    3    0  502  0.20891013593E+03 -0.43329334617E+03  0.56216790042E+02  0.48430041938E+03  0.00000000000E+00 0.  1.
         11    1    5    5    0    0 -0.13690495854E+03  0.39759933814E+01  0.35218502857E+03  0.37787970380E+03  0.00000000000E+00 0.  1.
        -11    1    5    5    0    0 -0.31574397752E+03 -0.51780180546E+02  0.12271996634E+04  0.12682249250E+04  0.00000000000E+00 0. -1.
          4    1    6    6  503    0  0.16762862806E+03  0.40226045342E+03  0.10861567007E+04  0.11703201304E+04  0.00000000000E+00 0. -1.
         -4    1    6    6    0  503  0.81943593040E+02  0.89193787080E+02  0.37205180866E+03  0.39127079168E+03  0.00000000000E+00 0.  1.
<mgrwt>
<rscale>  0 0.20454517E+04</rscale>
<asrwt>0</asrwt>
<pdfrwt beam="1">  1        2 0.52260083E+00 0.20454517E+04</pdfrwt>
<pdfrwt beam="2">  1       -1 0.47371993E-01 0.20454517E+04</pdfrwt>
<totfact> 0.45079454E+00</totfact>
</mgrwt>
</event>
<event>
12    6  0.1530720E-007  0.1891199E+04  0.7818608E-02  0.8659250E-01
          2   -1    0    0  501    0  0.00000000000E+00  0.00000000000E+00  0.24751256063E+04  0.24751256063E+04  0.00000000000E+00 0. -1.
         -1   -1    0    0    0  501 -0.00000000000E+00 -0.00000000000E+00 -0.36125776076E+03  0.36125776076E+03  0.00000000000E+00 0.  1.
         24    2    1    2    0    0  0.37239322718E+03 -0.12051580828E+03 -0.10266154262E+03  0.41306222210E+03  0.82947159669E+02 0.  0.
        254    2    1    2    0    0 -0.37239322718E+03  0.12051580828E+03  0.22165293882E+04  0.24233211450E+04  0.89793210619E+03 0.  0.
         23    2    4    4    0    0 -0.53334222950E+03  0.29276904875E+03  0.95239310545E+03  0.11340785892E+04  0.94413820073E+02 0.  0.
         23    2    4    4    0    0  0.16094900232E+03 -0.17225324047E+03  0.12641362827E+04  0.12892425558E+04  0.92358357513E+02 0.  0.
          4    1    3    3  502    0  0.72873207551E+02 -0.29068894162E+02 -0.56100626540E+02  0.96450947558E+02  0.00000000000E+00 0. -1.
         -3    1    3    3    0  502  0.29952001963E+03 -0.91446914116E+02 -0.46560916077E+02  0.31661127454E+03  0.00000000000E+00 0.  1.
         11    1    5    5    0    0 -0.37503384691E+02  0.52932370599E+02  0.10364020243E+03  0.12226868479E+03  0.00000000000E+00 0.  1.
        -11    1    5    5    0    0 -0.49583884481E+03  0.23983667815E+03  0.84875290302E+03  0.10118099044E+04  0.00000000000E+00 0. -1.
          3    1    6    6  503    0  0.10518334387E+03 -0.99927742743E+02  0.98287719300E+03  0.99352738569E+03  0.00000000000E+00 0. -1.
         -3    1    6    6    0  503  0.55765658448E+02 -0.72325497729E+02  0.28125908970E+03  0.29571517010E+03  0.00000000000E+00 0.  1.
<mgrwt>
<rscale>  0 0.18911989E+04</rscale>
<asrwt>0</asrwt>
<pdfrwt beam="1">  1        2 0.38078854E+00 0.18911989E+04</pdfrwt>
<pdfrwt beam="2">  1       -1 0.55578119E-01 0.18911989E+04</pdfrwt>
<totfact> 0.12580272E+01</totfact>
</mgrwt>
</event>
<event>
12    6  0.1530720E-007  0.1339036E+04  0.7818608E-02  0.8999169E-01
          2   -1    0    0  501    0  0.00000000000E+00  0.00000000000E+00  0.18511880175E+04  0.18511880175E+04  0.00000000000E+00 0. -1.
         -1   -1    0    0    0  501 -0.00000000000E+00 -0.00000000000E+00 -0.24214414917E+03  0.24214414917E+03  0.00000000000E+00 0.  1.
         24    2    1    2    0    0  0.23075925960E+03  0.23379735643E+03  0.67474247651E+03  0.75443208851E+03  0.77326106835E+02 0.  0.
        254    2    1    2    0    0 -0.23075925960E+03 -0.23379735643E+03  0.93430139186E+03  0.13389000782E+04  0.90101236885E+03 0.  0.
         23    2    4    4    0    0  0.29631842606E+03  0.40804974796E+01  0.11066474399E+03  0.32876571278E+03  0.89548580416E+02 0.  0.
         23    2    4    4    0    0 -0.52707768567E+03 -0.23787785391E+03  0.82363664787E+03  0.10101343654E+04  0.87162769461E+02 0.  0.
          4    1    3    3  502    0  0.20370368373E+03  0.22206474771E+03  0.55966132216E+03  0.63563254988E+03  0.00000000000E+00 0. -1.
         -3    1    3    3    0  502  0.27055575879E+02  0.11732608725E+02  0.11508115434E+03  0.11879953863E+03  0.00000000000E+00 0.  1.
         11    1    5    5    0    0  0.28690996742E+03  0.19905998138E+02  0.90596622781E+02  0.30153163388E+03  0.00000000000E+00 0. -1.
        -11    1    5    5    0    0  0.94084586391E+01 -0.15825500659E+02  0.20068121204E+02  0.27234078904E+02  0.00000000000E+00 0.  1.
          2    1    6    6  503    0 -0.73973913978E+02 -0.11056949318E+02  0.14551332590E+03  0.16361089234E+03  0.00000000000E+00 0.  1.
         -2    1    6    6    0  503 -0.45310377169E+03 -0.22682090460E+03  0.67812332197E+03  0.84652347309E+03  0.00000000000E+00 0. -1.
<mgrwt>
<rscale>  0 0.13390360E+04</rscale>
<asrwt>0</asrwt>
<pdfrwt beam="1">  1        2 0.28479815E+00 0.13390360E+04</pdfrwt>
<pdfrwt beam="2">  1       -1 0.37252947E-01 0.13390360E+04</pdfrwt>
<totfact> 0.62424368E+01</totfact>
</mgrwt>
</event>
<event>
12    6  0.1530720E-007  0.2185662E+04  0.7818608E-02  0.8524420E-01
          2   -1    0    0  501    0  0.00000000000E+00  0.00000000000E+00  0.25631398398E+04  0.25631398398E+04  0.00000000000E+00 0. -1.
         -1   -1    0    0    0  501 -0.00000000000E+00 -0.00000000000E+00 -0.46594387222E+03  0.46594387222E+03  0.00000000000E+00 0.  1.
         24    2    1    2    0    0 -0.43169182348E+03 -0.79834525683E+03  0.88883555559E+03  0.12728684125E+04  0.80326652919E+02 0.  0.
        254    2    1    2    0    0  0.43169182348E+03  0.79834525683E+03  0.12083604120E+04  0.17562152995E+04  0.89467553527E+03 0.  0.
         23    2    4    4    0    0  0.38028428595E+03  0.73711011130E+03  0.37452957088E+03  0.91388972615E+03  0.83513937596E+02 0.  0.
         23    2    4    4    0    0  0.51407537526E+02  0.61235145527E+02  0.83383084115E+03  0.84232557338E+03  0.88577773553E+02 0.  0.
          4    1    3    3  502    0 -0.43197062823E+03 -0.77660725241E+03  0.87478808198E+03  0.12469850186E+04  0.00000000000E+00 0. -1.
         -3    1    3    3    0  502  0.27880474855E+00 -0.21738004423E+02  0.14047473607E+02  0.25883393964E+02  0.00000000000E+00 0.  1.
         11    1    5    5    0    0  0.11430091837E+03  0.24615465583E+03  0.16425462238E+03  0.31723239983E+03  0.00000000000E+00 0.  1.
        -11    1    5    5    0    0  0.26598336758E+03  0.49095545547E+03  0.21027494850E+03  0.59665732632E+03  0.00000000000E+00 0. -1.
          3    1    6    6  503    0  0.14839734454E+02  0.75603685264E+02  0.63439949721E+03  0.63906091807E+03  0.00000000000E+00 0. -1.
         -3    1    6    6    0  503  0.36567803072E+02 -0.14368539737E+02  0.19943134394E+03  0.20326465532E+03  0.00000000000E+00 0.  1.
<mgrwt>
<rscale>  0 0.21856617E+04</rscale>
<asrwt>0</asrwt>
<pdfrwt beam="1">  1        2 0.39432920E+00 0.21856617E+04</pdfrwt>
<pdfrwt beam="2">  1       -1 0.71683675E-01 0.21856617E+04</pdfrwt>
<totfact> 0.65447873E+00</totfact>
</mgrwt>
</event>
<event>
12    6  0.1530720E-007  0.1796925E+04  0.7818608E-02  0.8707936E-01
          2   -1    0    0  501    0  0.00000000000E+00  0.00000000000E+00  0.54459317146E+03  0.54459317146E+03  0.00000000000E+00 0. -1.
         -1   -1    0    0    0  501 -0.00000000000E+00 -0.00000000000E+00 -0.14822713614E+04  0.14822713614E+04  0.00000000000E+00 0.  1.
         24    2    1    2    0    0 -0.13091718399E+03 -0.55300999385E+03 -0.74929642263E+03  0.94372544891E+03  0.78824054614E+02 0.  0.
        254    2    1    2    0    0  0.13091718399E+03  0.55300999385E+03 -0.18838176727E+03  0.10831390839E+04  0.90263127716E+03 0.  0.
         23    2    4    4    0    0 -0.12193399627E+03  0.23726564466E+02 -0.41767929953E+03  0.44654985451E+03  0.97570108098E+02 0.  0.
         23    2    4    4    0    0  0.25285118026E+03  0.52928342939E+03  0.22929753227E+03  0.63658922941E+03  0.92702862489E+02 0.  0.
          4    1    3    3  502    0 -0.27878921444E+02 -0.18979902001E+03 -0.30921660232E+03  0.36388983142E+03  0.00000000000E+00 0. -1.
         -3    1    3    3    0  502 -0.10303826254E+03 -0.36321097384E+03 -0.44007982031E+03  0.57983561749E+03  0.00000000000E+00 0.  1.
         11    1    5    5    0    0  0.28069049752E+01 -0.19959234947E+02 -0.10769184626E+03  0.10956177949E+03  0.00000000000E+00 0.  1.
        -11    1    5    5    0    0 -0.12474090125E+03  0.43685799413E+02 -0.30998745328E+03  0.33698807502E+03  0.00000000000E+00 0. -1.
          4    1    6    6  503    0  0.10222484326E+03  0.12203954464E+03  0.50553624199E+02  0.16703064975E+03  0.00000000000E+00 0. -1.
         -4    1    6    6    0  503  0.15062633700E+03  0.40724388475E+03  0.17874390807E+03  0.46955857966E+03  0.00000000000E+00 0.  1.
<mgrwt>
<rscale>  0 0.17969250E+04</rscale>
<asrwt>0</asrwt>
<pdfrwt beam="1">  1        2 0.83783565E-01 0.17969250E+04</pdfrwt>
<pdfrwt beam="2">  1       -1 0.22804175E+00 0.17969250E+04</pdfrwt>
<totfact> 0.58443315E+00</totfact>
</mgrwt>
</event>
<event>
12    6  0.1530720E-007  0.1605080E+04  0.7818608E-02  0.8817433E-01
          2   -1    0    0  501    0  0.00000000000E+00  0.00000000000E+00  0.90607582872E+03  0.90607582872E+03  0.00000000000E+00 0. -1.
         -1   -1    0    0    0  501 -0.00000000000E+00 -0.00000000000E+00 -0.71083518591E+03  0.71083518591E+03  0.00000000000E+00 0.  1.
         24    2    1    2    0    0 -0.26541206520E+03  0.36395959881E+03 -0.25415882284E+03  0.52338196757E+03  0.80136276615E+02 0.  0.
        254    2    1    2    0    0  0.26541206520E+03 -0.36395959881E+03  0.44939946566E+03  0.10935290471E+04  0.88934568257E+03 0.  0.
         23    2    4    4    0    0  0.59428299952E+02  0.43510267438E+02  0.59443893607E+03  0.60581509731E+03  0.90716135289E+02 0.  0.
         23    2    4    4    0    0  0.20598376525E+03 -0.40746986625E+03 -0.14503947041E+03  0.48771394975E+03  0.91473741349E+02 0.  0.
          4    1    3    3  502    0 -0.35534778924E+02  0.29072816410E+02 -0.34361566565E+01  0.46040811676E+02  0.00000000000E+00 0. -1.
         -3    1    3    3    0  502 -0.22987728628E+03  0.33488678240E+03 -0.25072266618E+03  0.47734115590E+03  0.00000000000E+00 0.  1.
         11    1    5    5    0    0  0.48072236243E+02  0.13721415457E+02  0.11598442400E+03  0.12629965855E+03  0.00000000000E+00 0.  1.
        -11    1    5    5    0    0  0.11356063709E+02  0.29788851981E+02  0.47845451207E+03  0.47951543876E+03  0.00000000000E+00 0. -1.
          4    1    6    6  503    0  0.17676495653E+03 -0.31945550008E+03 -0.78148940961E+02  0.37336968726E+03  0.00000000000E+00 0. -1.
         -4    1    6    6    0  503  0.29218808722E+02 -0.88014366169E+02 -0.66890529453E+02  0.11434426250E+03  0.00000000000E+00 0.  1.
<mgrwt>
<rscale>  0 0.16050802E+04</rscale>
<asrwt>0</asrwt>
<pdfrwt beam="1">  1        2 0.13939628E+00 0.16050802E+04</pdfrwt>
<pdfrwt beam="2">  1       -1 0.10935926E+00 0.16050802E+04</pdfrwt>
<totfact> 0.24593470E+01</totfact>
</mgrwt>
</event>
<event>
12    6  0.1530720E-007  0.1088916E+04  0.7818608E-02  0.9216063E-01
         -1   -1    0    0    0  501 -0.00000000000E+00  0.00000000000E+00  0.13319584176E+03  0.13319584176E+03  0.00000000000E+00 0.  1.
          2   -1    0    0  501    0  0.00000000000E+00 -0.00000000000E+00 -0.22255536838E+04  0.22255536838E+04  0.00000000000E+00 0. -1.
         24    2    1    2    0    0  0.94399918375E+02  0.11913835839E+03 -0.35293321810E+03  0.39277452402E+03  0.81269165463E+02 0.  0.
        254    2    1    2    0    0 -0.94399918375E+02 -0.11913835839E+03 -0.17394246239E+04  0.19659750015E+04  0.90352332080E+03 0.  0.
         23    2    4    4    0    0 -0.20304070230E+03  0.34220163545E+03 -0.10310414396E+04  0.11089323078E+04  0.91416228999E+02 0.  0.
         23    2    4    4    0    0  0.10864078392E+03 -0.46133999385E+03 -0.70838318431E+03  0.85704269374E+03  0.89877879524E+02 0.  0.
          4    1    3    3  502    0  0.75471752224E+01  0.72566399143E+02 -0.13105481708E+03  0.14999402394E+03  0.00000000000E+00 0. -1.
         -3    1    3    3    0  502  0.86852743152E+02  0.46571959250E+02 -0.22187840102E+03  0.24278050008E+03  0.00000000000E+00 0.  1.
         11    1    5    5    0    0 -0.33093578317E+02  0.11991360695E+02 -0.64161223689E+02  0.73182240212E+02  0.00000000000E+00 0.  1.
        -11    1    5    5    0    0 -0.16994712398E+03  0.33021027476E+03 -0.96688021591E+03  0.10357500675E+04  0.00000000000E+00 0. -1.
          2    1    6    6  503    0  0.92271793825E+02 -0.40309421609E+03 -0.55466929157E+03  0.69185045638E+03  0.00000000000E+00 0. -1.
         -2    1    6    6    0  503  0.16368990095E+02 -0.58245777757E+02 -0.15371389274E+03  0.16519223736E+03  0.00000000000E+00 0.  1.
<mgrwt>
<rscale>  0 0.10889160E+04</rscale>
<asrwt>0</asrwt>
<pdfrwt beam="1">  1        2 0.34239290E+00 0.10889160E+04</pdfrwt>
<pdfrwt beam="2">  1       -1 0.20491667E-01 0.10889160E+04</pdfrwt>
<totfact> 0.11156763E+02</totfact>
</mgrwt>
</event>
<event>
12    6  0.1530720E-007  0.2972414E+04  0.7818608E-02  0.8251652E-01
          2   -1    0    0  501    0  0.00000000000E+00  0.00000000000E+00  0.21598552180E+04  0.21598552180E+04  0.00000000000E+00 0. -1.
         -1   -1    0    0    0  501 -0.00000000000E+00 -0.00000000000E+00 -0.10226662277E+04  0.10226662277E+04  0.00000000000E+00 0.  1.
         24    2    1    2    0    0  0.67437898700E+03  0.44557036153E+02 -0.72997627312E+03  0.99816978496E+03  0.81885363194E+02 0.  0.
        254    2    1    2    0    0 -0.67437898700E+03 -0.44557036153E+02  0.18671652635E+04  0.21843516608E+04  0.91011741502E+03 0.  0.
         23    2    4    4    0    0  0.20858821739E+02  0.17608049627E+03  0.25488951392E+02  0.20141179573E+03  0.92073846484E+02 0.  0.
         23    2    4    4    0    0 -0.69523780874E+03 -0.22063753242E+03  0.18416763121E+04  0.19829398650E+04  0.90787324910E+02 0.  0.
          4    1    3    3  502    0  0.28502340355E+03  0.47988082564E+02 -0.35267848850E+03  0.45598608849E+03  0.00000000000E+00 0. -1.
         -3    1    3    3    0  502  0.38935558345E+03 -0.34310464110E+01 -0.37729778462E+03  0.54218369647E+03  0.00000000000E+00 0.  1.
         11    1    5    5    0    0  0.17455060205E+02  0.78704260991E+01  0.27073083098E+02  0.33159833567E+02  0.00000000000E+00 0. -1.
        -11    1    5    5    0    0  0.34037615339E+01  0.16821007017E+03 -0.15841317061E+01  0.16825196217E+03  0.00000000000E+00 0.  1.
          4    1    6    6  503    0  0.28019171718E+01 -0.21949698810E+01  0.10770368447E+02  0.11343256548E+02  0.00000000000E+00 0. -1.
         -4    1    6    6    0  503 -0.69803972591E+03 -0.21844256254E+03  0.18309059436E+04  0.19715966085E+04  0.00000000000E+00 0.  1.
<mgrwt>
<rscale>  0 0.29724138E+04</rscale>
<asrwt>0</asrwt>
<pdfrwt beam="1">  1        2 0.33228542E+00 0.29724138E+04</pdfrwt>
<pdfrwt beam="2">  1       -1 0.15733327E+00 0.29724138E+04</pdfrwt>
<totfact> 0.16250627E+00</totfact>
</mgrwt>
</event>
<event>
12    6  0.1530720E-007  0.1984889E+04  0.7818608E-02  0.8613718E-01
         -1   -1    0    0    0  501 -0.00000000000E+00  0.00000000000E+00  0.36343091430E+03  0.36343091430E+03  0.00000000000E+00 0.  1.
          2   -1    0    0  501    0  0.00000000000E+00 -0.00000000000E+00 -0.27101331858E+04  0.27101331858E+04  0.00000000000E+00 0. -1.
         24    2    1    2    0    0 -0.50169793995E+03 -0.42039117825E+03 -0.28661451203E+03  0.71901887000E+03  0.80066792139E+02 0.  0.
        254    2    1    2    0    0  0.50169793995E+03  0.42039117825E+03 -0.20600877595E+04  0.23545452301E+04  0.93353741124E+03 0.  0.
         23    2    4    4    0    0  0.23195787370E+03 -0.14798388391E+03 -0.14283529292E+04  0.14573504877E+04  0.89301000188E+02 0.  0.
         23    2    4    4    0    0  0.26974006625E+03  0.56837506216E+03 -0.63173483033E+03  0.89719474244E+03  0.10029753431E+03 0.  0.
          2    1    3    3  502    0 -0.14901655785E+02 -0.16052517657E+02  0.46439665271E+01  0.22389932857E+02  0.00000000000E+00 0. -1.
         -1    1    3    3    0  502 -0.48679628417E+03 -0.40433866059E+03 -0.29125847855E+03  0.69662893714E+03  0.00000000000E+00 0.  1.
         11    1    5    5    0    0  0.18426913433E+03 -0.15472233621E+03 -0.11565942715E+04  0.11813570265E+04  0.00000000000E+00 0.  1.
        -11    1    5    5    0    0  0.47688739372E+02  0.67384523047E+01 -0.27175865769E+03  0.27599346121E+03  0.00000000000E+00 0. -1.
          4    1    6    6  503    0  0.86047002741E+02  0.18437515408E+03 -0.27323068828E+03  0.34066595536E+03  0.00000000000E+00 0. -1.
         -4    1    6    6    0  503  0.18369306351E+03  0.38399990807E+03 -0.35850414205E+03  0.55652878708E+03  0.00000000000E+00 0.  1.
<mgrwt>
<rscale>  0 0.19848891E+04</rscale>
<asrwt>0</asrwt>
<pdfrwt beam="1">  1        2 0.41694357E+00 0.19848891E+04</pdfrwt>
<pdfrwt beam="2">  1       -1 0.55912448E-01 0.19848891E+04</pdfrwt>
<totfact> 0.89833886E+00</totfact>
</mgrwt>
</event>
<event>
12    6  0.1530720E-007  0.3047178E+04  0.7818608E-02  0.8230386E-01
         -1   -1    0    0    0  501 -0.00000000000E+00  0.00000000000E+00  0.16403627675E+04  0.16403627675E+04  0.00000000000E+00 0.  1.
          2   -1    0    0  501    0  0.00000000000E+00 -0.00000000000E+00 -0.14151280857E+04  0.14151280857E+04  0.00000000000E+00 0. -1.
         24    2    1    2    0    0  0.10708106388E+04 -0.90448634551E+03  0.11812232527E+03  0.14089089286E+04  0.79627332187E+02 0.  0.
        254    2    1    2    0    0 -0.10708106388E+04  0.90448634551E+03  0.10711235658E+03  0.16465819246E+04  0.85733774224E+03 0.  0.
         23    2    4    4    0    0 -0.57852225116E+03  0.83725730109E+03 -0.21893872791E+03  0.10450207199E+04  0.91904054091E+02 0.  0.
         23    2    4    4    0    0 -0.49228838760E+03  0.67229044420E+02  0.32605108448E+03  0.60156120471E+03  0.93268281548E+02 0.  0.
          4    1    3    3  502    0  0.12289005588E+03 -0.11434885078E+03 -0.10424840702E+02  0.16818532282E+03  0.00000000000E+00 0. -1.
         -3    1    3    3    0  502  0.94792058288E+03 -0.79013749473E+03  0.12854716597E+03  0.12407236058E+04  0.00000000000E+00 0.  1.
         11    1    5    5    0    0 -0.35527615049E+03  0.53252424439E+03 -0.18161969856E+03  0.66542387158E+03  0.00000000000E+00 0.  1.
        -11    1    5    5    0    0 -0.22324610066E+03  0.30473305670E+03 -0.37319029340E+02  0.37959684832E+03  0.00000000000E+00 0. -1.
          1    1    6    6  503    0 -0.26020399444E+03 -0.36086228492E+01  0.19941627245E+03  0.32785056139E+03  0.00000000000E+00 0. -1.
         -1    1    6    6    0  503 -0.23208439316E+03  0.70837667270E+02  0.12663481203E+03  0.27371064332E+03  0.00000000000E+00 0.  1.
<mgrwt>
<rscale>  0 0.30471780E+04</rscale>
<asrwt>0</asrwt>
<pdfrwt beam="1">  1        2 0.21771201E+00 0.30471780E+04</pdfrwt>
<pdfrwt beam="2">  1       -1 0.25236350E+00 0.30471780E+04</pdfrwt>
<totfact> 0.92678088E-01</totfact>
</mgrwt>
</event>
<event>
12    6  0.1530720E-007  0.2295741E+04  0.7818608E-02  0.8479602E-01
          2   -1    0    0  501    0  0.00000000000E+00  0.00000000000E+00  0.16082337213E+04  0.16082337213E+04  0.00000000000E+00 0. -1.
         -1   -1    0    0    0  501 -0.00000000000E+00 -0.00000000000E+00 -0.81928788634E+03  0.81928788634E+03  0.00000000000E+00 0.  1.
         24    2    1    2    0    0 -0.80574998477E+03  0.42463883475E+03 -0.49951589851E+01  0.91427909416E+03  0.79562129670E+02 0.  0.
        254    2    1    2    0    0  0.80574998477E+03 -0.42463883475E+03  0.79394099395E+03  0.15132425135E+04  0.91104853045E+03 0.  0.
         23    2    4    4    0    0  0.27257164995E+03  0.21336928847E+03  0.52404016448E+03  0.63461114284E+03  0.91057405061E+02 0.  0.
         23    2    4    4    0    0  0.53317833482E+03 -0.63800812322E+03  0.26990082947E+03  0.87863137065E+03  0.88391887196E+02 0.  0.
          4    1    3    3  502    0 -0.74919154500E+03  0.41485766423E+03 -0.11898897623E+02  0.85646741703E+03  0.00000000000E+00 0. -1.
         -3    1    3    3    0  502 -0.56558439766E+02  0.97811705217E+01  0.69037386382E+01  0.57811677131E+02  0.00000000000E+00 0.  1.
         11    1    5    5    0    0  0.10453008389E+03  0.13047631645E+03  0.20400769538E+03  0.26376077678E+03  0.00000000000E+00 0.  1.
        -11    1    5    5    0    0  0.16804156605E+03  0.82892972019E+02  0.32003246910E+03  0.37085036606E+03  0.00000000000E+00 0. -1.
          1    1    6    6  503    0  0.38732950235E+02 -0.21754447261E+02  0.27259705229E+02  0.52120906925E+02  0.00000000000E+00 0. -1.
         -1    1    6    6    0  503  0.49444538459E+03 -0.61625367596E+03  0.24264112424E+03  0.82651046372E+03  0.00000000000E+00 0.  1.
<mgrwt>
<rscale>  0 0.22957408E+04</rscale>
<asrwt>0</asrwt>
<pdfrwt beam="1">  1        2 0.24742057E+00 0.22957408E+04</pdfrwt>
<pdfrwt beam="2">  1       -1 0.12604429E+00 0.22957408E+04</pdfrwt>
<totfact> 0.62471491E+00</totfact>
</mgrwt>
</event>
<event>
12    6  0.1530720E-007  0.2158353E+04  0.7818608E-02  0.8535965E-01
          2   -1    0    0  501    0  0.00000000000E+00  0.00000000000E+00  0.49985281143E+03  0.49985281143E+03  0.00000000000E+00 0. -1.
         -1   -1    0    0    0  501 -0.00000000000E+00 -0.00000000000E+00 -0.23299307096E+04  0.23299307096E+04  0.00000000000E+00 0.  1.
         24    2    1    2    0    0  0.24840389672E+03  0.75107735138E+03 -0.12912591957E+04  0.15168154719E+04  0.86932052329E+02 0.  0.
        254    2    1    2    0    0 -0.24840389672E+03 -0.75107735138E+03 -0.53881870246E+03  0.13129680491E+04  0.89874235472E+03 0.  0.
         23    2    4    4    0    0  0.29128325688E+03 -0.15625387710E+03 -0.38648498551E+01  0.34370907550E+03  0.94126413245E+02 0.  0.
         23    2    4    4    0    0 -0.53968715360E+03 -0.59482347428E+03 -0.53495385260E+03  0.96925897360E+03  0.90609845872E+02 0.  0.
          2    1    3    3  502    0  0.13509222408E+02  0.14773550949E+03 -0.23447698610E+03  0.27746664100E+03  0.00000000000E+00 0. -1.
         -1    1    3    3    0  502  0.23489467432E+03  0.60334184189E+03 -0.10567822096E+04  0.12393488309E+04  0.00000000000E+00 0.  1.
         11    1    5    5    0    0  0.12062850888E+02 -0.37271165597E+02  0.79152208914E+01  0.39966271758E+02  0.00000000000E+00 0.  1.
        -11    1    5    5    0    0  0.27922040599E+03 -0.11898271150E+03 -0.11780070746E+02  0.30374280374E+03  0.00000000000E+00 0. -1.
          1    1    6    6  503    0 -0.49733732586E+03 -0.56314103373E+03 -0.52185889199E+03  0.91477261804E+03  0.00000000000E+00 0. -1.
         -1    1    6    6    0  503 -0.42349827741E+02 -0.31682440547E+02 -0.13094960619E+02  0.54486355561E+02  0.00000000000E+00 0.  1.
<mgrwt>
<rscale>  0 0.21583535E+04</rscale>
<asrwt>0</asrwt>
<pdfrwt beam="1">  1        2 0.76900432E-01 0.21583535E+04</pdfrwt>
<pdfrwt beam="2">  1       -1 0.35845088E+00 0.21583535E+04</pdfrwt>
<totfact> 0.88183707E-01</totfact>
</mgrwt>
</event>
<event>
12    6  0.1530720E-007  0.1473096E+04  0.7818608E-02  0.8902543E-01
          2   -1    0    0  501    0  0.00000000000E+00  0.00000000000E+00  0.33388243144E+03  0.33388243144E+03  0.00000000000E+00 0. -1.
         -1   -1    0    0    0  501 -0.00000000000E+00 -0.00000000000E+00 -0.16248329882E+04  0.16248329882E+04  0.00000000000E+00 0.  1.
         24    2    1    2    0    0 -0.36748863013E+03 -0.81418494550E+02 -0.74502657808E+03  0.83852354803E+03  0.79876617552E+02 0.  0.
        254    2    1    2    0    0  0.36748863013E+03  0.81418494550E+02 -0.54592397866E+03  0.11201918716E+04  0.90283994937E+03 0.  0.
         23    2    4    4    0    0  0.38004576143E+03 -0.34069121307E+03 -0.16281017547E+03  0.54247264678E+03  0.85229899855E+02 0.  0.
         23    2    4    4    0    0 -0.12557131297E+02  0.42210970761E+03 -0.38311380319E+03  0.57771922481E+03  0.93000159728E+02 0.  0.
          2    1    3    3  502    0 -0.14178925198E+03  0.70507011323E+01 -0.25694955294E+03  0.29355915438E+03  0.00000000000E+00 0. -1.
         -1    1    3    3    0  502 -0.22569937815E+03 -0.88469195682E+02 -0.48807702513E+03  0.54496439365E+03  0.00000000000E+00 0.  1.
         11    1    5    5    0    0  0.27137922376E+03 -0.27476605411E+03 -0.15159444962E+03  0.41487822880E+03  0.00000000000E+00 0. -1.
        -11    1    5    5    0    0  0.10866653767E+03 -0.65925158960E+02 -0.11215725841E+02  0.12759441798E+03  0.00000000000E+00 0.  1.
          3    1    6    6  503    0 -0.35923312318E+02  0.39472976884E+03 -0.35382592307E+03  0.53131427481E+03  0.00000000000E+00 0. -1.
         -3    1    6    6    0  503  0.23366181020E+02  0.27379938773E+02 -0.29287880125E+02  0.46404950004E+02  0.00000000000E+00 0.  1.
<mgrwt>
<rscale>  0 0.14730963E+04</rscale>
<asrwt>0</asrwt>
<pdfrwt beam="1">  1        2 0.51366528E-01 0.14730963E+04</pdfrwt>
<pdfrwt beam="2">  1       -1 0.24997431E+00 0.14730963E+04</pdfrwt>
<totfact> 0.75357463E+00</totfact>
</mgrwt>
</event>
<event>
12    6  0.1530720E-007  0.2146673E+04  0.7818608E-02  0.8540958E-01
          2   -1    0    0  501    0  0.00000000000E+00  0.00000000000E+00  0.10550746100E+04  0.10550746100E+04  0.00000000000E+00 0. -1.
         -1   -1    0    0    0  501 -0.00000000000E+00 -0.00000000000E+00 -0.10919147632E+04  0.10919147632E+04  0.00000000000E+00 0.  1.
         24    2    1    2    0    0 -0.82781241719E+03 -0.39649009856E+02 -0.31652007519E+03  0.89081070284E+03  0.80705069646E+02 0.  0.
        254    2    1    2    0    0  0.82781241719E+03  0.39649009856E+02  0.27967992206E+03  0.12561786704E+04  0.90161995930E+03 0.  0.
         23    2    4    4    0    0  0.38385903203E+03 -0.39713523192E+02 -0.31316099117E+03  0.50559825989E+03  0.92924020640E+02 0.  0.
         23    2    4    4    0    0  0.44395338516E+03  0.79362533048E+02  0.59284091323E+03  0.75058041047E+03  0.92290759742E+02 0.  0.
          2    1    3    3  502    0 -0.23702731510E+03  0.22422104022E+02 -0.75897903969E+02  0.24989035731E+03  0.00000000000E+00 0. -1.
         -1    1    3    3    0  502 -0.59078510209E+03 -0.62071113878E+02 -0.24062217122E+03  0.64092034553E+03  0.00000000000E+00 0.  1.
         11    1    5    5    0    0  0.14501225031E+02  0.16853364439E+02 -0.98106810591E+01  0.24301664206E+02  0.00000000000E+00 0.  1.
        -11    1    5    5    0    0  0.36935780700E+03 -0.56566887632E+02 -0.30335031011E+03  0.48129659568E+03  0.00000000000E+00 0. -1.
          1    1    6    6  503    0  0.43825005871E+03  0.89389859489E+02  0.58592339258E+03  0.73712948856E+03  0.00000000000E+00 0. -1.
         -1    1    6    6    0  503  0.57033264483E+01 -0.10027326441E+02  0.69175206528E+01  0.13450921906E+02  0.00000000000E+00 0.  1.
<mgrwt>
<rscale>  0 0.21466733E+04</rscale>
<asrwt>0</asrwt>
<pdfrwt beam="1">  1        2 0.16231917E+00 0.21466733E+04</pdfrwt>
<pdfrwt beam="2">  1       -1 0.16798689E+00 0.21466733E+04</pdfrwt>
<totfact> 0.61946237E+00</totfact>
</mgrwt>
</event>
<event>
12    6  0.1530720E-007  0.1198778E+04  0.7818608E-02  0.9113926E-01
         -1   -1    0    0    0  501 -0.00000000000E+00  0.00000000000E+00  0.25422788066E+03  0.25422788066E+03  0.00000000000E+00 0.  1.
          2   -1    0    0  501    0  0.00000000000E+00 -0.00000000000E+00 -0.14131709202E+04  0.14131709202E+04  0.00000000000E+00 0. -1.
         24    2    1    2    0    0  0.37252258265E+02  0.22597213408E+03 -0.40676567922E+03  0.47330979824E+03  0.78183829510E+02 0.  0.
        254    2    1    2    0    0 -0.37252258265E+02 -0.22597213408E+03 -0.75217736036E+03  0.11940890027E+04  0.89868049311E+03 0.  0.
         23    2    4    4    0    0 -0.18258086368E+03 -0.43093358563E+03 -0.97195333384E+02  0.48689560371E+03  0.92632980510E+02 0.  0.
         23    2    4    4    0    0  0.14532860542E+03  0.20496145155E+03 -0.65498202697E+03  0.70719339894E+03  0.89394897409E+02 0.  0.
          2    1    3    3  502    0  0.60261690169E+02  0.16791750203E+03 -0.28016215034E+03  0.33214242318E+03  0.00000000000E+00 0. -1.
         -1    1    3    3    0  502 -0.23009431903E+02  0.58054632046E+02 -0.12660352888E+03  0.14116737506E+03  0.00000000000E+00 0.  1.
         11    1    5    5    0    0 -0.27569983384E+01 -0.48530571302E+02  0.12749911966E+02  0.50253135682E+02  0.00000000000E+00 0. -1.
        -11    1    5    5    0    0 -0.17982386535E+03 -0.38240301432E+03 -0.10994524535E+03  0.43664246803E+03  0.00000000000E+00 0.  1.
          2    1    6    6  503    0 -0.65199366544E+01  0.36422228842E+02 -0.13289254673E+03  0.13794751649E+03  0.00000000000E+00 0. -1.
         -2    1    6    6    0  503  0.15184854207E+03  0.16853922270E+03 -0.52208948024E+03  0.56924588246E+03  0.00000000000E+00 0.  1.
<mgrwt>
<rscale>  0 0.11987785E+04</rscale>
<asrwt>0</asrwt>
<pdfrwt beam="1">  1        2 0.21741091E+00 0.11987785E+04</pdfrwt>
<pdfrwt beam="2">  1       -1 0.39111981E-01 0.11987785E+04</pdfrwt>
<totfact> 0.10143856E+02</totfact>
</mgrwt>
</event>
<event>
12    6  0.1530720E-007  0.1392698E+04  0.7818608E-02  0.8959121E-01
          2   -1    0    0  501    0  0.00000000000E+00  0.00000000000E+00  0.78992432224E+03  0.78992432224E+03  0.00000000000E+00 0. -1.
         -1   -1    0    0    0  501 -0.00000000000E+00 -0.00000000000E+00 -0.61385874763E+03  0.61385874763E+03  0.00000000000E+00 0.  1.
         24    2    1    2    0    0  0.32193259141E+03  0.22046788950E+03  0.10920457460E+03  0.41300769687E+03  0.80018965541E+02 0.  0.
        254    2    1    2    0    0 -0.32193259141E+03 -0.22046788950E+03  0.66861000012E+02  0.99077537300E+03  0.90825038547E+03 0.  0.
         23    2    4    4    0    0  0.17559630358E+03 -0.10912749275E+03 -0.28584951797E+03  0.36397768402E+03  0.89593169589E+02 0.  0.
         23    2    4    4    0    0 -0.49752889499E+03 -0.11134039675E+03  0.35271051798E+03  0.62679768898E+03  0.92406428961E+02 0.  0.
          2    1    3    3  502    0  0.30384510362E+03  0.19524716235E+03  0.11931315675E+03  0.38036683711E+03  0.00000000000E+00 0. -1.
         -1    1    3    3    0  502  0.18087487789E+02  0.25220727152E+02 -0.10108582152E+02  0.32640859758E+02  0.00000000000E+00 0.  1.
         11    1    5    5    0    0  0.70959246807E+01 -0.22652584571E+02 -0.35065600076E+01  0.23995576632E+02  0.00000000000E+00 0.  1.
        -11    1    5    5    0    0  0.16850037890E+03 -0.86474908176E+02 -0.28234295796E+03  0.33998210739E+03  0.00000000000E+00 0. -1.
          3    1    6    6  503    0 -0.28684558056E+03 -0.17164011254E+02  0.19743486349E+03  0.34864812590E+03  0.00000000000E+00 0. -1.
         -3    1    6    6    0  503 -0.21068331443E+03 -0.94176385498E+02  0.15527565450E+03  0.27814956308E+03  0.00000000000E+00 0.  1.
<mgrwt>
<rscale>  0 0.13926980E+04</rscale>
<asrwt>0</asrwt>
<pdfrwt beam="1">  1        2 0.12152682E+00 0.13926980E+04</pdfrwt>
<pdfrwt beam="2">  1       -1 0.94439807E-01 0.13926980E+04</pdfrwt>
<totfact> 0.42282781E+01</totfact>
</mgrwt>
</event>
<event>
12    6  0.1530720E-007  0.1411194E+04  0.7818608E-02  0.8945755E-01
         -1   -1    0    0    0  501 -0.00000000000E+00  0.00000000000E+00  0.24457396107E+03  0.24457396107E+03  0.00000000000E+00 0.  1.
          2   -1    0    0  501    0  0.00000000000E+00 -0.00000000000E+00 -0.20356505609E+04  0.20356505609E+04  0.00000000000E+00 0. -1.
         24    2    1    2    0    0 -0.32463616611E+03 -0.16757510828E+03 -0.77019425083E+03  0.85622847870E+03  0.80361473814E+02 0.  0.
        254    2    1    2    0    0  0.32463616611E+03  0.16757510828E+03 -0.10208823490E+04  0.14239960433E+04  0.92308932587E+03 0.  0.
         23    2    4    4    0    0  0.31479140700E+03 -0.12885501163E+03  0.54572689196E+01  0.35206005144E+03  0.90660101978E+02 0.  0.
         23    2    4    4    0    0  0.98447591078E+01  0.29643011991E+03 -0.10263396180E+04  0.10719359919E+04  0.87783962190E+02 0.  0.
          2    1    3    3  502    0 -0.20299889401E+03 -0.14545302162E+03 -0.53943321982E+03  0.59443530439E+03  0.00000000000E+00 0. -1.
         -1    1    3    3    0  502 -0.12163727210E+03 -0.22122086658E+02 -0.23076103101E+03  0.26179317431E+03  0.00000000000E+00 0.  1.
         11    1    5    5    0    0  0.23683943275E+03 -0.73372948331E+02 -0.30568821045E+02  0.24982185508E+03  0.00000000000E+00 0.  1.
        -11    1    5    5    0    0  0.77951974245E+02 -0.55482063302E+02  0.36026089964E+02  0.10223819636E+03  0.00000000000E+00 0. -1.
          2    1    6    6  503    0  0.46121278127E+02  0.20491988873E+03 -0.73437601629E+03  0.76382423790E+03  0.00000000000E+00 0. -1.
         -2    1    6    6    0  503 -0.36276519019E+02  0.91510231175E+02 -0.29196360166E+03  0.30811175398E+03  0.00000000000E+00 0.  1.
<mgrwt>
<rscale>  0 0.14111940E+04</rscale>
<asrwt>0</asrwt>
<pdfrwt beam="1">  1        2 0.31317702E+00 0.14111940E+04</pdfrwt>
<pdfrwt beam="2">  1       -1 0.37626762E-01 0.14111940E+04</pdfrwt>
<totfact> 0.48183015E+01</totfact>
</mgrwt>
</event>
<event>
12    6  0.1530720E-007  0.1745465E+04  0.7818608E-02  0.8735850E-01
          2   -1    0    0  501    0  0.00000000000E+00  0.00000000000E+00  0.81090230117E+03  0.81090230117E+03  0.00000000000E+00 0. -1.
         -1   -1    0    0    0  501 -0.00000000000E+00 -0.00000000000E+00 -0.93927739041E+03  0.93927739041E+03  0.00000000000E+00 0.  1.
         24    2    1    2    0    0  0.54511553331E+02  0.61957513447E+03  0.78052973159E+02  0.63176929683E+03  0.78710362094E+02 0.  0.
        254    2    1    2    0    0 -0.54511553331E+02 -0.61957513447E+03 -0.20642806240E+03  0.11184103947E+04  0.90630260367E+03 0.  0.
         23    2    4    4    0    0 -0.33647749704E+03 -0.36308454127E+03  0.21038677385E+03  0.54620205880E+03  0.95008443343E+02 0.  0.
         23    2    4    4    0    0  0.28196594371E+03 -0.25649059320E+03 -0.41681483625E+03  0.57220833594E+03  0.91627256806E+02 0.  0.
          4    1    3    3  502    0  0.69582591127E+02  0.34902299878E+03  0.48855058002E+02  0.35922918501E+03  0.00000000000E+00 0. -1.
         -3    1    3    3    0  502 -0.15071037796E+02  0.27055213568E+03  0.29197915156E+02  0.27254011182E+03  0.00000000000E+00 0.  1.
         11    1    5    5    0    0  0.34113074627E+00 -0.13705542023E+02 -0.58558547741E+01  0.14908027618E+02  0.00000000000E+00 0.  1.
        -11    1    5    5    0    0 -0.33681862779E+03 -0.34937899924E+03  0.21624262862E+03  0.53129403118E+03  0.00000000000E+00 0. -1.
          4    1    6    6  503    0  0.21515353183E+03 -0.22327413222E+03 -0.37531382712E+03  0.48682938408E+03  0.00000000000E+00 0. -1.
         -4    1    6    6    0  503  0.66812411887E+02 -0.33216460983E+02 -0.41501009125E+02  0.85378951861E+02  0.00000000000E+00 0.  1.
<mgrwt>
<rscale>  0 0.17454652E+04</rscale>
<asrwt>0</asrwt>
<pdfrwt beam="1">  1        2 0.12475420E+00 0.17454652E+04</pdfrwt>
<pdfrwt beam="2">  1       -1 0.14450421E+00 0.17454652E+04</pdfrwt>
<totfact> 0.14118653E+01</totfact>
</mgrwt>
</event>
<event>
12    6  0.1530720E-007  0.2027243E+04  0.7818608E-02  0.8593989E-01
         -1   -1    0    0    0  501 -0.00000000000E+00  0.00000000000E+00  0.29532702981E+03  0.29532702981E+03  0.00000000000E+00 0.  1.
          2   -1    0    0  501    0  0.00000000000E+00 -0.00000000000E+00 -0.34789518714E+04  0.34789518714E+04  0.00000000000E+00 0. -1.
         24    2    1    2    0    0 -0.65530062041E+03  0.40743116924E+03 -0.80024654350E+03  0.11142446613E+04  0.75680737695E+02 0.  0.
        254    2    1    2    0    0  0.65530062041E+03 -0.40743116924E+03 -0.23833782981E+04  0.26600342399E+04  0.89435506648E+03 0.  0.
         23    2    4    4    0    0  0.60191010894E+03 -0.30657308300E+03 -0.72481533701E+03  0.99502785333E+03  0.91871223359E+02 0.  0.
         23    2    4    4    0    0  0.53390511468E+02 -0.10085808624E+03 -0.16585629611E+04  0.16650063866E+04  0.91609340125E+02 0.  0.
          4    1    3    3  502    0 -0.89803567040E+02  0.87353006667E+02 -0.11894044414E+03  0.17274853886E+03  0.00000000000E+00 0. -1.
         -3    1    3    3    0  502 -0.56549705337E+03  0.32007816257E+03 -0.68130609936E+03  0.94149612243E+03  0.00000000000E+00 0.  1.
         11    1    5    5    0    0  0.17947453359E+03 -0.45676684158E+02 -0.19543877920E+03  0.26924669746E+03  0.00000000000E+00 0. -1.
        -11    1    5    5    0    0  0.42243557536E+03 -0.26089639884E+03 -0.52937655781E+03  0.72578115587E+03  0.00000000000E+00 0.  1.
          2    1    6    6  503    0  0.42083259461E+02 -0.11263238130E+03 -0.11681299959E+04  0.11743018101E+04  0.00000000000E+00 0. -1.
         -2    1    6    6    0  503  0.11307252007E+02  0.11774295058E+02 -0.49043296523E+03  0.49070457646E+03  0.00000000000E+00 0.  1.
<mgrwt>
<rscale>  0 0.20272430E+04</rscale>
<asrwt>0</asrwt>
<pdfrwt beam="1">  1        2 0.53522338E+00 0.20272430E+04</pdfrwt>
<pdfrwt beam="2">  1       -1 0.45434926E-01 0.20272430E+04</pdfrwt>
<totfact> 0.42900772E+00</totfact>
</mgrwt>
</event>
<event>
12    6  0.1530720E-007  0.2528017E+04  0.7818608E-02  0.8393072E-01
          2   -1    0    0  501    0  0.00000000000E+00  0.00000000000E+00  0.15336451320E+04  0.15336451320E+04  0.00000000000E+00 0. -1.
         -1   -1    0    0    0  501 -0.00000000000E+00 -0.00000000000E+00 -0.10417778224E+04  0.10417778224E+04  0.00000000000E+00 0.  1.
         24    2    1    2    0    0  0.11003560405E+04 -0.68205118186E+02  0.18196307485E+03  0.11203370398E+04  0.81296791520E+02 0.  0.
        254    2    1    2    0    0 -0.11003560405E+04  0.68205118186E+02  0.30990423480E+03  0.14550859146E+04  0.89766309390E+03 0.  0.
         23    2    4    4    0    0 -0.96971710739E+03  0.21189328202E+03  0.54425411234E+03  0.11359777255E+04  0.94777754227E+02 0.  0.
         23    2    4    4    0    0 -0.13063893306E+03 -0.14368816383E+03 -0.23434987754E+03  0.31910818908E+03  0.95902825695E+02 0.  0.
          2    1    3    3  502    0  0.22689227899E+02 -0.28529783991E-01 -0.77517921152E+01  0.23976908842E+02  0.00000000000E+00 0. -1.
         -1    1    3    3    0  502  0.10776668126E+04 -0.68176588402E+02  0.18971486696E+03  0.10963601310E+04  0.00000000000E+00 0.  1.
         11    1    5    5    0    0 -0.27055163637E+03  0.10153690552E+03  0.17078163303E+03  0.33566992315E+03  0.00000000000E+00 0.  1.
        -11    1    5    5    0    0 -0.69916547102E+03  0.11035637650E+03  0.37347247931E+03  0.80030780235E+03  0.00000000000E+00 0. -1.
          1    1    6    6  503    0 -0.12351850275E+02  0.14502118961E+02 -0.19616480500E+02  0.27343846964E+02  0.00000000000E+00 0. -1.
         -1    1    6    6    0  503 -0.11828708278E+03 -0.15819028280E+03 -0.21473339704E+03  0.29176434211E+03  0.00000000000E+00 0.  1.
<mgrwt>
<rscale>  0 0.25280170E+04</rscale>
<asrwt>0</asrwt>
<pdfrwt beam="1">  1        2 0.23594540E+00 0.25280170E+04</pdfrwt>
<pdfrwt beam="2">  1       -1 0.16027351E+00 0.25280170E+04</pdfrwt>
<totfact> 0.35816326E+00</totfact>
</mgrwt>
</event>
<event>
12    6  0.1530720E-007  0.2203173E+04  0.7818608E-02  0.8517109E-01
         -1   -1    0    0    0  501 -0.00000000000E+00  0.00000000000E+00  0.84762496059E+03  0.84762496059E+03  0.00000000000E+00 0.  1.
          2   -1    0    0  501    0  0.00000000000E+00 -0.00000000000E+00 -0.14316382688E+04  0.14316382688E+04  0.00000000000E+00 0. -1.
         24    2    1    2    0    0 -0.54189399392E+03  0.61994707152E+03 -0.65919902935E+03  0.10579079601E+04  0.81501040086E+02 0.  0.
        254    2    1    2    0    0  0.54189399392E+03 -0.61994707152E+03  0.75185721171E+02  0.12213552693E+04  0.89892843376E+03 0.  0.
         23    2    4    4    0    0  0.52411507956E+03 -0.79609324866E+03  0.21057762642E+03  0.98066168904E+03  0.94304477221E+02 0.  0.
         23    2    4    4    0    0  0.17778914365E+02  0.17614617714E+03 -0.13539190525E+03  0.24069358026E+03  0.90878303534E+02 0.  0.
          2    1    3    3  502    0 -0.52238032124E+03  0.59592602301E+03 -0.61115765270E+03  0.10007610611E+04  0.00000000000E+00 0. -1.
         -1    1    3    3    0  502 -0.19513672682E+02  0.24021048512E+02 -0.48041376653E+02  0.57146898988E+02  0.00000000000E+00 0.  1.
         11    1    5    5    0    0  0.51242990812E+02 -0.95511564053E+02  0.53808657063E+02  0.12101105136E+03  0.00000000000E+00 0. -1.
        -11    1    5    5    0    0  0.47287208874E+03 -0.70058168460E+03  0.15676896936E+03  0.85965063768E+03  0.00000000000E+00 0.  1.
          2    1    6    6  503    0  0.27979598368E+02  0.76934276390E+02 -0.11116945193E+03  0.13805936350E+03  0.00000000000E+00 0. -1.
         -2    1    6    6    0  503 -0.10200684003E+02  0.99211900747E+02 -0.24222453323E+02  0.10263421675E+03  0.00000000000E+00 0.  1.
<mgrwt>
<rscale>  0 0.22031726E+04</rscale>
<asrwt>0</asrwt>
<pdfrwt beam="1">  1        2 0.22025204E+00 0.22031726E+04</pdfrwt>
<pdfrwt beam="2">  1       -1 0.13040384E+00 0.22031726E+04</pdfrwt>
<totfact> 0.72722536E+00</totfact>
</mgrwt>
</event>
<event>
12    6  0.1530720E-007  0.1337640E+04  0.7818608E-02  0.9000237E-01
          2   -1    0    0  501    0  0.00000000000E+00  0.00000000000E+00  0.59188564771E+03  0.59188564771E+03  0.00000000000E+00 0. -1.
         -1   -1    0    0    0  501 -0.00000000000E+00 -0.00000000000E+00 -0.75575467120E+03  0.75575467120E+03  0.00000000000E+00 0.  1.
         24    2    1    2    0    0  0.72047511930E+02 -0.18007160520E+03  0.26695183112E+03  0.33932405796E+03  0.79125907239E+02 0.  0.
        254    2    1    2    0    0 -0.72047511930E+02  0.18007160520E+03 -0.43082085461E+03  0.10083162609E+04  0.89077407144E+03 0.  0.
         23    2    4    4    0    0 -0.45955947753E+03  0.97500004621E+02 -0.35157124573E+03  0.59380416642E+03  0.91103693375E+02 0.  0.
         23    2    4    4    0    0  0.38751196560E+03  0.82571600579E+02 -0.79249608884E+02  0.41451209453E+03  0.92499639423E+02 0.  0.
          4    1    3    3  502    0  0.66213026560E+02 -0.18464862177E+03  0.26769286013E+03  0.33187158024E+03  0.00000000000E+00 0. -1.
         -3    1    3    3    0  502  0.58344853698E+01  0.45770165678E+01 -0.74102900562E+00  0.74524777208E+01  0.00000000000E+00 0.  1.
         11    1    5    5    0    0 -0.50071627515E+02  0.26216156190E+02 -0.13699838241E+02  0.58156171600E+02  0.00000000000E+00 0. -1.
        -11    1    5    5    0    0 -0.40948785002E+03  0.71283848431E+02 -0.33787140749E+03  0.53564799482E+03  0.00000000000E+00 0.  1.
          3    1    6    6  503    0  0.17562619332E+01 -0.84527726099E+01  0.39986380495E+01  0.95143537365E+01  0.00000000000E+00 0. -1.
         -3    1    6    6    0  503  0.38575570367E+03  0.91024373189E+02 -0.83248246933E+02  0.40499774079E+03  0.00000000000E+00 0.  1.
<mgrwt>
<rscale>  0 0.13376402E+04</rscale>
<asrwt>0</asrwt>
<pdfrwt beam="1">  1        2 0.91059331E-01 0.13376402E+04</pdfrwt>
<pdfrwt beam="2">  1       -1 0.11626995E+00 0.13376402E+04</pdfrwt>
<totfact> 0.37674244E+01</totfact>
</mgrwt>
</event>
<event>
12    6  0.1530720E-007  0.1961483E+04  0.7818608E-02  0.8624843E-01
          2   -1    0    0  501    0  0.00000000000E+00  0.00000000000E+00  0.22571706476E+04  0.22571706476E+04  0.00000000000E+00 0. -1.
         -3   -1    0    0    0  501 -0.00000000000E+00 -0.00000000000E+00 -0.42613250262E+03  0.42613250262E+03  0.00000000000E+00 0.  1.
         24    2    1    2    0    0 -0.37213899093E+03 -0.31219384448E+03 -0.94870003990E+02  0.50140146495E+03  0.80316164587E+02 0.  0.
        254    2    1    2    0    0  0.37213899093E+03  0.31219384448E+03  0.19259081490E+04  0.21819016853E+04  0.90311701395E+03 0.  0.
         23    2    4    4    0    0  0.63158022803E+02  0.51879062357E+03  0.15854395927E+04  0.16717366662E+04  0.89174729209E+02 0.  0.
         23    2    4    4    0    0  0.30898096812E+03 -0.20659677909E+03  0.34046855636E+03  0.51016501909E+03  0.78727638345E+02 0.  0.
          2    1    3    3  502    0 -0.12170587480E+02 -0.33789368678E+02  0.26152563298E+01  0.36009501537E+02  0.00000000000E+00 0. -1.
         -1    1    3    3    0  502 -0.35996840345E+03 -0.27840447580E+03 -0.97485260320E+02  0.46539196341E+03  0.00000000000E+00 0.  1.
         11    1    5    5    0    0  0.45854433579E+02  0.20437501792E+03  0.75792217449E+03  0.78633186353E+03  0.00000000000E+00 0.  1.
        -11    1    5    5    0    0  0.17303589224E+02  0.31441560565E+03  0.82751741817E+03  0.88540480270E+03  0.00000000000E+00 0. -1.
          1    1    6    6  503    0  0.13184874680E+03 -0.78581283953E+02  0.19265441140E+03  0.24632261864E+03  0.00000000000E+00 0. -1.
         -1    1    6    6    0  503  0.17713222132E+03 -0.12801549513E+03  0.14781414496E+03  0.26384240045E+03  0.00000000000E+00 0.  1.
<mgrwt>
<rscale>  0 0.19614829E+04</rscale>
<asrwt>0</asrwt>
<pdfrwt beam="1">  1        2 0.34725701E+00 0.19614829E+04</pdfrwt>
<pdfrwt beam="2">  1       -3 0.65558848E-01 0.19614829E+04</pdfrwt>
<totfact> 0.64442363E+00</totfact>
</mgrwt>
</event>
<event>
12    6  0.1530720E-007  0.2042450E+04  0.7818608E-02  0.8587027E-01
          2   -1    0    0  501    0  0.00000000000E+00  0.00000000000E+00  0.44695397639E+03  0.44695397639E+03  0.00000000000E+00 0. -1.
         -1   -1    0    0    0  501 -0.00000000000E+00 -0.00000000000E+00 -0.23333499571E+04  0.23333499571E+04  0.00000000000E+00 0.  1.
         24    2    1    2    0    0 -0.36971681989E+03  0.32613584124E+03 -0.16304505748E+04  0.17049923841E+04  0.74664844545E+02 0.  0.
        254    2    1    2    0    0  0.36971681989E+03 -0.32613584124E+03 -0.25594540587E+03  0.10753115494E+04  0.92072350009E+03 0.  0.
         23    2    4    4    0    0  0.27772886920E+03 -0.32563452561E+03  0.28277773608E+03  0.52123147151E+03  0.92454474254E+02 0.  0.
         23    2    4    4    0    0  0.91987950691E+02 -0.50131563197E+00 -0.53872314195E+03  0.55408007788E+03  0.91214443195E+02 0.  0.
          4    1    3    3  502    0 -0.41355594782E+02  0.94275701036E+01 -0.13678484986E+03  0.14321054238E+03  0.00000000000E+00 0. -1.
         -3    1    3    3    0  502 -0.32836122511E+03  0.31670827114E+03 -0.14936657250E+04  0.15617818417E+04  0.00000000000E+00 0.  1.
         11    1    5    5    0    0  0.19305006876E+03 -0.27503383885E+03  0.19110414324E+03  0.38656530512E+03  0.00000000000E+00 0. -1.
        -11    1    5    5    0    0  0.84678800438E+02 -0.50600686763E+02  0.91673592842E+02  0.13466616639E+03  0.00000000000E+00 0.  1.
          4    1    6    6  503    0  0.26937792454E+02 -0.41564825339E+02 -0.15498312288E+03  0.16270540171E+03  0.00000000000E+00 0.  1.
         -4    1    6    6    0  503  0.65050158238E+02  0.41063509707E+02 -0.38374001907E+03  0.39137467618E+03  0.00000000000E+00 0. -1.
<mgrwt>
<rscale>  0 0.20424496E+04</rscale>
<asrwt>0</asrwt>
<pdfrwt beam="1">  1        2 0.68762151E-01 0.20424496E+04</pdfrwt>
<pdfrwt beam="2">  1       -1 0.35897691E+00 0.20424496E+04</pdfrwt>
<totfact> 0.10056252E+00</totfact>
</mgrwt>
</event>
<event>
12    6  0.1530720E-007  0.1655412E+04  0.7818608E-02  0.8787211E-01
          2   -1    0    0  501    0  0.00000000000E+00  0.00000000000E+00  0.65715472700E+03  0.65715472700E+03  0.00000000000E+00 0. -1.
         -3   -1    0    0    0  501 -0.00000000000E+00 -0.00000000000E+00 -0.10425209871E+04  0.10425209871E+04  0.00000000000E+00 0.  1.
         24    2    1    2    0    0  0.17590343271E+03 -0.65011909547E+02  0.42435593274E+03  0.47065388174E+03  0.79174192279E+02 0.  0.
        254    2    1    2    0    0 -0.17590343271E+03  0.65011909547E+02 -0.80972219285E+03  0.12290218324E+04  0.90535963508E+03 0.  0.
         23    2    4    4    0    0 -0.42334599235E+03  0.25007830856E+03 -0.75014175620E+03  0.90131731218E+03  0.88877742904E+02 0.  0.
         23    2    4    4    0    0  0.24744255964E+03 -0.18506639901E+03 -0.59580436652E+02  0.32770452020E+03  0.91449613221E+02 0.  0.
          4    1    3    3  502    0  0.11437663911E+03 -0.73266978184E+02  0.33824533288E+03  0.36449961712E+03  0.00000000000E+00 0. -1.
         -3    1    3    3    0  502  0.61526793595E+02  0.82550686367E+01  0.86110599867E+02  0.10615426462E+03  0.00000000000E+00 0.  1.
         11    1    5    5    0    0 -0.12377901586E+03  0.63791090960E+02 -0.28824804178E+03  0.32012104217E+03  0.00000000000E+00 0. -1.
        -11    1    5    5    0    0 -0.29956697648E+03  0.18628721760E+03 -0.46189371442E+03  0.58119627000E+03  0.00000000000E+00 0.  1.
          2    1    6    6  503    0  0.61501235446E+02 -0.76589270227E+01  0.65890444749E+01  0.62325569646E+02  0.00000000000E+00 0. -1.
         -2    1    6    6    0  503  0.18594132420E+03 -0.17740747199E+03 -0.66169481127E+02  0.26537895055E+03  0.00000000000E+00 0.  1.
<mgrwt>
<rscale>  0 0.16554124E+04</rscale>
<asrwt>0</asrwt>
<pdfrwt beam="1">  1        2 0.10110073E+00 0.16554124E+04</pdfrwt>
<pdfrwt beam="2">  1       -3 0.16038784E+00 0.16554124E+04</pdfrwt>
<totfact> 0.72004563E+00</totfact>
</mgrwt>
</event>
<event>
12    6  0.1530720E-007  0.1634261E+04  0.7818608E-02  0.8799772E-01
          2   -1    0    0  501    0  0.00000000000E+00  0.00000000000E+00  0.30029573160E+04  0.30029573160E+04  0.00000000000E+00 0. -1.
         -1   -1    0    0    0  501 -0.00000000000E+00 -0.00000000000E+00 -0.22234829093E+03  0.22234829093E+03  0.00000000000E+00 0.  1.
         24    2    1    2    0    0  0.97112673572E+02 -0.31345809036E+03  0.18675999164E+04  0.18979516783E+04  0.81266720952E+02 0.  0.
        254    2    1    2    0    0 -0.97112673572E+02  0.31345809036E+03  0.91300910874E+03  0.13273539286E+04  0.90586752531E+03 0.  0.
         23    2    4    4    0    0  0.11901906099E+02  0.60250169081E+03  0.42615598689E+03  0.74379037053E+03  0.92006778704E+02 0.  0.
         23    2    4    4    0    0 -0.10901457967E+03 -0.28904360046E+03  0.48685312184E+03  0.58356355809E+03  0.89944886097E+02 0.  0.
          2    1    3    3  502    0  0.76186917812E+02 -0.24674956039E+03  0.16281828304E+04  0.16485354473E+04  0.00000000000E+00 0. -1.
         -1    1    3    3    0  502  0.20925755760E+02 -0.66708529970E+02  0.23941708599E+03  0.24941623101E+03  0.00000000000E+00 0.  1.
         11    1    5    5    0    0 -0.24592693419E+02  0.50285940457E+03  0.34931106133E+03  0.61277287709E+03  0.00000000000E+00 0.  1.
        -11    1    5    5    0    0  0.36494599518E+02  0.99642286245E+02  0.76844925562E+02  0.13101749344E+03  0.00000000000E+00 0. -1.
          3    1    6    6  503    0  0.10341748470E+02 -0.17288497095E+01  0.12998574245E+02  0.16700407634E+02  0.00000000000E+00 0. -1.
         -3    1    6    6    0  503 -0.11935632814E+03 -0.28731475075E+03  0.47385454760E+03  0.56686315045E+03  0.00000000000E+00 0.  1.
<mgrwt>
<rscale>  0 0.16342612E+04</rscale>
<asrwt>0</asrwt>
<pdfrwt beam="1">  1        2 0.46199340E+00 0.16342612E+04</pdfrwt>
<pdfrwt beam="2">  1       -1 0.34207431E-01 0.16342612E+04</pdfrwt>
<totfact> 0.15350744E+01</totfact>
</mgrwt>
</event>
<event>
12    6  0.1530720E-007  0.1250373E+04  0.7818608E-02  0.9069873E-01
          2   -1    0    0  501    0  0.00000000000E+00  0.00000000000E+00  0.16972122630E+04  0.16972122630E+04  0.00000000000E+00 0. -1.
         -1   -1    0    0    0  501 -0.00000000000E+00 -0.00000000000E+00 -0.23029424764E+03  0.23029424764E+03  0.00000000000E+00 0.  1.
         24    2    1    2    0    0  0.22535257689E+03  0.15757851693E+03  0.21558231675E+03  0.35822595678E+03  0.78964092510E+02 0.  0.
        254    2    1    2    0    0 -0.22535257689E+03 -0.15757851693E+03  0.12513356986E+04  0.15692805538E+04  0.90619294481E+03 0.  0.
         23    2    4    4    0    0 -0.42695105973E+03 -0.13062582740E+03  0.12660199789E+04  0.13454832493E+04  0.90378498893E+02 0.  0.
         23    2    4    4    0    0  0.20159848283E+03 -0.26952689524E+02 -0.14684280276E+02  0.22379730456E+03  0.92202004781E+02 0.  0.
          4    1    3    3  502    0  0.14621411683E+03  0.14449411331E+03  0.16253750480E+03  0.26206021676E+03  0.00000000000E+00 0. -1.
         -3    1    3    3    0  502  0.79138460057E+02  0.13084403618E+02  0.53044811959E+02  0.96165740022E+02  0.00000000000E+00 0.  1.
         11    1    5    5    0    0 -0.31839987263E+03 -0.13503149891E+03  0.92286119242E+03  0.98553780499E+03  0.00000000000E+00 0.  1.
        -11    1    5    5    0    0 -0.10855118710E+03  0.44056715130E+01  0.34315878643E+03  0.35994544429E+03  0.00000000000E+00 0. -1.
          1    1    6    6  503    0  0.34789389522E+02 -0.31526897733E+02 -0.30797746946E+02  0.56149337671E+02  0.00000000000E+00 0. -1.
         -1    1    6    6    0  503  0.16680909331E+03  0.45742082084E+01  0.16113466670E+02  0.16764796688E+03  0.00000000000E+00 0.  1.
<mgrwt>
<rscale>  0 0.12503731E+04</rscale>
<asrwt>0</asrwt>
<pdfrwt beam="1">  1        2 0.26110957E+00 0.12503731E+04</pdfrwt>
<pdfrwt beam="2">  1       -1 0.35429885E-01 0.12503731E+04</pdfrwt>
<totfact> 0.83704014E+01</totfact>
</mgrwt>
</event>
<event>
12    6  0.1530720E-007  0.1567485E+04  0.7818608E-02  0.8840776E-01
          2   -1    0    0  501    0  0.00000000000E+00  0.00000000000E+00  0.15911135051E+04  0.15911135051E+04  0.00000000000E+00 0. -1.
         -1   -1    0    0    0  501 -0.00000000000E+00 -0.00000000000E+00 -0.38605207393E+03  0.38605207393E+03  0.00000000000E+00 0.  1.
         24    2    1    2    0    0  0.22117937106E+03 -0.25354486779E+03  0.90710827058E+03  0.97079151095E+03  0.79908879325E+02 0.  0.
        254    2    1    2    0    0 -0.22117937106E+03  0.25354486779E+03  0.29795316057E+03  0.10063740681E+04  0.90044842430E+03 0.  0.
         23    2    4    4    0    0  0.32538151507E+03  0.33411442302E+02  0.21989925746E+03  0.40492091400E+03  0.92821378691E+02 0.  0.
         23    2    4    4    0    0 -0.54656088613E+03  0.22013342549E+03  0.78053903117E+02  0.60145315407E+03  0.92010637904E+02 0.  0.
          4    1    3    3  502    0  0.20946811668E+03 -0.25738276615E+03  0.88872435205E+03  0.94865892403E+03  0.00000000000E+00 0. -1.
         -3    1    3    3    0  502  0.11711254380E+02  0.38378983526E+01  0.18383918533E+02  0.22132586915E+02  0.00000000000E+00 0.  1.
         11    1    5    5    0    0 -0.29252980547E+01 -0.80178740460E+01  0.21744502308E+01  0.88074915119E+01  0.00000000000E+00 0.  1.
        -11    1    5    5    0    0  0.32830681312E+03  0.41429316348E+02  0.21772480723E+03  0.39611342249E+03  0.00000000000E+00 0. -1.
          4    1    6    6  503    0 -0.48104556579E+03  0.22329987794E+03  0.76560469067E+02  0.53584435919E+03  0.00000000000E+00 0. -1.
         -4    1    6    6    0  503 -0.65515320340E+02 -0.31664524515E+01  0.14934340498E+01  0.65608794880E+02  0.00000000000E+00 0.  1.
<mgrwt>
<rscale>  0 0.15674855E+04</rscale>
<asrwt>0</asrwt>
<pdfrwt beam="1">  1        2 0.24478669E+00 0.15674855E+04</pdfrwt>
<pdfrwt beam="2">  1       -1 0.59392628E-01 0.15674855E+04</pdfrwt>
<totfact> 0.35505077E+01</totfact>
</mgrwt>
</event>
<event>
12    6  0.1530720E-007  0.2964094E+04  0.7818608E-02  0.8254059E-01
          2   -1    0    0  501    0  0.00000000000E+00  0.00000000000E+00  0.21073993909E+04  0.21073993909E+04  0.00000000000E+00 0. -1.
         -1   -1    0    0    0  501 -0.00000000000E+00 -0.00000000000E+00 -0.10422625145E+04  0.10422625145E+04  0.00000000000E+00 0.  1.
         24    2    1    2    0    0  0.68345142474E+03  0.38570596555E+03  0.16457978211E+04  0.18250272112E+04  0.78733169338E+02 0.  0.
        254    2    1    2    0    0 -0.68345142474E+03 -0.38570596555E+03 -0.58066094466E+03  0.13246346942E+04  0.89532954745E+03 0.  0.
         23    2    4    4    0    0 -0.50545027639E+02 -0.30786287510E+03 -0.59803574466E+03  0.68073537647E+03  0.91758112509E+02 0.  0.
         23    2    4    4    0    0 -0.63290639710E+03 -0.77843090447E+02  0.17374799993E+02  0.64389931771E+03  0.87603615471E+02 0.  0.
          2    1    3    3  502    0  0.42920585371E+03  0.21596134555E+03  0.93332859932E+03  0.10497424646E+04  0.00000000000E+00 0. -1.
         -1    1    3    3    0  502  0.25424557103E+03  0.16974462000E+03  0.71246922179E+03  0.77528474666E+03  0.00000000000E+00 0.  1.
         11    1    5    5    0    0 -0.41074231482E+02 -0.13378916272E+03 -0.18151510868E+03  0.22920376793E+03  0.00000000000E+00 0. -1.
        -11    1    5    5    0    0 -0.94707961573E+01 -0.17407371238E+03 -0.41652063598E+03  0.45153160854E+03  0.00000000000E+00 0.  1.
          4    1    6    6  503    0 -0.30568202556E+03 -0.64580386584E+02  0.43142871064E+02  0.31539409381E+03  0.00000000000E+00 0. -1.
         -4    1    6    6    0  503 -0.32722437154E+03 -0.13262703863E+02 -0.25768071071E+02  0.32850522390E+03  0.00000000000E+00 0.  1.
<mgrwt>
<rscale>  0 0.29640941E+04</rscale>
<asrwt>0</asrwt>
<pdfrwt beam="1">  1        2 0.32421529E+00 0.29640941E+04</pdfrwt>
<pdfrwt beam="2">  1       -1 0.16034808E+00 0.29640941E+04</pdfrwt>
<totfact> 0.16506773E+00</totfact>
</mgrwt>
</event>
<event>
12    6  0.1530720E-007  0.1380689E+04  0.7818608E-02  0.8967917E-01
          2   -1    0    0  501    0  0.00000000000E+00  0.00000000000E+00  0.21428789834E+04  0.21428789834E+04  0.00000000000E+00 0. -1.
         -1   -1    0    0    0  501 -0.00000000000E+00 -0.00000000000E+00 -0.22239963039E+03  0.22239963039E+03  0.00000000000E+00 0.  1.
         24    2    1    2    0    0  0.15750311366E+03  0.29149832489E+03  0.91909448414E+03  0.98024636984E+03  0.79810842442E+02 0.  0.
        254    2    1    2    0    0 -0.15750311366E+03 -0.29149832489E+03  0.10013848689E+04  0.13850322440E+04  0.89764366926E+03 0.  0.
         23    2    4    4    0    0  0.22674770808E+03 -0.33296234986E+03  0.13929317003E+03  0.43565726148E+03  0.90090025624E+02 0.  0.
         23    2    4    4    0    0 -0.38425082174E+03  0.41464024968E+02  0.86209169884E+03  0.94937498248E+03  0.93502945258E+02 0.  0.
          4    1    3    3  502    0  0.57259699087E+02  0.15290267979E+03  0.54439252780E+03  0.56834947607E+03  0.00000000000E+00 0. -1.
         -3    1    3    3    0  502  0.10024341458E+03  0.13859564511E+03  0.37470195634E+03  0.41189689376E+03  0.00000000000E+00 0.  1.
         11    1    5    5    0    0  0.28023377760E+02 -0.37151007837E+02 -0.12693925965E+02  0.48235286262E+02  0.00000000000E+00 0. -1.
        -11    1    5    5    0    0  0.19872433032E+03 -0.29581134202E+03  0.15198709600E+03  0.38742197522E+03  0.00000000000E+00 0.  1.
          3    1    6    6  503    0 -0.23871538072E+02 -0.18831051906E+02  0.45028615693E+02  0.54332633628E+02  0.00000000000E+00 0. -1.
         -3    1    6    6    0  503 -0.36037928367E+03  0.60295076873E+02  0.81706308315E+03  0.89504234885E+03  0.00000000000E+00 0.  1.
<mgrwt>
<rscale>  0 0.13806889E+04</rscale>
<asrwt>0</asrwt>
<pdfrwt beam="1">  1        2 0.32967368E+00 0.13806889E+04</pdfrwt>
<pdfrwt beam="2">  1       -1 0.34215329E-01 0.13806889E+04</pdfrwt>
<totfact> 0.49949334E+01</totfact>
</mgrwt>
</event>
<event>
12    6  0.1530720E-007  0.2521636E+04  0.7818608E-02  0.8395318E-01
          2   -1    0    0  501    0  0.00000000000E+00  0.00000000000E+00  0.30561766689E+04  0.30561766689E+04  0.00000000000E+00 0. -1.
         -1   -1    0    0    0  501 -0.00000000000E+00 -0.00000000000E+00 -0.52014713447E+03  0.52014713447E+03  0.00000000000E+00 0.  1.
         24    2    1    2    0    0  0.22074459583E+03  0.10262491449E+04  0.67956931611E+03  0.12529839084E+04  0.78985666240E+02 0.  0.
        254    2    1    2    0    0 -0.22074459583E+03 -0.10262491449E+04  0.18564602184E+04  0.23233398950E+04  0.92170941261E+03 0.  0.
         23    2    4    4    0    0  0.32288750260E+03 -0.18562265032E+03  0.40543220090E+03  0.55811944180E+03  0.91705693074E+02 0.  0.
         23    2    4    4    0    0 -0.54363209844E+03 -0.84062649455E+03  0.14510280175E+04  0.17652204532E+04  0.91280770472E+02 0.  0.
          4    1    3    3  502    0  0.12006949691E+03  0.69124985158E+03  0.48240795591E+03  0.85144610947E+03  0.00000000000E+00 0. -1.
         -3    1    3    3    0  502  0.10067509893E+03  0.33499929328E+03  0.19716136019E+03  0.40153779896E+03  0.00000000000E+00 0.  1.
         11    1    5    5    0    0  0.27985184487E+03 -0.18339102797E+03  0.32276385182E+03  0.46489335149E+03  0.00000000000E+00 0. -1.
        -11    1    5    5    0    0  0.43035657730E+02 -0.22316223440E+01  0.82668349087E+02  0.93226090314E+02  0.00000000000E+00 0.  1.
          2    1    6    6  503    0 -0.44281509053E+03 -0.63072310364E+03  0.10691194071E+04  0.13179200069E+04  0.00000000000E+00 0. -1.
         -2    1    6    6    0  503 -0.10081700791E+03 -0.20990339091E+03  0.38190861033E+03  0.44730044628E+03  0.00000000000E+00 0.  1.
<mgrwt>
<rscale>  0 0.25216356E+04</rscale>
<asrwt>0</asrwt>
<pdfrwt beam="1">  1        2 0.47018102E+00 0.25216356E+04</pdfrwt>
<pdfrwt beam="2">  1       -1 0.80022638E-01 0.25216356E+04</pdfrwt>
<totfact> 0.25332696E+00</totfact>
</mgrwt>
</event>
<event>
12    6  0.1530720E-007  0.1490595E+04  0.7818608E-02  0.8890731E-01
         -1   -1    0    0    0  501 -0.00000000000E+00  0.00000000000E+00  0.14334472011E+04  0.14334472011E+04  0.00000000000E+00 0.  1.
          2   -1    0    0  501    0  0.00000000000E+00 -0.00000000000E+00 -0.38750530785E+03  0.38750530785E+03  0.00000000000E+00 0. -1.
         24    2    1    2    0    0 -0.33581605360E+03 -0.32738174985E+03  0.36703928394E+03  0.60058086132E+03  0.77642147281E+02 0.  0.
        254    2    1    2    0    0  0.33581605360E+03  0.32738174985E+03  0.67890260928E+03  0.12203716476E+04  0.89913679350E+03 0.  0.
         23    2    4    4    0    0  0.22875525282E+03  0.23188937527E+03 -0.15368931847E+03  0.37083836138E+03  0.88312148680E+02 0.  0.
         23    2    4    4    0    0  0.10706080078E+03  0.95492374579E+02  0.83259192775E+03  0.84953328623E+03  0.88975713506E+02 0.  0.
          2    1    3    3  502    0 -0.29337040056E+02 -0.31837678287E+02  0.66797303039E+02  0.79600121678E+02  0.00000000000E+00 0. -1.
         -1    1    3    3    0  502 -0.30647901354E+03 -0.29554407156E+03  0.30024198091E+03  0.52098073964E+03  0.00000000000E+00 0.  1.
         11    1    5    5    0    0 -0.43542243576E+01  0.12264274144E+02  0.43138719335E+01  0.13710622929E+02  0.00000000000E+00 0. -1.
        -11    1    5    5    0    0  0.23310947718E+03  0.21962510112E+03 -0.15800319040E+03  0.35712773845E+03  0.00000000000E+00 0.  1.
          1    1    6    6  503    0  0.19801888856E+02  0.13875818128E+02  0.32173719040E+02  0.40246755495E+02  0.00000000000E+00 0. -1.
         -1    1    6    6    0  503  0.87258911924E+02  0.81616556451E+02  0.80041820871E+03  0.80928653073E+03  0.00000000000E+00 0.  1.
<mgrwt>
<rscale>  0 0.14905950E+04</rscale>
<asrwt>0</asrwt>
<pdfrwt beam="1">  1        2 0.59616202E-01 0.14905950E+04</pdfrwt>
<pdfrwt beam="2">  1       -1 0.22053034E+00 0.14905950E+04</pdfrwt>
<totfact> 0.99527388E+00</totfact>
</mgrwt>
</event>
<event>
12    6  0.1530720E-007  0.2382380E+04  0.7818608E-02  0.8446130E-01
         -1   -1    0    0    0  501 -0.00000000000E+00  0.00000000000E+00  0.61401755355E+03  0.61401755355E+03  0.00000000000E+00 0.  1.
          2   -1    0    0  501    0  0.00000000000E+00 -0.00000000000E+00 -0.23109001791E+04  0.23109001791E+04  0.00000000000E+00 0. -1.
         24    2    1    2    0    0  0.74753754678E+03 -0.11735637162E+03 -0.15709157202E+04  0.17454737994E+04  0.79483851938E+02 0.  0.
        254    2    1    2    0    0 -0.74753754678E+03  0.11735637162E+03 -0.12596690540E+03  0.11794439333E+04  0.89589922906E+03 0.  0.
         23    2    4    4    0    0 -0.58558382907E+03  0.30967108669E+03  0.25343854910E+03  0.71513505174E+03  0.91555672992E+02 0.  0.
         23    2    4    4    0    0 -0.16195371771E+03 -0.19231471508E+03 -0.37940545450E+03  0.46430888151E+03  0.91762095830E+02 0.  0.
          4    1    3    3  502    0  0.49920387603E+03 -0.10079766482E+03 -0.11222500013E+04  0.12323999937E+04  0.00000000000E+00 0. -1.
         -3    1    3    3    0  502  0.24833367075E+03 -0.16558706801E+02 -0.44866571885E+03  0.51307380568E+03  0.00000000000E+00 0.  1.
         11    1    5    5    0    0 -0.15303502605E+03  0.59870480039E+02  0.26312120845E+02  0.16642271864E+03  0.00000000000E+00 0. -1.
        -11    1    5    5    0    0 -0.43254880302E+03  0.24980060666E+03  0.22712642826E+03  0.54871233310E+03  0.00000000000E+00 0.  1.
          2    1    6    6  503    0 -0.79987725436E+02 -0.14203222841E+03 -0.29171606759E+03  0.33416979849E+03  0.00000000000E+00 0.  1.
         -2    1    6    6    0  503 -0.81965992274E+02 -0.50282486666E+02 -0.87689386906E+02  0.13013908303E+03  0.00000000000E+00 0. -1.
<mgrwt>
<rscale>  0 0.23823797E+04</rscale>
<asrwt>0</asrwt>
<pdfrwt beam="1">  1        2 0.35552310E+00 0.23823797E+04</pdfrwt>
<pdfrwt beam="2">  1       -1 0.94464241E-01 0.23823797E+04</pdfrwt>
<totfact> 0.49650959E+00</totfact>
</mgrwt>
</event>
<event>
12    6  0.1530720E-007  0.2158969E+04  0.7818608E-02  0.8535703E-01
         -1   -1    0    0    0  501 -0.00000000000E+00  0.00000000000E+00  0.95655481404E+03  0.95655481404E+03  0.00000000000E+00 0.  1.
          2   -1    0    0  501    0  0.00000000000E+00 -0.00000000000E+00 -0.12182120287E+04  0.12182120287E+04  0.00000000000E+00 0. -1.
         24    2    1    2    0    0  0.60192457083E+03  0.48380608518E+03  0.33245406452E+03  0.84451523166E+03  0.79364692818E+02 0.  0.
        254    2    1    2    0    0 -0.60192457083E+03 -0.48380608518E+03 -0.59411127916E+03  0.13302516111E+04  0.90565977037E+03 0.  0.
         23    2    4    4    0    0 -0.59829988337E+03 -0.36195728528E+03  0.11982276372E+02  0.70553133624E+03  0.93032600000E+02 0.  0.
         23    2    4    4    0    0 -0.36246874675E+01 -0.12184879990E+03 -0.60609355553E+03  0.62472027482E+03  0.89809550280E+02 0.  0.
          2    1    3    3  502    0  0.18638529735E+03  0.18814611525E+03  0.88940251649E+02  0.27937216776E+03  0.00000000000E+00 0. -1.
         -1    1    3    3    0  502  0.41553927349E+03  0.29565996993E+03  0.24351381287E+03  0.56514306391E+03  0.00000000000E+00 0.  1.
         11    1    5    5    0    0 -0.56857697600E+03 -0.35524616914E+03  0.28176396987E+02  0.67102423777E+03  0.00000000000E+00 0.  1.
        -11    1    5    5    0    0 -0.29722907368E+02 -0.67111161365E+01 -0.16194120615E+02  0.34507098468E+02  0.00000000000E+00 0. -1.
          3    1    6    6  503    0 -0.24029968938E+02  0.24088865034E+01 -0.13187271526E+03  0.13406586132E+03  0.00000000000E+00 0. -1.
         -3    1    6    6    0  503  0.20405281471E+02 -0.12425768640E+03 -0.47422084027E+03  0.49065441350E+03  0.00000000000E+00 0.  1.
<mgrwt>
<rscale>  0 0.21589688E+04</rscale>
<asrwt>0</asrwt>
<pdfrwt beam="1">  1        2 0.18741724E+00 0.21589688E+04</pdfrwt>
<pdfrwt beam="2">  1       -1 0.14716228E+00 0.21589688E+04</pdfrwt>
<totfact> 0.70937945E+00</totfact>
</mgrwt>
</event>
<event>
12    6  0.1530720E-007  0.1709079E+04  0.7818608E-02  0.8756203E-01
         -1   -1    0    0    0  501 -0.00000000000E+00  0.00000000000E+00  0.15661923193E+03  0.15661923193E+03  0.00000000000E+00 0.  1.
          2   -1    0    0  501    0  0.00000000000E+00 -0.00000000000E+00 -0.46625032506E+04  0.46625032506E+04  0.00000000000E+00 0. -1.
         24    2    1    2    0    0  0.22751081141E+02  0.23572391414E+03 -0.14152281408E+02  0.24981776632E+03  0.78264001362E+02 0.  0.
        254    2    1    2    0    0 -0.22751081141E+02 -0.23572391414E+03 -0.44917317373E+04  0.45693047163E+04  0.80424387763E+03 0.  0.
         23    2    4    4    0    0 -0.31687930518E+03 -0.11984904192E+03 -0.95560136591E+03  0.10178755810E+04  0.90113489813E+02 0.  0.
         23    2    4    4    0    0  0.29412822404E+03 -0.11587487222E+03 -0.35361303714E+04  0.35514291352E+04  0.92154765385E+02 0.  0.
          2    1    3    3  502    0 -0.11098655553E+02  0.18205308614E+03 -0.28916626280E+02  0.18466910301E+03  0.00000000000E+00 0. -1.
         -1    1    3    3    0  502  0.33849736694E+02  0.53670827995E+02  0.14764344872E+02  0.65148663312E+02  0.00000000000E+00 0.  1.
         11    1    5    5    0    0 -0.19576428586E+02 -0.42471119906E+01 -0.15142303829E+03  0.15274230273E+03  0.00000000000E+00 0. -1.
        -11    1    5    5    0    0 -0.29730287659E+03 -0.11560192993E+03 -0.80417832762E+03  0.86513327831E+03  0.00000000000E+00 0.  1.
          4    1    6    6  503    0  0.21652430034E+03 -0.12388417186E+03 -0.25246759630E+04  0.25369703937E+04  0.00000000000E+00 0. -1.
         -4    1    6    6    0  503  0.77603923701E+02  0.80092996384E+01 -0.10114544084E+04  0.10144587415E+04  0.00000000000E+00 0.  1.
<mgrwt>
<rscale>  0 0.17090789E+04</rscale>
<asrwt>0</asrwt>
<pdfrwt beam="1">  1        2 0.71730820E+00 0.17090789E+04</pdfrwt>
<pdfrwt beam="2">  1       -1 0.24095266E-01 0.17090789E+04</pdfrwt>
<totfact> 0.14000185E+00</totfact>
</mgrwt>
</event>
<event>
12    6  0.1530720E-007  0.1902230E+04  0.7818608E-02  0.8653747E-01
         -1   -1    0    0    0  501 -0.00000000000E+00  0.00000000000E+00  0.77019712867E+03  0.77019712867E+03  0.00000000000E+00 0.  1.
          2   -1    0    0  501    0  0.00000000000E+00 -0.00000000000E+00 -0.11745297259E+04  0.11745297259E+04  0.00000000000E+00 0. -1.
         24    2    1    2    0    0 -0.72454168103E+03 -0.16364406834E+02 -0.33340964300E+02  0.72970333476E+03  0.78274488170E+02 0.  0.
        254    2    1    2    0    0  0.72454168103E+03  0.16364406834E+02 -0.37099163288E+03  0.12150235198E+04  0.90189740023E+03 0.  0.
         23    2    4    4    0    0  0.92042289404E+03  0.60821417457E+02 -0.34249508613E+03  0.98818057723E+03  0.91216338976E+02 0.  0.
         23    2    4    4    0    0 -0.19588121301E+03 -0.44457010623E+02 -0.28496546754E+02  0.22684294254E+03  0.10148789090E+03 0.  0.
          4    1    3    3  502    0 -0.51235532172E+03  0.10131319537E+02 -0.51837561393E+02  0.51507062827E+03  0.00000000000E+00 0. -1.
         -3    1    3    3    0  502 -0.21218635931E+03 -0.26495726371E+02  0.18496597093E+02  0.21463270649E+03  0.00000000000E+00 0.  1.
         11    1    5    5    0    0  0.24152730608E+02  0.13809973176E+02 -0.79922485001E+00  0.27833586102E+02  0.00000000000E+00 0.  1.
        -11    1    5    5    0    0  0.89627016343E+03  0.47011444281E+02 -0.34169586128E+03  0.96034699112E+03  0.00000000000E+00 0. -1.
          3    1    6    6  503    0 -0.17042208707E+03 -0.11435566468E+02 -0.52549728808E+02  0.17870627840E+03  0.00000000000E+00 0. -1.
         -3    1    6    6    0  503 -0.25459125938E+02 -0.33021444154E+02  0.24053182054E+02  0.48136664139E+02  0.00000000000E+00 0.  1.
<mgrwt>
<rscale>  0 0.19022297E+04</rscale>
<asrwt>0</asrwt>
<pdfrwt beam="1">  1        2 0.18069688E+00 0.19022297E+04</pdfrwt>
<pdfrwt beam="2">  1       -1 0.11849187E+00 0.19022297E+04</pdfrwt>
<totfact> 0.13378738E+01</totfact>
</mgrwt>
</event>
<event>
12    6  0.1530720E-007  0.1503046E+04  0.7818608E-02  0.8882430E-01
         -1   -1    0    0    0  501 -0.00000000000E+00  0.00000000000E+00  0.31375735874E+03  0.31375735874E+03  0.00000000000E+00 0.  1.
          2   -1    0    0  501    0  0.00000000000E+00 -0.00000000000E+00 -0.18000759037E+04  0.18000759037E+04  0.00000000000E+00 0. -1.
         24    2    1    2    0    0  0.10182091055E+03  0.14115383923E+03  0.14414775943E+03  0.24189006624E+03  0.86257309495E+02 0.  0.
        254    2    1    2    0    0 -0.10182091055E+03 -0.14115383923E+03 -0.16304663044E+04  0.18719431962E+04  0.90302771602E+03 0.  0.
         23    2    4    4    0    0 -0.30531902430E+03 -0.15764266207E+03 -0.16083599590E+04  0.16473850229E+04  0.94787871022E+02 0.  0.
         23    2    4    4    0    0  0.20349811375E+03  0.16488822834E+02 -0.22106345393E+02  0.22455817329E+03  0.90853283427E+02 0.  0.
          2    1    3    3  502    0  0.11174716395E+02  0.74171198325E+02  0.89060333395E+02  0.11643875614E+03  0.00000000000E+00 0. -1.
         -1    1    3    3    0  502  0.90646194160E+02  0.66982640907E+02  0.55087426037E+02  0.12545131010E+03  0.00000000000E+00 0.  1.
         11    1    5    5    0    0 -0.20124900592E+03 -0.89672219107E+02 -0.12162558365E+04  0.12360503748E+04  0.00000000000E+00 0.  1.
        -11    1    5    5    0    0 -0.10407001838E+03 -0.67970442959E+02 -0.39210412252E+03  0.41133464811E+03  0.00000000000E+00 0. -1.
          2    1    6    6  503    0 -0.80148857777E+00 -0.16496221692E+02 -0.20813998765E+01  0.16646319098E+02  0.00000000000E+00 0. -1.
         -2    1    6    6    0  503  0.20429960232E+03  0.32985044526E+02 -0.20024945517E+02  0.20791185420E+03  0.00000000000E+00 0.  1.
<mgrwt>
<rscale>  0 0.15030463E+04</rscale>
<asrwt>0</asrwt>
<pdfrwt beam="1">  1        2 0.27693475E+00 0.15030463E+04</pdfrwt>
<pdfrwt beam="2">  1       -1 0.48270363E-01 0.15030463E+04</pdfrwt>
<totfact> 0.40747286E+01</totfact>
</mgrwt>
</event>
<event>
12    6  0.1530720E-007  0.1344641E+04  0.7818608E-02  0.8994895E-01
          2   -1    0    0  501    0  0.00000000000E+00  0.00000000000E+00  0.19348741617E+04  0.19348741617E+04  0.00000000000E+00 0. -1.
         -1   -1    0    0    0  501 -0.00000000000E+00 -0.00000000000E+00 -0.23361468820E+03  0.23361468820E+03  0.00000000000E+00 0.  1.
         24    2    1    2    0    0  0.23758208225E+03  0.61877822728E+02  0.90128679000E+03  0.93750384926E+03  0.79507727821E+02 0.  0.
        254    2    1    2    0    0 -0.23758208225E+03 -0.61877822728E+02  0.79997268347E+03  0.12309850006E+04  0.90282537995E+03 0.  0.
         23    2    4    4    0    0  0.25244934430E+03 -0.25993025413E+03  0.19300209035E+03  0.42109531261E+03  0.93685895267E+02 0.  0.
         23    2    4    4    0    0 -0.49003142655E+03  0.19805243140E+03  0.60697059311E+03  0.80988968800E+03  0.90290870155E+02 0.  0.
          2    1    3    3  502    0  0.55152311603E+02  0.19902589271E+02  0.36042385327E+03  0.36516194290E+03  0.00000000000E+00 0. -1.
         -1    1    3    3    0  502  0.18242977065E+03  0.41975233457E+02  0.54086293674E+03  0.57234190636E+03  0.00000000000E+00 0.  1.
         11    1    5    5    0    0  0.21034807308E+03 -0.17609691337E+03  0.10906507494E+03  0.29521454117E+03  0.00000000000E+00 0. -1.
        -11    1    5    5    0    0  0.42101271217E+02 -0.83833340764E+02  0.83937015415E+02  0.12588077144E+03  0.00000000000E+00 0.  1.
          2    1    6    6  503    0 -0.28161448515E+03  0.11482056659E+03  0.41536853561E+03  0.51480239037E+03  0.00000000000E+00 0. -1.
         -2    1    6    6    0  503 -0.20841694139E+03  0.83231864807E+02  0.19160205751E+03  0.29508729763E+03  0.00000000000E+00 0.  1.
<mgrwt>
<rscale>  0 0.13446413E+04</rscale>
<asrwt>0</asrwt>
<pdfrwt beam="1">  1        2 0.29767294E+00 0.13446413E+04</pdfrwt>
<pdfrwt beam="2">  1       -1 0.35940723E-01 0.13446413E+04</pdfrwt>
<totfact> 0.59835614E+01</totfact>
</mgrwt>
</event>
<event>
12    6  0.1530720E-007  0.2901851E+04  0.7818608E-02  0.8272327E-01
          2   -1    0    0  501    0  0.00000000000E+00  0.00000000000E+00  0.14364555534E+04  0.14364555534E+04  0.00000000000E+00 0. -1.
         -1   -1    0    0    0  501 -0.00000000000E+00 -0.00000000000E+00 -0.14655414791E+04  0.14655414791E+04  0.00000000000E+00 0.  1.
         24    2    1    2    0    0 -0.56856417570E+02 -0.73867910977E+03  0.10643452434E+04  0.12992204220E+04  0.79141825690E+02 0.  0.
        254    2    1    2    0    0  0.56856417570E+02  0.73867910977E+03 -0.10934311691E+04  0.16027766105E+04  0.90797668603E+03 0.  0.
         23    2    4    4    0    0 -0.31008688645E+03  0.39342698153E+03 -0.15016627672E+03  0.52967287419E+03  0.84052222142E+02 0.  0.
         23    2    4    4    0    0  0.36694330402E+03  0.34525212825E+03 -0.94326489233E+03  0.10731037363E+04  0.89199503444E+02 0.  0.
          4    1    3    3  502    0 -0.30494461181E+02 -0.55950527260E+03  0.74650618922E+03  0.93340642422E+03  0.00000000000E+00 0. -1.
         -3    1    3    3    0  502 -0.26361956388E+02 -0.17917383717E+03  0.31783905414E+03  0.36581399783E+03  0.00000000000E+00 0.  1.
         11    1    5    5    0    0 -0.18458682572E+03  0.19209867736E+03 -0.45069756474E+02  0.27019526462E+03  0.00000000000E+00 0.  1.
        -11    1    5    5    0    0 -0.12550006073E+03  0.20132830417E+03 -0.10509652025E+03  0.25947760957E+03  0.00000000000E+00 0. -1.
          3    1    6    6  503    0  0.16181263580E+03  0.93451226902E+02 -0.34981993833E+03  0.39659860081E+03  0.00000000000E+00 0. -1.
         -3    1    6    6    0  503  0.20513066822E+03  0.25180090134E+03 -0.59344495400E+03  0.67650513553E+03  0.00000000000E+00 0.  1.
<mgrwt>
<rscale>  0 0.29018513E+04</rscale>
<asrwt>0</asrwt>
<pdfrwt beam="1">  1        2 0.22099316E+00 0.29018513E+04</pdfrwt>
<pdfrwt beam="2">  1       -1 0.22546792E+00 0.29018513E+04</pdfrwt>
<totfact> 0.13713756E+00</totfact>
</mgrwt>
</event>
<event>
12    6  0.1530720E-007  0.1709754E+04  0.7818608E-02  0.8755821E-01
          2   -1    0    0  501    0  0.00000000000E+00  0.00000000000E+00  0.10542941533E+04  0.10542941533E+04  0.00000000000E+00 0. -1.
         -1   -1    0    0    0  501 -0.00000000000E+00 -0.00000000000E+00 -0.69317933855E+03  0.69317933855E+03  0.00000000000E+00 0.  1.
         24    2    1    2    0    0 -0.27208189147E+03 -0.36640094515E+03  0.55537960157E+03  0.72292201719E+03  0.76756321057E+02 0.  0.
        254    2    1    2    0    0  0.27208189147E+03  0.36640094515E+03 -0.19426478683E+03  0.10245514747E+04  0.89648687026E+03 0.  0.
         23    2    4    4    0    0 -0.28755386641E+03 -0.46609919107E+02 -0.51319436440E+02  0.30861137764E+03  0.88020379498E+02 0.  0.
         23    2    4    4    0    0  0.55963575788E+03  0.41301086426E+03 -0.14294535039E+03  0.71594009702E+03  0.91469633340E+02 0.  0.
          4    1    3    3  502    0 -0.18312218050E+03 -0.24581399872E+03  0.42680597111E+03  0.52547273186E+03  0.00000000000E+00 0. -1.
         -3    1    3    3    0  502 -0.88959710972E+02 -0.12058694643E+03  0.12857363046E+03  0.19744928533E+03  0.00000000000E+00 0.  1.
         11    1    5    5    0    0 -0.21658216726E+03 -0.53132148339E+02 -0.72105010974E+02  0.23437148497E+03  0.00000000000E+00 0.  1.
        -11    1    5    5    0    0 -0.70971699152E+02  0.65222292313E+01  0.20785574534E+02  0.74239892668E+02  0.00000000000E+00 0. -1.
          1    1    6    6  503    0  0.31963762752E+02  0.31837374815E+02  0.12252541813E+02  0.46748533081E+02  0.00000000000E+00 0. -1.
         -1    1    6    6    0  503  0.52767199513E+03  0.38117348944E+03 -0.15519789220E+03  0.66919156393E+03  0.00000000000E+00 0.  1.
<mgrwt>
<rscale>  0 0.17097543E+04</rscale>
<asrwt>0</asrwt>
<pdfrwt beam="1">  1        2 0.16219910E+00 0.17097543E+04</pdfrwt>
<pdfrwt beam="2">  1       -1 0.10664298E+00 0.17097543E+04</pdfrwt>
<totfact> 0.20718963E+01</totfact>
</mgrwt>
</event>
<event>
12    6  0.1530720E-007  0.1919293E+04  0.7818608E-02  0.8645312E-01
         -1   -1    0    0    0  501 -0.00000000000E+00  0.00000000000E+00  0.53404347898E+03  0.53404347898E+03  0.00000000000E+00 0.  1.
          2   -1    0    0  501    0  0.00000000000E+00 -0.00000000000E+00 -0.17244321132E+04  0.17244321132E+04  0.00000000000E+00 0. -1.
         24    2    1    2    0    0 -0.46865158446E+03 -0.29435011842E+03  0.12326821449E+03  0.57249505567E+03  0.79241631954E+02 0.  0.
        254    2    1    2    0    0  0.46865158446E+03  0.29435011842E+03 -0.13136568487E+04  0.16859805365E+04  0.90031092044E+03 0.  0.
         23    2    4    4    0    0  0.62370716084E+03 -0.44044751404E+02 -0.57588670035E+03  0.85500027807E+03  0.91811879692E+02 0.  0.
         23    2    4    4    0    0 -0.15505557638E+03  0.33839486982E+03 -0.73777014834E+03  0.83098025841E+03  0.87578983761E+02 0.  0.
          4    1    3    3  502    0 -0.17977401376E+03 -0.10608251389E+03  0.78773143053E+01  0.20888812282E+03  0.00000000000E+00 0. -1.
         -3    1    3    3    0  502 -0.28887757070E+03 -0.18826760453E+03  0.11539090019E+03  0.36360693284E+03  0.00000000000E+00 0.  1.
         11    1    5    5    0    0  0.48412392885E+03 -0.37368277220E+01 -0.47403603629E+03  0.67756926294E+03  0.00000000000E+00 0.  1.
        -11    1    5    5    0    0  0.13958323199E+03 -0.40307923682E+02 -0.10185066405E+03  0.17743101513E+03  0.00000000000E+00 0. -1.
          4    1    6    6  503    0  0.10832203193E+02  0.33854862411E+02 -0.64547187485E+02  0.73687364908E+02  0.00000000000E+00 0. -1.
         -4    1    6    6    0  503 -0.16588777958E+03  0.30454000741E+03 -0.67322296085E+03  0.75729289350E+03  0.00000000000E+00 0.  1.
<mgrwt>
<rscale>  0 0.19192933E+04</rscale>
<asrwt>0</asrwt>
<pdfrwt beam="1">  1        2 0.26529725E+00 0.19192933E+04</pdfrwt>
<pdfrwt beam="2">  1       -1 0.82160534E-01 0.19192933E+04</pdfrwt>
<totfact> 0.14914647E+01</totfact>
</mgrwt>
</event>
<event>
12    6  0.1539380E-007  0.2112141E+04  0.7818608E-02  0.8555914E-01
          2   -1    0    0  501    0  0.00000000000E+00  0.00000000000E+00  0.12530948924E+04  0.12530948924E+04  0.00000000000E+00 0. -1.
         -1   -1    0    0    0  501 -0.00000000000E+00 -0.00000000000E+00 -0.89002470825E+03  0.89002470825E+03  0.00000000000E+00 0.  1.
         24    2    1    2    0    0 -0.80219865678E+02 -0.47690065114E+03 -0.57223285788E+03  0.75333755737E+03  0.78724670846E+02 0.  0.
        254    2    1    2    0    0  0.80219865678E+02  0.47690065114E+03  0.93530304201E+03  0.13897820433E+04  0.90710136670E+03 0.  0.
         23    2    4    4    0    0  0.35055114086E+03  0.17149874440E+03  0.41904157267E+02  0.40294902947E+03  0.91181359188E+02 0.  0.
         23    2    4    4    0    0 -0.27033127519E+03  0.30540190674E+03  0.89339888474E+03  0.98683301379E+03  0.96584195731E+02 0.  0.
          2    1    3    3  502    0  0.49777328958E+01 -0.22507048785E+02 -0.54841074010E+02  0.59488557458E+02  0.00000000000E+00 0. -1.
         -3    1    3    3    0  502 -0.85197598574E+02 -0.45439360235E+03 -0.51739178387E+03  0.69384899991E+03  0.00000000000E+00 0.  1.
         11    1    5    5    0    0  0.31973075856E+03  0.15354994877E+03  0.64807414726E+02  0.36056254068E+03  0.00000000000E+00 0. -1.
        -11    1    5    5    0    0  0.30820382300E+02  0.17948795629E+02 -0.22903257458E+02  0.42386488789E+02  0.00000000000E+00 0.  1.
          1    1    6    6  503    0 -0.20319091368E+03  0.20573214200E+03  0.52547433236E+03  0.59977957253E+03  0.00000000000E+00 0. -1.
         -1    1    6    6    0  503 -0.67140361502E+02  0.99669764736E+02  0.36792455238E+03  0.38705344126E+03  0.00000000000E+00 0.  1.
<mgrwt>
<rscale>  0 0.21121415E+04</rscale>
<asrwt>0</asrwt>
<pdfrwt beam="1">  1        2 0.19278383E+00 0.21121415E+04</pdfrwt>
<pdfrwt beam="2">  1       -1 0.13692688E+00 0.21121415E+04</pdfrwt>
<totfact> 0.82101059E+00</totfact>
</mgrwt>
</event>
<event>
12    6  0.1530720E-007  0.2735116E+04  0.7818608E-02  0.8323700E-01
         -1   -1    0    0    0  501 -0.00000000000E+00  0.00000000000E+00  0.11817162440E+04  0.11817162440E+04  0.00000000000E+00 0.  1.
          2   -1    0    0  501    0  0.00000000000E+00 -0.00000000000E+00 -0.15826263604E+04  0.15826263604E+04  0.00000000000E+00 0. -1.
         24    2    1    2    0    0 -0.70309786253E+03 -0.37920041115E+03 -0.11093638961E+04  0.13693633113E+04  0.79549155930E+02 0.  0.
        254    2    1    2    0    0  0.70309786253E+03  0.37920041115E+03  0.70845377969E+03  0.13949792930E+04  0.89773098084E+03 0.  0.
         23    2    4    4    0    0 -0.12117869739E+03  0.19125337407E+03  0.43952594925E+03  0.50274020290E+03  0.91118174631E+02 0.  0.
         23    2    4    4    0    0  0.82427655993E+03  0.18794703708E+03  0.26892783044E+03  0.89223909015E+03  0.94934082472E+02 0.  0.
          2    1    3    3  502    0 -0.37927017412E+03 -0.19984882091E+03 -0.66221843116E+03  0.78887176827E+03  0.00000000000E+00 0. -1.
         -1    1    3    3    0  502 -0.32382768841E+03 -0.17935159023E+03 -0.44714546497E+03  0.58049154305E+03  0.00000000000E+00 0.  1.
         11    1    5    5    0    0 -0.40731092237E+02  0.19523617985E+02  0.14985758505E+03  0.15651673818E+03  0.00000000000E+00 0.  1.
        -11    1    5    5    0    0 -0.80447605157E+02  0.17172975608E+03  0.28966836420E+03  0.34622346471E+03  0.00000000000E+00 0. -1.
          2    1    6    6  503    0  0.37683842842E+03  0.13447566876E+03  0.12428812837E+03  0.41897308443E+03  0.00000000000E+00 0. -1.
         -2    1    6    6    0  503  0.44743813151E+03  0.53471368324E+02  0.14463970207E+03  0.47326600572E+03  0.00000000000E+00 0.  1.
<mgrwt>
<rscale>  0 0.27351163E+04</rscale>
<asrwt>0</asrwt>
<pdfrwt beam="1">  1        2 0.24348098E+00 0.27351163E+04</pdfrwt>
<pdfrwt beam="2">  1       -1 0.18180250E+00 0.27351163E+04</pdfrwt>
<totfact> 0.22948096E+00</totfact>
</mgrwt>
</event>
<event>
12    6  0.1530720E-007  0.1317669E+04  0.7818608E-02  0.9015670E-01
          2   -1    0    0  501    0  0.00000000000E+00  0.00000000000E+00  0.89344188504E+03  0.89344188504E+03  0.00000000000E+00 0. -1.
         -1   -1    0    0    0  501 -0.00000000000E+00 -0.00000000000E+00 -0.48583212251E+03  0.48583212251E+03  0.00000000000E+00 0.  1.
         24    2    1    2    0    0  0.11730494447E+03  0.32629323944E+03  0.17014692993E+03  0.39550580988E+03  0.85130134447E+02 0.  0.
        254    2    1    2    0    0 -0.11730494447E+03 -0.32629323944E+03  0.23746283261E+03  0.98376819767E+03  0.88948498682E+03 0.  0.
         23    2    4    4    0    0 -0.48769054194E+03 -0.27768120784E+03  0.17098151536E+03  0.59384135262E+03  0.91999758686E+02 0.  0.
         23    2    4    4    0    0  0.37038559747E+03 -0.48612031600E+02  0.66481317242E+02  0.38992684505E+03  0.89858547268E+02 0.  0.
          2    1    3    3  502    0  0.10014227970E+03  0.30069759820E+03  0.17827645993E+03  0.36363445644E+03  0.00000000000E+00 0. -1.
         -1    1    3    3    0  502  0.17162664766E+02  0.25595641240E+02 -0.81295300036E+01  0.31871353446E+02  0.00000000000E+00 0.  1.
         11    1    5    5    0    0 -0.46838310306E+03 -0.26008763079E+03  0.14083405192E+03  0.55395174618E+03  0.00000000000E+00 0. -1.
        -11    1    5    5    0    0 -0.19307438885E+02 -0.17593577049E+02  0.30147463441E+02  0.39889606436E+02  0.00000000000E+00 0.  1.
          1    1    6    6  503    0  0.36112403819E+03 -0.31057648582E+02  0.71528255486E+02  0.36944747911E+03  0.00000000000E+00 0. -1.
         -1    1    6    6    0  503  0.92615592897E+01 -0.17554383018E+02 -0.50469382433E+01  0.20479365939E+02  0.00000000000E+00 0.  1.
<mgrwt>
<rscale>  0 0.13176688E+04</rscale>
<asrwt>0</asrwt>
<pdfrwt beam="1">  1        2 0.13745260E+00 0.13176688E+04</pdfrwt>
<pdfrwt beam="2">  1       -1 0.74743404E-01 0.13176688E+04</pdfrwt>
<totfact> 0.59620367E+01</totfact>
</mgrwt>
</event>
<event>
12    6  0.1530720E-007  0.4527459E+04  0.7818608E-02  0.7905847E-01
         -1   -1    0    0    0  501 -0.00000000000E+00  0.00000000000E+00  0.19144603410E+04  0.19144603410E+04  0.00000000000E+00 0.  1.
          2   -1    0    0  501    0  0.00000000000E+00 -0.00000000000E+00 -0.26767180405E+04  0.26767180405E+04  0.00000000000E+00 0. -1.
         24    2    1    2    0    0 -0.16864961584E+04 -0.47982075109E+03 -0.16928535030E+04  0.24385679876E+04  0.79772188738E+02 0.  0.
        254    2    1    2    0    0  0.16864961584E+04  0.47982075109E+03  0.93059580351E+03  0.21526103939E+04  0.83260177347E+03 0.  0.
         23    2    4    4    0    0  0.16563206449E+04  0.61602386730E+03  0.80442750441E+03  0.19437719113E+04  0.90896366519E+02 0.  0.
         23    2    4    4    0    0  0.30175513429E+02 -0.13620311621E+03  0.12616829910E+03  0.20883848261E+03  0.90737101826E+02 0.  0.
          4    1    3    3  502    0 -0.80861018579E+03 -0.21013315854E+03 -0.85500732969E+03  0.11954262465E+04  0.00000000000E+00 0. -1.
         -3    1    3    3    0  502 -0.87788597256E+03 -0.26968759255E+03 -0.83784617334E+03  0.12431417411E+04  0.00000000000E+00 0.  1.
         11    1    5    5    0    0  0.71973174060E+03  0.24372931726E+03  0.38873894284E+03  0.85354304179E+03  0.00000000000E+00 0.  1.
        -11    1    5    5    0    0  0.93658890433E+03  0.37229455004E+03  0.41568856158E+03  0.10902288695E+04  0.00000000000E+00 0. -1.
          3    1    6    6  503    0  0.39578440611E+02 -0.18534452187E+02  0.57674157597E+02  0.72362195473E+02  0.00000000000E+00 0. -1.
         -3    1    6    6    0  503 -0.94029271822E+01 -0.11766866402E+03  0.68494141499E+02  0.13647628714E+03  0.00000000000E+00 0.  1.
<mgrwt>
<rscale>  0 0.45274587E+04</rscale>
<asrwt>0</asrwt>
<pdfrwt beam="1">  1        2 0.41180277E+00 0.45274587E+04</pdfrwt>
<pdfrwt beam="2">  1       -1 0.29453236E+00 0.45274587E+04</pdfrwt>
<totfact> 0.84422096E-02</totfact>
</mgrwt>
</event>
<event>
12    6  0.1530720E-007  0.2206891E+04  0.7818608E-02  0.8515565E-01
          2   -1    0    0  501    0  0.00000000000E+00  0.00000000000E+00  0.11070181115E+04  0.11070181115E+04  0.00000000000E+00 0. -1.
         -1   -1    0    0    0  501 -0.00000000000E+00 -0.00000000000E+00 -0.10998844124E+04  0.10998844124E+04  0.00000000000E+00 0.  1.
         24    2    1    2    0    0 -0.49569049384E+03 -0.77147257259E+03  0.73518982301E+02  0.92350996499E+03  0.81157986303E+02 0.  0.
        254    2    1    2    0    0  0.49569049384E+03  0.77147257259E+03 -0.66385283251E+02  0.12833925589E+04  0.89543869608E+03 0.  0.
         23    2    4    4    0    0  0.10646086643E+03  0.62404268514E+03  0.31336770765E+03  0.71214204714E+03  0.90464281075E+02 0.  0.
         23    2    4    4    0    0  0.38922962741E+03  0.14742988745E+03 -0.37975299090E+03  0.57125051175E+03  0.94231303242E+02 0.  0.
          4    1    3    3  502    0 -0.30741006375E+03 -0.42484510951E+03  0.69854320992E+02  0.52903113380E+03  0.00000000000E+00 0. -1.
         -3    1    3    3    0  502 -0.18828043009E+03 -0.34662746308E+03  0.36646613080E+01  0.39447883119E+03  0.00000000000E+00 0.  1.
         11    1    5    5    0    0 -0.10687574981E+02  0.21794623392E+02  0.26669572049E+01  0.24420125481E+02  0.00000000000E+00 0. -1.
        -11    1    5    5    0    0  0.11714844142E+03  0.60224806175E+03  0.31070075045E+03  0.68772192166E+03  0.00000000000E+00 0.  1.
          2    1    6    6  503    0  0.81647730080E+02  0.12107312879E+02 -0.12400660808E+03  0.14896502174E+03  0.00000000000E+00 0. -1.
         -2    1    6    6    0  503  0.30758189733E+03  0.13532257457E+03 -0.25574638282E+03  0.42228549001E+03  0.00000000000E+00 0.  1.
<mgrwt>
<rscale>  0 0.22068910E+04</rscale>
<asrwt>0</asrwt>
<pdfrwt beam="1">  1        2 0.17031048E+00 0.22068910E+04</pdfrwt>
<pdfrwt beam="2">  1       -1 0.16921299E+00 0.22068910E+04</pdfrwt>
<totfact> 0.56028732E+00</totfact>
</mgrwt>
</event>
<event>
12    6  0.1530720E-007  0.3625215E+04  0.7818608E-02  0.8084740E-01
          2   -1    0    0  501    0  0.00000000000E+00  0.00000000000E+00  0.26462724584E+04  0.26462724584E+04  0.00000000000E+00 0. -1.
         -3   -1    0    0    0  501 -0.00000000000E+00 -0.00000000000E+00 -0.12415748852E+04  0.12415748852E+04  0.00000000000E+00 0.  1.
         24    2    1    2    0    0  0.73569837068E+03  0.53427272255E+03  0.21997753109E+04  0.23815604184E+04  0.78225145765E+02 0.  0.
        254    2    1    2    0    0 -0.73569837068E+03 -0.53427272255E+03 -0.79507773766E+03  0.15062869252E+04  0.90002903138E+03 0.  0.
         23    2    4    4    0    0 -0.76158722632E+03 -0.65560735282E+03 -0.87460888009E+03  0.13351978271E+04  0.89310917455E+02 0.  0.
         23    2    4    4    0    0  0.25888855643E+02  0.12133463027E+03  0.79531142427E+02  0.17108909807E+03  0.86913471428E+02 0.  0.
          2    1    3    3  502    0  0.56295558339E+03  0.40691270269E+03  0.15895637421E+04  0.17347074182E+04  0.00000000000E+00 0. -1.
         -1    1    3    3    0  502  0.17274278729E+03  0.12736001987E+03  0.61021156877E+03  0.64685300021E+03  0.00000000000E+00 0.  1.
         11    1    5    5    0    0 -0.69732995701E+03 -0.59163794135E+03 -0.76011881264E+03  0.11891531154E+04  0.00000000000E+00 0.  1.
        -11    1    5    5    0    0 -0.64257269316E+02 -0.63969411474E+02 -0.11449006744E+03  0.14604471167E+03  0.00000000000E+00 0. -1.
          3    1    6    6  503    0  0.44167655228E+01 -0.13784955773E+02  0.10215851901E+02  0.17717123169E+02  0.00000000000E+00 0. -1.
         -3    1    6    6    0  503  0.21472090120E+02  0.13511958604E+03  0.69315290526E+02  0.15337197491E+03  0.00000000000E+00 0.  1.
<mgrwt>
<rscale>  0 0.36252147E+04</rscale>
<asrwt>0</asrwt>
<pdfrwt beam="1">  1        2 0.40711884E+00 0.36252147E+04</pdfrwt>
<pdfrwt beam="2">  1       -3 0.19101152E+00 0.36252147E+04</pdfrwt>
<totfact> 0.24642794E-01</totfact>
</mgrwt>
</event>
<event>
12    6  0.1530720E-007  0.1472371E+04  0.7818608E-02  0.8903037E-01
          2   -1    0    0  501    0  0.00000000000E+00  0.00000000000E+00  0.27082071662E+04  0.27082071662E+04  0.00000000000E+00 0. -1.
         -1   -1    0    0    0  501 -0.00000000000E+00 -0.00000000000E+00 -0.20012090107E+03  0.20012090107E+03  0.00000000000E+00 0.  1.
         24    2    1    2    0    0 -0.16052705016E+03 -0.33435307808E+03  0.27685722271E+03  0.47162433190E+03  0.90656902754E+02 0.  0.
        254    2    1    2    0    0  0.16052705016E+03  0.33435307808E+03  0.22312290424E+04  0.24367037353E+04  0.90641113167E+03 0.  0.
         23    2    4    4    0    0  0.45719668489E+03  0.27302969323E+03  0.76336313311E+03  0.93514026043E+03  0.90498683033E+02 0.  0.
         23    2    4    4    0    0 -0.29666963473E+03  0.61323384851E+02  0.14678659093E+04  0.15015634749E+04  0.91044559821E+02 0.  0.
          4    1    3    3  502    0 -0.66234251387E+02 -0.18660057928E+03  0.97014421459E+02  0.22049614558E+03  0.00000000000E+00 0. -1.
         -3    1    3    3    0  502 -0.94292798771E+02 -0.14775249880E+03  0.17984280125E+03  0.25112818632E+03  0.00000000000E+00 0.  1.
         11    1    5    5    0    0  0.19635363077E+03  0.16467190043E+03  0.39721747357E+03  0.47270847721E+03  0.00000000000E+00 0.  1.
        -11    1    5    5    0    0  0.26084305412E+03  0.10835779279E+03  0.36614565953E+03  0.46243178323E+03  0.00000000000E+00 0. -1.
          1    1    6    6  503    0 -0.21242303319E+03  0.31866029118E+01  0.10570598194E+04  0.10781971811E+04  0.00000000000E+00 0. -1.
         -1    1    6    6    0  503 -0.84246601546E+02  0.58136781939E+02  0.41080608984E+03  0.42336629381E+03  0.00000000000E+00 0.  1.
<mgrwt>
<rscale>  0 0.14723707E+04</rscale>
<asrwt>0</asrwt>
<pdfrwt beam="1">  1        2 0.41664723E+00 0.14723707E+04</pdfrwt>
<pdfrwt beam="2">  1       -1 0.30787833E-01 0.14723707E+04</pdfrwt>
<totfact> 0.28357253E+01</totfact>
</mgrwt>
</event>
<event>
12    6  0.1530720E-007  0.1900082E+04  0.7818608E-02  0.8654815E-01
          2   -1    0    0  501    0  0.00000000000E+00  0.00000000000E+00  0.28112132864E+04  0.28112132864E+04  0.00000000000E+00 0. -1.
         -1   -1    0    0    0  501 -0.00000000000E+00 -0.00000000000E+00 -0.32106362029E+03  0.32106362029E+03  0.00000000000E+00 0.  1.
         24    2    1    2    0    0 -0.56288543904E+02 -0.20446337826E+03 -0.19143882994E+03  0.29646675163E+03  0.79183558837E+02 0.  0.
        254    2    1    2    0    0  0.56288543904E+02  0.20446337826E+03  0.26815884960E+04  0.28358101550E+04  0.89773531742E+03 0.  0.
         23    2    4    4    0    0 -0.36277519664E+03  0.30389762649E+03  0.13534781725E+04  0.14366450958E+04  0.89924173579E+02 0.  0.
         23    2    4    4    0    0  0.41906374054E+03 -0.99434248234E+02  0.13281103235E+04  0.13991650592E+04  0.91017818752E+02 0.  0.
          2    1    3    3  502    0  0.69278663683E+01 -0.22398730761E+02  0.18414133089E+01  0.23517850138E+02  0.00000000000E+00 0. -1.
         -1    1    3    3    0  502 -0.63216410272E+02 -0.18206464749E+03 -0.19328024325E+03  0.27294890149E+03  0.00000000000E+00 0.  1.
         11    1    5    5    0    0 -0.18842875418E+03  0.20812237117E+03  0.85630268572E+03  0.90115182204E+03  0.00000000000E+00 0. -1.
        -11    1    5    5    0    0 -0.17434644246E+03  0.95775255324E+02  0.49717548682E+03  0.53549327374E+03  0.00000000000E+00 0.  1.
          2    1    6    6  503    0  0.15158433393E+03  0.51188247411E+01  0.40811149063E+03  0.43538374045E+03  0.00000000000E+00 0. -1.
         -2    1    6    6    0  503  0.26747940661E+03 -0.10455307298E+03  0.91999883283E+03  0.96378131879E+03  0.00000000000E+00 0.  1.
<mgrwt>
<rscale>  0 0.19000824E+04</rscale>
<asrwt>0</asrwt>
<pdfrwt beam="1">  1        2 0.43249433E+00 0.19000824E+04</pdfrwt>
<pdfrwt beam="2">  1       -1 0.49394405E-01 0.19000824E+04</pdfrwt>
<totfact> 0.99915016E+00</totfact>
</mgrwt>
</event>
<event>
12    6  0.1530720E-007  0.1314597E+04  0.7818608E-02  0.9018069E-01
         -1   -1    0    0    0  501 -0.00000000000E+00  0.00000000000E+00  0.14597936666E+03  0.14597936666E+03  0.00000000000E+00 0.  1.
          2   -1    0    0  501    0  0.00000000000E+00 -0.00000000000E+00 -0.29596049774E+04  0.29596049774E+04  0.00000000000E+00 0. -1.
         24    2    1    2    0    0  0.11928196327E+03  0.30556013330E+03 -0.52231074051E+03  0.62195543719E+03  0.80155314073E+02 0.  0.
        254    2    1    2    0    0 -0.11928196327E+03 -0.30556013330E+03 -0.22913148703E+04  0.24836289069E+04  0.90038521238E+03 0.  0.
         23    2    4    4    0    0 -0.38754186462E+03  0.14653341991E+03 -0.10550312030E+04  0.11370312920E+04  0.89936531647E+02 0.  0.
         23    2    4    4    0    0  0.26825990135E+03 -0.45209355322E+03 -0.12362836673E+04  0.13465976149E+04  0.92606020066E+02 0.  0.
          2    1    3    3  502    0  0.66415046600E+02  0.16472049497E+03 -0.35506091390E+03  0.39700384439E+03  0.00000000000E+00 0. -1.
         -1    1    3    3    0  502  0.52866916670E+02  0.14083963833E+03 -0.16724982660E+03  0.22495159280E+03  0.00000000000E+00 0.  1.
         11    1    5    5    0    0 -0.32658310810E+03  0.15531903560E+03 -0.92397426567E+03  0.99222425537E+03  0.00000000000E+00 0.  1.
        -11    1    5    5    0    0 -0.60958756518E+02 -0.87856156915E+01 -0.13105693733E+03  0.14480703664E+03  0.00000000000E+00 0. -1.
          2    1    6    6  503    0  0.21513594554E+03 -0.29183353610E+03 -0.78217273148E+03  0.86211627390E+03  0.00000000000E+00 0. -1.
         -2    1    6    6    0  503  0.53123955809E+02 -0.16026001711E+03 -0.45411093578E+03  0.48448134098E+03  0.00000000000E+00 0.  1.
<mgrwt>
<rscale>  0 0.13145969E+04</rscale>
<asrwt>0</asrwt>
<pdfrwt beam="1">  1        2 0.45532386E+00 0.13145969E+04</pdfrwt>
<pdfrwt beam="2">  1       -1 0.22458363E-01 0.13145969E+04</pdfrwt>
<totfact> 0.34980563E+01</totfact>
</mgrwt>
</event>
<event>
12    6  0.1530720E-007  0.1342439E+04  0.7818608E-02  0.8996572E-01
          2   -1    0    0  501    0  0.00000000000E+00  0.00000000000E+00  0.11186172011E+04  0.11186172011E+04  0.00000000000E+00 0. -1.
         -1   -1    0    0    0  501 -0.00000000000E+00 -0.00000000000E+00 -0.40276117505E+03  0.40276117505E+03  0.00000000000E+00 0.  1.
         24    2    1    2    0    0 -0.11915951305E+03 -0.23356280918E+03  0.48298653377E+03  0.55521851515E+03  0.79000204908E+02 0.  0.
        254    2    1    2    0    0  0.11915951305E+03  0.23356280918E+03  0.23286949233E+03  0.96615986105E+03  0.90027001575E+03 0.  0.
         23    2    4    4    0    0 -0.21799462738E+03 -0.24852802233E+03  0.10046852357E+03  0.35582814507E+03  0.85040632303E+02 0.  0.
         23    2    4    4    0    0  0.33715414044E+03  0.48209083151E+03  0.13240096876E+03  0.61033171598E+03  0.94288402074E+02 0.  0.
          4    1    3    3  502    0 -0.11607020310E+03 -0.19601966444E+03  0.35502886574E+03  0.42183112309E+03  0.00000000000E+00 0. -1.
         -3    1    3    3    0  502 -0.30893099498E+01 -0.37543144736E+02  0.12795766803E+03  0.13338739206E+03  0.00000000000E+00 0.  1.
         11    1    5    5    0    0 -0.66926618583E+02 -0.56790862947E+02  0.64874293868E+02  0.10914691198E+03  0.00000000000E+00 0. -1.
        -11    1    5    5    0    0 -0.15106800880E+03 -0.19173715938E+03  0.35594229705E+02  0.24668123309E+03  0.00000000000E+00 0.  1.
          1    1    6    6  503    0  0.54456777661E+02  0.86191976586E+02 -0.12554110977E+02  0.10272391719E+03  0.00000000000E+00 0. -1.
         -1    1    6    6    0  503  0.28269736278E+03  0.39589885492E+03  0.14495507974E+03  0.50760779879E+03  0.00000000000E+00 0.  1.
<mgrwt>
<rscale>  0 0.13424389E+04</rscale>
<asrwt>0</asrwt>
<pdfrwt beam="1">  1        2 0.17209495E+00 0.13424389E+04</pdfrwt>
<pdfrwt beam="2">  1       -1 0.61963258E-01 0.13424389E+04</pdfrwt>
<totfact> 0.62474312E+01</totfact>
</mgrwt>
</event>
<event>
12    6  0.1530720E-007  0.2303205E+04  0.7818608E-02  0.8476659E-01
         -1   -1    0    0    0  501 -0.00000000000E+00  0.00000000000E+00  0.84092817351E+03  0.84092817351E+03  0.00000000000E+00 0.  1.
          2   -1    0    0  501    0  0.00000000000E+00 -0.00000000000E+00 -0.15770529575E+04  0.15770529575E+04  0.00000000000E+00 0. -1.
         24    2    1    2    0    0  0.81290931511E+03  0.13931315017E+03 -0.86515987347E+03  0.11979453100E+04  0.79634481112E+02 0.  0.
        254    2    1    2    0    0 -0.81290931511E+03 -0.13931315017E+03  0.12903508951E+03  0.12200358210E+04  0.88972335129E+03 0.  0.
         23    2    4    4    0    0 -0.11517339232E+03 -0.32251991734E+03  0.31011884936E+03  0.47060065664E+03  0.89483349939E+02 0.  0.
         23    2    4    4    0    0 -0.69773592279E+03  0.18320676717E+03 -0.18108375985E+03  0.74943516438E+03  0.91986955795E+02 0.  0.
          4    1    3    3  502    0  0.41761893301E+03  0.95825758695E+02 -0.49459454592E+03  0.65437902938E+03  0.00000000000E+00 0. -1.
         -3    1    3    3    0  502  0.39529038210E+03  0.43487391476E+02 -0.37056532755E+03  0.54356628058E+03  0.00000000000E+00 0.  1.
         11    1    5    5    0    0 -0.17151976414E+02 -0.39108601650E+01  0.40453740065E+01  0.18051320533E+02  0.00000000000E+00 0. -1.
        -11    1    5    5    0    0 -0.98021415906E+02 -0.31860905717E+03  0.30607347536E+03  0.45254933610E+03  0.00000000000E+00 0.  1.
          1    1    6    6  503    0 -0.19635886843E+03  0.78393044174E+02 -0.87107026781E+02  0.22866986837E+03  0.00000000000E+00 0. -1.
         -1    1    6    6    0  503 -0.50137705436E+03  0.10481372299E+03 -0.93976733069E+02  0.52076529601E+03  0.00000000000E+00 0.  1.
<mgrwt>
<rscale>  0 0.23032050E+04</rscale>
<asrwt>0</asrwt>
<pdfrwt beam="1">  1        2 0.24262353E+00 0.23032050E+04</pdfrwt>
<pdfrwt beam="2">  1       -1 0.12937357E+00 0.23032050E+04</pdfrwt>
<totfact> 0.60879305E+00</totfact>
</mgrwt>
</event>
<event>
12    6  0.1530720E-007  0.1818031E+04  0.7818608E-02  0.8696769E-01
          2   -1    0    0  501    0  0.00000000000E+00  0.00000000000E+00  0.25073855972E+04  0.25073855972E+04  0.00000000000E+00 0. -1.
         -1   -1    0    0    0  501 -0.00000000000E+00 -0.00000000000E+00 -0.32955022479E+03  0.32955022479E+03  0.00000000000E+00 0.  1.
         24    2    1    2    0    0 -0.11233997923E+03  0.63083676423E+03  0.11699224670E+04  0.13363053829E+04  0.80113691203E+02 0.  0.
        254    2    1    2    0    0  0.11233997923E+03 -0.63083676423E+03  0.10079129054E+04  0.15006304391E+04  0.90853067963E+03 0.  0.
         23    2    4    4    0    0 -0.26746924976E+03 -0.60409896773E+03  0.40329752527E+03  0.78027065927E+03  0.98478654829E+02 0.  0.
         23    2    4    4    0    0  0.37980922898E+03 -0.26737796503E+02  0.60461538017E+03  0.72035977985E+03  0.91588723691E+02 0.  0.
          4    1    3    3  502    0 -0.24524547457E+02  0.22859308519E+03  0.34894250773E+03  0.41787214040E+03  0.00000000000E+00 0. -1.
         -3    1    3    3    0  502 -0.87815431769E+02  0.40224367905E+03  0.82097995929E+03  0.91843324251E+03  0.00000000000E+00 0.  1.
         11    1    5    5    0    0 -0.17770893714E+03 -0.33961367678E+03  0.18406078902E+03  0.42520146972E+03  0.00000000000E+00 0.  1.
        -11    1    5    5    0    0 -0.89760312611E+02 -0.26448529095E+03  0.21923673625E+03  0.35506918955E+03  0.00000000000E+00 0. -1.
          3    1    6    6  503    0  0.22166293096E+03  0.26782554680E+02  0.31575599029E+03  0.38672161254E+03  0.00000000000E+00 0. -1.
         -3    1    6    6    0  503  0.15814629802E+03 -0.53520351183E+02  0.28885938988E+03  0.33363816732E+03  0.00000000000E+00 0.  1.
<mgrwt>
<rscale>  0 0.18180313E+04</rscale>
<asrwt>0</asrwt>
<pdfrwt beam="1">  1        2 0.38575162E+00 0.18180313E+04</pdfrwt>
<pdfrwt beam="2">  1       -1 0.50700036E-01 0.18180313E+04</pdfrwt>
<totfact> 0.14477690E+01</totfact>
</mgrwt>
</event>
<event>
12    6  0.1530720E-007  0.1051006E+04  0.7818608E-02  0.9254306E-01
          2   -1    0    0  501    0  0.00000000000E+00  0.00000000000E+00  0.14355375610E+04  0.14355375610E+04  0.00000000000E+00 0. -1.
         -1   -1    0    0    0  501 -0.00000000000E+00 -0.00000000000E+00 -0.19236931499E+03  0.19236931499E+03  0.00000000000E+00 0.  1.
         24    2    1    2    0    0 -0.10832171738E+03  0.36512889049E+02  0.23994320462E+03  0.27712093441E+03  0.78463273710E+02 0.  0.
        254    2    1    2    0    0  0.10832171738E+03 -0.36512889049E+02  0.10032250413E+04  0.13507859415E+04  0.89727107986E+03 0.  0.
         23    2    4    4    0    0 -0.23390081117E+03  0.31665383052E+03  0.45649777647E+03  0.60973679195E+03  0.91703313369E+02 0.  0.
         23    2    4    4    0    0  0.34222252855E+03 -0.35316671957E+03  0.54672726488E+03  0.74104914959E+03  0.91652327239E+02 0.  0.
          4    1    3    3  502    0 -0.43320397786E+02  0.50679821409E+02  0.15855548865E+03  0.17200274458E+03  0.00000000000E+00 0. -1.
         -3    1    3    3    0  502 -0.65001319599E+02 -0.14166932360E+02  0.81387715967E+02  0.10511818983E+03  0.00000000000E+00 0.  1.
         11    1    5    5    0    0 -0.12811251054E+03  0.13094143404E+03  0.15382264191E+03  0.23920677179E+03  0.00000000000E+00 0. -1.
        -11    1    5    5    0    0 -0.10578830062E+03  0.18571239649E+03  0.30267513457E+03  0.37053002016E+03  0.00000000000E+00 0.  1.
          2    1    6    6  503    0  0.13312940260E+03 -0.12215669927E+03  0.13936357891E+03  0.22818392613E+03  0.00000000000E+00 0.  1.
         -2    1    6    6    0  503  0.20909312595E+03 -0.23101002030E+03  0.40736368597E+03  0.51286522347E+03  0.00000000000E+00 0. -1.
<mgrwt>
<rscale>  0 0.10510060E+04</rscale>
<asrwt>0</asrwt>
<pdfrwt beam="1">  1        2 0.22085193E+00 0.10510060E+04</pdfrwt>
<pdfrwt beam="2">  1       -1 0.29595280E-01 0.10510060E+04</pdfrwt>
<totfact> 0.16355995E+02</totfact>
</mgrwt>
</event>
<event>
12    6  0.1530720E-007  0.2538970E+04  0.7818608E-02  0.8389232E-01
         -1   -1    0    0    0  501 -0.00000000000E+00  0.00000000000E+00  0.11691425220E+04  0.11691425220E+04  0.00000000000E+00 0.  1.
          2   -1    0    0  501    0  0.00000000000E+00 -0.00000000000E+00 -0.13784395594E+04  0.13784395594E+04  0.00000000000E+00 0. -1.
         24    2    1    2    0    0 -0.25516673156E+03  0.10399042121E+04 -0.40557087101E+03  0.11476722780E+04  0.78441667161E+02 0.  0.
        254    2    1    2    0    0  0.25516673156E+03 -0.10399042121E+04  0.19627383366E+03  0.13999098034E+04  0.88017794147E+03 0.  0.
         23    2    4    4    0    0  0.10581948048E+03 -0.72910544016E+03  0.52885817311E+03  0.91146338666E+03  0.91005673651E+02 0.  0.
         23    2    4    4    0    0  0.14934725108E+03 -0.31079877189E+03 -0.33258433945E+03  0.48844641671E+03  0.95221222077E+02 0.  0.
          2    1    3    3  502    0 -0.16903450475E+03  0.78482960612E+03 -0.33035249517E+03  0.86813763051E+03  0.00000000000E+00 0. -1.
         -1    1    3    3    0  502 -0.86132226804E+02  0.25507460593E+03 -0.75218375836E+02  0.27953464750E+03  0.00000000000E+00 0.  1.
         11    1    5    5    0    0  0.41925526302E+02 -0.12627419424E+03  0.12856241626E+03  0.18501680129E+03  0.00000000000E+00 0. -1.
        -11    1    5    5    0    0  0.63893954173E+02 -0.60283124592E+03  0.40029575686E+03  0.72644658537E+03  0.00000000000E+00 0.  1.
          3    1    6    6  503    0  0.68598702868E+02 -0.24197733178E+03 -0.22821547866E+03  0.33961907460E+03  0.00000000000E+00 0. -1.
         -3    1    6    6    0  503  0.80748548214E+02 -0.68821440115E+02 -0.10436886079E+03  0.14882734212E+03  0.00000000000E+00 0.  1.
<mgrwt>
<rscale>  0 0.25389701E+04</rscale>
<asrwt>0</asrwt>
<pdfrwt beam="1">  1        2 0.21206763E+00 0.25389701E+04</pdfrwt>
<pdfrwt beam="2">  1       -1 0.17986808E+00 0.25389701E+04</pdfrwt>
<totfact> 0.31452657E+00</totfact>
</mgrwt>
</event>
<event>
12    6  0.1530720E-007  0.1786175E+04  0.7818608E-02  0.8713686E-01
         -1   -1    0    0    0  501 -0.00000000000E+00  0.00000000000E+00  0.29692538919E+03  0.29692538919E+03  0.00000000000E+00 0.  1.
          2   -1    0    0  501    0  0.00000000000E+00 -0.00000000000E+00 -0.26862143353E+04  0.26862143353E+04  0.00000000000E+00 0. -1.
         24    2    1    2    0    0  0.96208681531E+02  0.59457192014E+03 -0.13214551245E+04  0.14544964206E+04  0.80896927966E+02 0.  0.
        254    2    1    2    0    0 -0.96208681531E+02 -0.59457192014E+03 -0.10678338216E+04  0.15286433039E+04  0.91307688683E+03 0.  0.
         23    2    4    4    0    0  0.19559754596E+03 -0.71513964096E+03 -0.86427344601E+03  0.11422474616E+04  0.89875290820E+02 0.  0.
         23    2    4    4    0    0 -0.29180622749E+03  0.12056772082E+03 -0.20356037563E+03  0.38639584233E+03  0.90429368787E+02 0.  0.
          4    1    3    3  502    0  0.64181927205E+02  0.26024059083E+03 -0.50660989755E+03  0.57314751434E+03  0.00000000000E+00 0. -1.
         -3    1    3    3    0  502  0.32026754326E+02  0.33433132931E+03 -0.81484522694E+03  0.88134890629E+03  0.00000000000E+00 0.  1.
         11    1    5    5    0    0  0.14990373329E+03 -0.60412120626E+03 -0.76662320495E+03  0.98749415161E+03  0.00000000000E+00 0.  1.
        -11    1    5    5    0    0  0.45693812667E+02 -0.11101843470E+03 -0.97650241068E+02  0.15475330995E+03  0.00000000000E+00 0. -1.
          1    1    6    6  503    0 -0.33532491456E+02  0.29826188098E+01 -0.58969573655E+02  0.67902390351E+02  0.00000000000E+00 0. -1.
         -1    1    6    6    0  503 -0.25827373603E+03  0.11758510201E+03 -0.14459080198E+03  0.31849345198E+03  0.00000000000E+00 0.  1.
<mgrwt>
<rscale>  0 0.17861749E+04</rscale>
<asrwt>0</asrwt>
<pdfrwt beam="1">  1        2 0.41326375E+00 0.17861749E+04</pdfrwt>
<pdfrwt beam="2">  1       -1 0.45680829E-01 0.17861749E+04</pdfrwt>
<totfact> 0.13894869E+01</totfact>
</mgrwt>
</event>
<event>
12    6  0.1530720E-007  0.1628628E+04  0.7818608E-02  0.8803151E-01
         -1   -1    0    0    0  501 -0.00000000000E+00  0.00000000000E+00  0.33863968763E+03  0.33863968763E+03  0.00000000000E+00 0.  1.
          2   -1    0    0  501    0  0.00000000000E+00 -0.00000000000E+00 -0.19581498874E+04  0.19581498874E+04  0.00000000000E+00 0. -1.
         24    2    1    2    0    0  0.23798793244E+03 -0.20270348768E+03 -0.12206186606E+04  0.12625619651E+04  0.80161345826E+02 0.  0.
        254    2    1    2    0    0 -0.23798793244E+03  0.20270348768E+03 -0.39889153916E+03  0.10342276099E+04  0.90154607707E+03 0.  0.
         23    2    4    4    0    0  0.44034010168E+01 -0.31054177058E+03 -0.31864572005E+03  0.45404661166E+03  0.90375048774E+02 0.  0.
         23    2    4    4    0    0 -0.24239133346E+03  0.51324525826E+03 -0.80245819109E+02  0.58018099820E+03  0.89422287645E+02 0.  0.
          4    1    3    3  502    0  0.10011872078E+03 -0.12465779900E+03 -0.50896842726E+03  0.53349056697E+03  0.00000000000E+00 0. -1.
         -3    1    3    3    0  502  0.13786921165E+03 -0.78045688684E+02 -0.71165023330E+03  0.72907139815E+03  0.00000000000E+00 0.  1.
         11    1    5    5    0    0 -0.29999550124E+02 -0.25969540621E+03 -0.24642764126E+03  0.35926071229E+03  0.00000000000E+00 0.  1.
        -11    1    5    5    0    0  0.34402951141E+02 -0.50846364366E+02 -0.72218078782E+02  0.94785899370E+02  0.00000000000E+00 0. -1.
          3    1    6    6  503    0  0.36727919157E+01  0.21780583969E+02 -0.14998491488E+02  0.26699025926E+02  0.00000000000E+00 0. -1.
         -3    1    6    6    0  503 -0.24606412537E+03  0.49146467429E+03 -0.65247327620E+02  0.55348197227E+03  0.00000000000E+00 0.  1.
<mgrwt>
<rscale>  0 0.16286280E+04</rscale>
<asrwt>0</asrwt>
<pdfrwt beam="1">  1        2 0.30125382E+00 0.16286280E+04</pdfrwt>
<pdfrwt beam="2">  1       -1 0.52098415E-01 0.16286280E+04</pdfrwt>
<totfact> 0.28506450E+01</totfact>
</mgrwt>
</event>
<event>
12    6  0.1530720E-007  0.2591076E+04  0.7818608E-02  0.8371239E-01
         -1   -1    0    0    0  501 -0.00000000000E+00  0.00000000000E+00  0.12554191096E+04  0.12554191096E+04  0.00000000000E+00 0.  1.
          2   -1    0    0  501    0  0.00000000000E+00 -0.00000000000E+00 -0.13369390303E+04  0.13369390303E+04  0.00000000000E+00 0. -1.
         24    2    1    2    0    0 -0.85790601532E+02  0.46086354668E+02  0.10953506858E+04  0.11024003787E+04  0.77520904710E+02 0.  0.
        254    2    1    2    0    0  0.85790601532E+02 -0.46086354668E+02 -0.11768706065E+04  0.14899577613E+04  0.90855144406E+03 0.  0.
         23    2    4    4    0    0 -0.29990754901E+03 -0.25927294392E+03 -0.30310470857E+03  0.50716568544E+03  0.90429921603E+02 0.  0.
         23    2    4    4    0    0  0.38569815054E+03  0.21318658925E+03 -0.87376589794E+03  0.98279207583E+03  0.90563981510E+02 0.  0.
          4    1    3    3  502    0 -0.12909194091E+01 -0.32253366217E+01  0.90439419713E+00  0.35898743861E+01  0.00000000000E+00 0. -1.
         -3    1    3    3    0  502 -0.84499682123E+02  0.49311691290E+02  0.10944462916E+04  0.10988105043E+04  0.00000000000E+00 0.  1.
         11    1    5    5    0    0 -0.19033733052E+02 -0.27213792043E+02  0.33646405332E-01  0.33209555904E+02  0.00000000000E+00 0. -1.
        -11    1    5    5    0    0 -0.28087381596E+03 -0.23205915188E+03 -0.30313835498E+03  0.47395612953E+03  0.00000000000E+00 0.  1.
          1    1    6    6  503    0  0.82608943570E+02  0.78934577516E+02 -0.28622619339E+03  0.30818880393E+03  0.00000000000E+00 0. -1.
         -1    1    6    6    0  503  0.30308920697E+03  0.13425201174E+03 -0.58753970455E+03  0.67460327190E+03  0.00000000000E+00 0.  1.
<mgrwt>
<rscale>  0 0.25910761E+04</rscale>
<asrwt>0</asrwt>
<pdfrwt beam="1">  1        2 0.20568293E+00 0.25910761E+04</pdfrwt>
<pdfrwt beam="2">  1       -1 0.19314140E+00 0.25910761E+04</pdfrwt>
<totfact> 0.26652362E+00</totfact>
</mgrwt>
</event>
<event>
12    6  0.1530720E-007  0.2519971E+04  0.7818608E-02  0.8395905E-01
          2   -1    0    0  501    0  0.00000000000E+00  0.00000000000E+00  0.18356790927E+04  0.18356790927E+04  0.00000000000E+00 0. -1.
         -1   -1    0    0    0  501 -0.00000000000E+00 -0.00000000000E+00 -0.86483703251E+03  0.86483703251E+03  0.00000000000E+00 0.  1.
         24    2    1    2    0    0  0.57742203788E+03 -0.31494558261E+03 -0.51846749671E+03  0.84175050595E+03  0.84430085204E+02 0.  0.
        254    2    1    2    0    0 -0.57742203788E+03  0.31494558261E+03  0.14893095569E+04  0.18587656193E+04  0.89686104901E+03 0.  0.
         23    2    4    4    0    0 -0.76733346726E+02 -0.28394126543E+03  0.58413154260E+03  0.66007194837E+03  0.89301003666E+02 0.  0.
         23    2    4    4    0    0 -0.50068869116E+03  0.59888684804E+03  0.90517801433E+03  0.11986936709E+04  0.90358490661E+02 0.  0.
          4    1    3    3  502    0  0.65322311642E+02 -0.82037934428E+01 -0.43526709075E+02  0.78923260374E+02  0.00000000000E+00 0. -1.
         -3    1    3    3    0  502  0.51209972624E+03 -0.30674178917E+03 -0.47494078764E+03  0.76282724558E+03  0.00000000000E+00 0.  1.
         11    1    5    5    0    0 -0.29992243608E+02 -0.20804914457E+03  0.33510036447E+03  0.39557077180E+03  0.00000000000E+00 0.  1.
        -11    1    5    5    0    0 -0.46741103118E+02 -0.75892120864E+02  0.24903117813E+03  0.26450117658E+03  0.00000000000E+00 0. -1.
          4    1    6    6  503    0 -0.36564281579E+03  0.47179620382E+03  0.64049010616E+03  0.87550779709E+03  0.00000000000E+00 0. -1.
         -4    1    6    6    0  503 -0.13504587536E+03  0.12709064422E+03  0.26468790817E+03  0.32318587381E+03  0.00000000000E+00 0.  1.
<mgrwt>
<rscale>  0 0.25199708E+04</rscale>
<asrwt>0</asrwt>
<pdfrwt beam="1">  1        2 0.28241217E+00 0.25199708E+04</pdfrwt>
<pdfrwt beam="2">  1       -1 0.13305185E+00 0.25199708E+04</pdfrwt>
<totfact> 0.39945936E+00</totfact>
</mgrwt>
</event>
<event>
12    6  0.1530720E-007  0.3515768E+04  0.7818608E-02  0.8110063E-01
          2   -1    0    0  501    0  0.00000000000E+00  0.00000000000E+00  0.24783267375E+04  0.24783267375E+04  0.00000000000E+00 0. -1.
         -1   -1    0    0    0  501 -0.00000000000E+00 -0.00000000000E+00 -0.12468722633E+04  0.12468722633E+04  0.00000000000E+00 0.  1.
         24    2    1    2    0    0  0.12077763066E+04  0.30643736985E+03 -0.57180574417E+03  0.13734670747E+04  0.82598595047E+02 0.  0.
        254    2    1    2    0    0 -0.12077763066E+04 -0.30643736985E+03  0.18032602185E+04  0.23517319261E+04  0.85221368709E+03 0.  0.
         23    2    4    4    0    0 -0.70224087596E+03 -0.49396747629E+03  0.14877107012E+04  0.17202455387E+04  0.93890720568E+02 0.  0.
         23    2    4    4    0    0 -0.50553543060E+03  0.18753010644E+03  0.31554951726E+03  0.63148638742E+03  0.92032316307E+02 0.  0.
          4    1    3    3  502    0  0.13046080874E+03  0.83298929843E+01 -0.68429055620E+02  0.14755319511E+03  0.00000000000E+00 0. -1.
         -3    1    3    3    0  502  0.10773154978E+04  0.29810747687E+03 -0.50337668855E+03  0.12259138796E+04  0.00000000000E+00 0.  1.
         11    1    5    5    0    0 -0.56462183921E+03 -0.43779041751E+03  0.12547260921E+04  0.14438822103E+04  0.00000000000E+00 0. -1.
        -11    1    5    5    0    0 -0.13761903674E+03 -0.56177058776E+02  0.23298460909E+03  0.27636332839E+03  0.00000000000E+00 0.  1.
          3    1    6    6  503    0 -0.48000448896E+03  0.19075063450E+03  0.31643081015E+03  0.60573803875E+03  0.00000000000E+00 0. -1.
         -3    1    6    6    0  503 -0.25530941642E+02 -0.32205280615E+01 -0.88129288547E+00  0.25748348671E+02  0.00000000000E+00 0.  1.
<mgrwt>
<rscale>  0 0.35157684E+04</rscale>
<asrwt>0</asrwt>
<pdfrwt beam="1">  1        2 0.38128104E+00 0.35157684E+04</pdfrwt>
<pdfrwt beam="2">  1       -1 0.19182650E+00 0.35157684E+04</pdfrwt>
<totfact> 0.57328265E-01</totfact>
</mgrwt>
</event>
<event>
12    6  0.1530720E-007  0.1737540E+04  0.7818608E-02  0.8740239E-01
          2   -1    0    0  501    0  0.00000000000E+00  0.00000000000E+00  0.29833221296E+04  0.29833221296E+04  0.00000000000E+00 0. -1.
         -1   -1    0    0    0  501 -0.00000000000E+00 -0.00000000000E+00 -0.25299367976E+03  0.25299367976E+03  0.00000000000E+00 0.  1.
         24    2    1    2    0    0 -0.43058895469E+03  0.19265595472E+03  0.17917254597E+04  0.18545340952E+04  0.80581775231E+02 0.  0.
        254    2    1    2    0    0  0.43058895469E+03 -0.19265595472E+03  0.93860299010E+03  0.13817817141E+04  0.89767587007E+03 0.  0.
         23    2    4    4    0    0  0.99232655364E+02 -0.11397852155E+03 -0.15105108355E+03  0.23651484828E+03  0.10141311725E+03 0.  0.
         23    2    4    4    0    0  0.33135629933E+03 -0.78677433170E+02  0.10896540736E+04  0.11452668658E+04  0.91121118292E+02 0.  0.
          2    1    3    3  502    0 -0.27971581178E+03  0.85687498092E+02  0.11570814539E+04  0.11934910027E+04  0.00000000000E+00 0. -1.
         -1    1    3    3    0  502 -0.15087314291E+03  0.10696845663E+03  0.63464400587E+03  0.66104309251E+03  0.00000000000E+00 0.  1.
         11    1    5    5    0    0  0.10557091944E+03 -0.12825976912E+03 -0.14139316955E+03  0.21814631741E+03  0.00000000000E+00 0. -1.
        -11    1    5    5    0    0 -0.63382640781E+01  0.14281247562E+02 -0.96579140030E+01  0.18368530870E+02  0.00000000000E+00 0.  1.
          2    1    6    6  503    0  0.30539433374E+03 -0.87432675417E+02  0.10504961381E+04  0.10974754248E+04  0.00000000000E+00 0. -1.
         -2    1    6    6    0  503  0.25961965586E+02  0.87552422468E+01  0.39157935542E+02  0.47791441073E+02  0.00000000000E+00 0.  1.
<mgrwt>
<rscale>  0 0.17375404E+04</rscale>
<asrwt>0</asrwt>
<pdfrwt beam="1">  1        2 0.45897261E+00 0.17375404E+04</pdfrwt>
<pdfrwt beam="2">  1       -1 0.38922107E-01 0.17375404E+04</pdfrwt>
<totfact> 0.12389516E+01</totfact>
</mgrwt>
</event>
<event>
12    6  0.1530720E-007  0.1216586E+04  0.7818608E-02  0.9098461E-01
          2   -1    0    0  501    0  0.00000000000E+00  0.00000000000E+00  0.52981345751E+03  0.52981345751E+03  0.00000000000E+00 0. -1.
         -1   -1    0    0    0  501 -0.00000000000E+00 -0.00000000000E+00 -0.69839774986E+03  0.69839774986E+03  0.00000000000E+00 0.  1.
         24    2    1    2    0    0  0.13269131867E+03  0.79315351517E+02  0.18616510090E+03  0.25464133789E+03  0.79289691214E+02 0.  0.
        254    2    1    2    0    0 -0.13269131867E+03 -0.79315351517E+02 -0.35474939325E+03  0.97356986948E+03  0.89336064818E+03 0.  0.
         23    2    4    4    0    0  0.19229316609E+03 -0.80839161519E+02  0.21442195660E+03  0.31218753957E+03  0.89289711793E+02 0.  0.
         23    2    4    4    0    0 -0.32498448476E+03  0.15238100021E+01 -0.56917134985E+03  0.66138232991E+03  0.88618979290E+02 0.  0.
          4    1    3    3  502    0  0.62626031744E+02  0.53961318061E+02  0.15122343716E+03  0.17234376010E+03  0.00000000000E+00 0. -1.
         -3    1    3    3    0  502  0.70065286930E+02  0.25354033456E+02  0.34941663732E+02  0.82297577786E+02  0.00000000000E+00 0.  1.
         11    1    5    5    0    0  0.13858686169E+03 -0.54956994438E+02  0.89806608306E+02  0.17404544340E+03  0.00000000000E+00 0. -1.
        -11    1    5    5    0    0  0.53706304391E+02 -0.25882167081E+02  0.12461534830E+03  0.13814209618E+03  0.00000000000E+00 0.  1.
          3    1    6    6  503    0 -0.25851476231E+03  0.88257640322E+00 -0.51258744052E+03  0.57408757647E+03  0.00000000000E+00 0. -1.
         -3    1    6    6    0  503 -0.66469722451E+02  0.64123359886E+00 -0.56583909330E+02  0.87294753441E+02  0.00000000000E+00 0.  1.
<mgrwt>
<rscale>  0 0.12165863E+04</rscale>
<asrwt>0</asrwt>
<pdfrwt beam="1">  1        2 0.81509763E-01 0.12165863E+04</pdfrwt>
<pdfrwt beam="2">  1       -1 0.10744581E+00 0.12165863E+04</pdfrwt>
<totfact> 0.52337515E+01</totfact>
</mgrwt>
</event>
<event>
12    6  0.1530720E-007  0.2667787E+04  0.7818608E-02  0.8345533E-01
         -1   -1    0    0    0  501 -0.00000000000E+00  0.00000000000E+00  0.77148777707E+03  0.77148777707E+03  0.00000000000E+00 0.  1.
          2   -1    0    0  501    0  0.00000000000E+00 -0.00000000000E+00 -0.23062863359E+04  0.23062863359E+04  0.00000000000E+00 0. -1.
         24    2    1    2    0    0 -0.93358089748E+03 -0.27628200593E+03 -0.14542471846E+04  0.17518509397E+04  0.79005075026E+02 0.  0.
        254    2    1    2    0    0  0.93358089748E+03  0.27628200593E+03 -0.80551374169E+02  0.13259231733E+04  0.89648128736E+03 0.  0.
         23    2    4    4    0    0  0.30237938270E+03  0.36661752443E+03  0.30719991285E+03  0.57319434748E+03  0.91314145795E+02 0.  0.
         23    2    4    4    0    0  0.63120151478E+03 -0.90335518507E+02 -0.38775128702E+03  0.75272882579E+03  0.98355307099E+02 0.  0.
          2    1    3    3  502    0 -0.52993731620E+03 -0.19645057518E+03 -0.82568146331E+03  0.10005879604E+04  0.00000000000E+00 0. -1.
         -1    1    3    3    0  502 -0.40364358127E+03 -0.79831430748E+02 -0.62856572133E+03  0.75126297930E+03  0.00000000000E+00 0.  1.
         11    1    5    5    0    0  0.30304934475E+03  0.36210749391E+03  0.31247892173E+03  0.56621887908E+03  0.00000000000E+00 0.  1.
        -11    1    5    5    0    0 -0.66996205429E+00  0.45100305241E+01 -0.52790088874E+01  0.69754683940E+01  0.00000000000E+00 0. -1.
          1    1    6    6  503    0  0.21481230204E+03 -0.18397855328E+02 -0.79925996660E+02  0.22993688510E+03  0.00000000000E+00 0. -1.
         -1    1    6    6    0  503  0.41638921274E+03 -0.71937663178E+02 -0.30782529036E+03  0.52279194069E+03  0.00000000000E+00 0.  1.
<mgrwt>
<rscale>  0 0.26677869E+04</rscale>
<asrwt>0</asrwt>
<pdfrwt beam="1">  1        2 0.35481329E+00 0.26677869E+04</pdfrwt>
<pdfrwt beam="2">  1       -1 0.11869043E+00 0.26677869E+04</pdfrwt>
<totfact> 0.28600310E+00</totfact>
</mgrwt>
</event>
<event>
12    6  0.1530720E-007  0.1647196E+04  0.7818608E-02  0.8792067E-01
         -1   -1    0    0    0  501 -0.00000000000E+00  0.00000000000E+00  0.66802599575E+03  0.66802599575E+03  0.00000000000E+00 0.  1.
          2   -1    0    0  501    0  0.00000000000E+00 -0.00000000000E+00 -0.10153999242E+04  0.10153999242E+04  0.00000000000E+00 0. -1.
         24    2    1    2    0    0 -0.45163482476E+03  0.35905697989E+03 -0.63201821814E+01  0.58253682576E+03  0.80082950291E+02 0.  0.
        254    2    1    2    0    0  0.45163482476E+03 -0.35905697989E+03 -0.34105374625E+03  0.11008890942E+04  0.87335171041E+03 0.  0.
         23    2    4    4    0    0  0.10099200105E+03 -0.41444136356E+03 -0.53140744801E+03  0.68773900461E+03  0.92897979340E+02 0.  0.
         23    2    4    4    0    0  0.35064282370E+03  0.55384383667E+02  0.19035370175E+03  0.41315008955E+03  0.91872982747E+02 0.  0.
          4    1    3    3  502    0 -0.35274706035E+02  0.15591842327E+02  0.17314196909E+02  0.42275191869E+02  0.00000000000E+00 0. -1.
         -3    1    3    3    0  502 -0.41636011872E+03  0.34346513756E+03 -0.23634379090E+02  0.54026163389E+03  0.00000000000E+00 0.  1.
         11    1    5    5    0    0  0.17432857239E+02 -0.25101116085E+03 -0.27982535065E+03  0.37631467451E+03  0.00000000000E+00 0.  1.
        -11    1    5    5    0    0  0.83559143815E+02 -0.16343020271E+03 -0.25158209735E+03  0.31142433010E+03  0.00000000000E+00 0. -1.
          1    1    6    6  503    0  0.19777405442E+03  0.90582193458E+01  0.15002646499E+03  0.24840404211E+03  0.00000000000E+00 0. -1.
         -1    1    6    6    0  503  0.15286876928E+03  0.46326164321E+02  0.40327236759E+02  0.16474604744E+03  0.00000000000E+00 0.  1.
<mgrwt>
<rscale>  0 0.16471959E+04</rscale>
<asrwt>0</asrwt>
<pdfrwt beam="1">  1        2 0.15621537E+00 0.16471959E+04</pdfrwt>
<pdfrwt beam="2">  1       -1 0.10277323E+00 0.16471959E+04</pdfrwt>
<totfact> 0.24022402E+01</totfact>
</mgrwt>
</event>
<event>
12    6  0.1530720E-007  0.1541799E+04  0.7818608E-02  0.8857123E-01
          2   -1    0    0  501    0  0.00000000000E+00  0.00000000000E+00  0.10766073724E+04  0.10766073724E+04  0.00000000000E+00 0. -1.
         -1   -1    0    0    0  501 -0.00000000000E+00 -0.00000000000E+00 -0.55199852310E+03  0.55199852310E+03  0.00000000000E+00 0.  1.
         24    2    1    2    0    0 -0.41309723074E+02  0.10043246298E+03  0.70075858088E+03  0.71321501462E+03  0.76288240068E+02 0.  0.
        254    2    1    2    0    0  0.41309723074E+02 -0.10043246298E+03 -0.17614973162E+03  0.91539088084E+03  0.89169420988E+03 0.  0.
         23    2    4    4    0    0 -0.10216338426E+03 -0.18530885053E+03  0.31419385003E+03  0.38963814055E+03  0.91232549050E+02 0.  0.
         23    2    4    4    0    0  0.14347310733E+03  0.84876387544E+02 -0.49034358165E+03  0.52575274029E+03  0.90501835189E+02 0.  0.
          4    1    3    3  502    0  0.31297847019E+01  0.12242423210E+02  0.30705683384E+03  0.30731672861E+03  0.00000000000E+00 0. -1.
         -3    1    3    3    0  502 -0.44439507776E+02  0.88190039772E+02  0.39370174703E+03  0.40589828601E+03  0.00000000000E+00 0.  1.
         11    1    5    5    0    0 -0.10021411751E+03 -0.89045710186E+02  0.17741033490E+03  0.22236554315E+03  0.00000000000E+00 0. -1.
        -11    1    5    5    0    0 -0.19492667482E+01 -0.96263140341E+02  0.13678351512E+03  0.16727259739E+03  0.00000000000E+00 0.  1.
          3    1    6    6  503    0  0.63304112749E+02  0.87651459950E+02 -0.31187526759E+03  0.33008540056E+03  0.00000000000E+00 0.  1.
         -3    1    6    6    0  503  0.80168994582E+02 -0.27750724060E+01 -0.17846831405E+03  0.19566733974E+03  0.00000000000E+00 0. -1.
<mgrwt>
<rscale>  0 0.15417985E+04</rscale>
<asrwt>0</asrwt>
<pdfrwt beam="1">  1        2 0.16563190E+00 0.15417985E+04</pdfrwt>
<pdfrwt beam="2">  1       -1 0.84922850E-01 0.15417985E+04</pdfrwt>
<totfact> 0.33956889E+01</totfact>
</mgrwt>
</event>
<event>
12    6  0.1530720E-007  0.2109090E+04  0.7818608E-02  0.8557250E-01
         -1   -1    0    0    0  501 -0.00000000000E+00  0.00000000000E+00  0.84396801328E+03  0.84396801328E+03  0.00000000000E+00 0.  1.
          2   -1    0    0  501    0  0.00000000000E+00 -0.00000000000E+00 -0.13176626133E+04  0.13176626133E+04  0.00000000000E+00 0. -1.
         24    2    1    2    0    0  0.49738851329E+03 -0.16840061598E+03  0.49686139217E+03  0.72764240192E+03  0.82692934536E+02 0.  0.
        254    2    1    2    0    0 -0.49738851329E+03  0.16840061598E+03 -0.97055599216E+03  0.14339882246E+04  0.91574515768E+03 0.  0.
         23    2    4    4    0    0 -0.28006047929E+03  0.35421045207E+03 -0.47397212899E+02  0.46338837097E+03  0.92646479400E+02 0.  0.
         23    2    4    4    0    0 -0.21732803400E+03 -0.18580983609E+03 -0.92315877927E+03  0.97059985365E+03  0.89917599078E+02 0.  0.
          4    1    3    3  502    0  0.29732420277E+03 -0.87065288465E+02  0.23896739844E+03  0.39126393077E+03  0.00000000000E+00 0. -1.
         -3    1    3    3    0  502  0.20006431053E+03 -0.81335327518E+02  0.25789399373E+03  0.33637847115E+03  0.00000000000E+00 0.  1.
         11    1    5    5    0    0 -0.23290030895E+03  0.31573390636E+03 -0.11047348103E+02  0.39249521963E+03  0.00000000000E+00 0. -1.
        -11    1    5    5    0    0 -0.47160170339E+02  0.38476545715E+02 -0.36349864796E+02  0.70893151342E+02  0.00000000000E+00 0.  1.
          2    1    6    6  503    0 -0.14679992677E+03 -0.11987540678E+03 -0.73593446627E+03  0.75994728126E+03  0.00000000000E+00 0. -1.
         -2    1    6    6    0  503 -0.70528107239E+02 -0.65934429314E+02 -0.18722431300E+03  0.21065257239E+03  0.00000000000E+00 0.  1.
<mgrwt>
<rscale>  0 0.21090899E+04</rscale>
<asrwt>0</asrwt>
<pdfrwt beam="1">  1        2 0.20271732E+00 0.21090899E+04</pdfrwt>
<pdfrwt beam="2">  1       -1 0.12984123E+00 0.21090899E+04</pdfrwt>
<totfact> 0.86204292E+00</totfact>
</mgrwt>
</event>
<event>
12    6  0.1530720E-007  0.2302309E+04  0.7818608E-02  0.8477011E-01
         -1   -1    0    0    0  501 -0.00000000000E+00  0.00000000000E+00  0.11270856690E+04  0.11270856690E+04  0.00000000000E+00 0.  1.
          2   -1    0    0  501    0  0.00000000000E+00 -0.00000000000E+00 -0.11757376821E+04  0.11757376821E+04  0.00000000000E+00 0. -1.
         24    2    1    2    0    0  0.73760766454E+03  0.58087318819E+03 -0.26417268131E+03  0.97860082883E+03  0.79960296942E+02 0.  0.
        254    2    1    2    0    0 -0.73760766454E+03 -0.58087318819E+03  0.21552066821E+03  0.13242225222E+04  0.90864591696E+03 0.  0.
         23    2    4    4    0    0 -0.36116887362E+03 -0.66782934051E+03 -0.15599559346E+03  0.78022803082E+03  0.89342999620E+02 0.  0.
         23    2    4    4    0    0 -0.37643879092E+03  0.86956152320E+02  0.37151626167E+03  0.54399449141E+03  0.92941585207E+02 0.  0.
          4    1    3    3  502    0  0.59338662611E+03  0.48962337983E+03 -0.18944240742E+03  0.79229234999E+03  0.00000000000E+00 0. -1.
         -3    1    3    3    0  502  0.14422103843E+03  0.91249808353E+02 -0.74730273888E+02  0.18630847884E+03  0.00000000000E+00 0.  1.
         11    1    5    5    0    0 -0.34478304136E+03 -0.60141623664E+03 -0.16084546975E+03  0.71165167072E+03  0.00000000000E+00 0.  1.
        -11    1    5    5    0    0 -0.16385832266E+02 -0.66413103866E+02  0.48498762887E+01  0.68576360098E+02  0.00000000000E+00 0. -1.
          1    1    6    6  503    0 -0.10196113408E+03  0.32898771573E+02  0.51286456361E+02  0.11878005994E+03  0.00000000000E+00 0. -1.
         -1    1    6    6    0  503 -0.27447765684E+03  0.54057380748E+02  0.32022980531E+03  0.42521443147E+03  0.00000000000E+00 0.  1.
<mgrwt>
<rscale>  0 0.23023094E+04</rscale>
<asrwt>0</asrwt>
<pdfrwt beam="1">  1        2 0.18088272E+00 0.23023094E+04</pdfrwt>
<pdfrwt beam="2">  1       -1 0.17339779E+00 0.23023094E+04</pdfrwt>
<totfact> 0.47029211E+00</totfact>
</mgrwt>
</event>
<event>
12    6  0.1530720E-007  0.2066593E+04  0.7818608E-02  0.8576104E-01
         -1   -1    0    0    0  501 -0.00000000000E+00  0.00000000000E+00  0.10363580028E+04  0.10363580028E+04  0.00000000000E+00 0.  1.
          2   -1    0    0  501    0  0.00000000000E+00 -0.00000000000E+00 -0.10302443579E+04  0.10302443579E+04  0.00000000000E+00 0. -1.
         24    2    1    2    0    0  0.78987722669E+02  0.62690525782E+03  0.54995375249E+03  0.84147111332E+03  0.79845112928E+02 0.  0.
        254    2    1    2    0    0 -0.78987722669E+02 -0.62690525782E+03 -0.54384010764E+03  0.12251312474E+04  0.89773896435E+03 0.  0.
         23    2    4    4    0    0 -0.12015300771E+03  0.20773480911E+03 -0.11648040222E+03  0.28208799073E+03  0.91735784921E+02 0.  0.
         23    2    4    4    0    0  0.41165285044E+02 -0.83464006693E+03 -0.42735970542E+03  0.94304325669E+03  0.91518545452E+02 0.  0.
          4    1    3    3  502    0  0.50277881924E+01  0.24849227840E+03  0.17778801396E+03  0.30558512559E+03  0.00000000000E+00 0. -1.
         -3    1    3    3    0  502  0.73959934476E+02  0.37841297942E+03  0.37216573853E+03  0.53588598773E+03  0.00000000000E+00 0.  1.
         11    1    5    5    0    0 -0.16906239271E+02  0.65521622676E+02  0.59164064323E+01  0.67925752329E+02  0.00000000000E+00 0.  1.
        -11    1    5    5    0    0 -0.10324676844E+03  0.14221318643E+03 -0.12239680865E+03  0.21416223840E+03  0.00000000000E+00 0. -1.
          2    1    6    6  503    0  0.56015932051E+02 -0.52801033122E+03 -0.23411185979E+03  0.58029394053E+03  0.00000000000E+00 0. -1.
         -2    1    6    6    0  503 -0.14850647007E+02 -0.30662973571E+03 -0.19324784563E+03  0.36274931616E+03  0.00000000000E+00 0.  1.
<mgrwt>
<rscale>  0 0.20665933E+04</rscale>
<asrwt>0</asrwt>
<pdfrwt beam="1">  1        2 0.15849913E+00 0.20665933E+04</pdfrwt>
<pdfrwt beam="2">  1       -1 0.15943969E+00 0.20665933E+04</pdfrwt>
<totfact> 0.74936046E+00</totfact>
</mgrwt>
</event>
<event>
12    6  0.1530720E-007  0.1482016E+04  0.7818608E-02  0.8896501E-01
          2   -1    0    0  501    0  0.00000000000E+00  0.00000000000E+00  0.22811686678E+04  0.22811686678E+04  0.00000000000E+00 0. -1.
         -1   -1    0    0    0  501 -0.00000000000E+00 -0.00000000000E+00 -0.24070678160E+03  0.24070678160E+03  0.00000000000E+00 0.  1.
         24    2    1    2    0    0 -0.24183070633E+03  0.77526036990E+02 -0.11357884508E+02  0.26563229053E+03  0.77065785506E+02 0.  0.
        254    2    1    2    0    0  0.24183070633E+03 -0.77526036990E+02  0.20518197707E+04  0.22562431589E+04  0.90342484114E+03 0.  0.
         23    2    4    4    0    0 -0.14425826232E+03  0.23288795999E+03  0.23966144037E+03  0.37520315975E+03  0.91063477474E+02 0.  0.
         23    2    4    4    0    0  0.38608896866E+03 -0.31041399698E+03  0.18121583304E+04  0.18810399991E+04  0.94721290472E+02 0.  0.
          4    1    3    3  502    0  0.57020675606E+01  0.31623502511E+01 -0.26081384818E+01  0.70225650525E+01  0.00000000000E+00 0. -1.
         -3    1    3    3    0  502 -0.24753277389E+03  0.74363686739E+02 -0.87497460260E+01  0.25860972548E+03  0.00000000000E+00 0.  1.
         11    1    5    5    0    0 -0.26709807046E+02  0.70800363869E+02  0.12023847074E+03  0.14206827641E+03  0.00000000000E+00 0. -1.
        -11    1    5    5    0    0 -0.11754845528E+03  0.16208759612E+03  0.11942296963E+03  0.23313488334E+03  0.00000000000E+00 0.  1.
          1    1    6    6  503    0  0.17661751571E+03 -0.18380441495E+03  0.79599041880E+03  0.83581011996E+03  0.00000000000E+00 0. -1.
         -1    1    6    6    0  503  0.20947145295E+03 -0.12660958203E+03  0.10161679116E+04  0.10452298792E+04  0.00000000000E+00 0.  1.
<mgrwt>
<rscale>  0 0.14820159E+04</rscale>
<asrwt>0</asrwt>
<pdfrwt beam="1">  1        2 0.35094901E+00 0.14820159E+04</pdfrwt>
<pdfrwt beam="2">  1       -1 0.37031814E-01 0.14820159E+04</pdfrwt>
<totfact> 0.35943970E+01</totfact>
</mgrwt>
</event>
<event>
12    6  0.1530720E-007  0.2809729E+04  0.7818608E-02  0.8300254E-01
         -1   -1    0    0    0  501 -0.00000000000E+00  0.00000000000E+00  0.12371321588E+04  0.12371321588E+04  0.00000000000E+00 0.  1.
          2   -1    0    0  501    0  0.00000000000E+00 -0.00000000000E+00 -0.15953379392E+04  0.15953379392E+04  0.00000000000E+00 0. -1.
         24    2    1    2    0    0  0.10312360909E+04 -0.66579555123E+03 -0.43142099435E+03  0.13035197006E+04  0.79422568103E+02 0.  0.
        254    2    1    2    0    0 -0.10312360909E+04  0.66579555123E+03  0.73215213927E+02  0.15289503974E+04  0.90862382696E+03 0.  0.
         23    2    4    4    0    0 -0.24965976079E+03  0.18841502712E+03 -0.38184619934E+03  0.50268181664E+03  0.95143419242E+02 0.  0.
         23    2    4    4    0    0 -0.78157633006E+03  0.47738052411E+03  0.45506141327E+03  0.10262685807E+04  0.85980145466E+02 0.  0.
          4    1    3    3  502    0  0.30155648251E+03 -0.19600430243E+03 -0.16508529623E+03  0.39573621738E+03  0.00000000000E+00 0. -1.
         -3    1    3    3    0  502  0.72967960835E+03 -0.46979124880E+03 -0.26633569811E+03  0.90778348320E+03  0.00000000000E+00 0.  1.
         11    1    5    5    0    0 -0.17345995022E+03  0.11944507828E+03 -0.31887331876E+03  0.38214614282E+03  0.00000000000E+00 0. -1.
        -11    1    5    5    0    0 -0.76199810572E+02  0.68969948841E+02 -0.62972880581E+02  0.12053567382E+03  0.00000000000E+00 0.  1.
          1    1    6    6  503    0 -0.38685677566E+03  0.25249419304E+03  0.18401044430E+03  0.49726383943E+03  0.00000000000E+00 0. -1.
         -1    1    6    6    0  503 -0.39471955440E+03  0.22488633107E+03  0.27105096897E+03  0.52900474129E+03  0.00000000000E+00 0.  1.
<mgrwt>
<rscale>  0 0.28097287E+04</rscale>
<asrwt>0</asrwt>
<pdfrwt beam="1">  1        2 0.24543661E+00 0.28097287E+04</pdfrwt>
<pdfrwt beam="2">  1       -1 0.19032802E+00 0.28097287E+04</pdfrwt>
<totfact> 0.19521434E+00</totfact>
</mgrwt>
</event>
<event>
12    6  0.1530720E-007  0.1308796E+04  0.7818608E-02  0.9022619E-01
         -3   -1    0    0    0  501 -0.00000000000E+00  0.00000000000E+00  0.71852942130E+03  0.71852942130E+03  0.00000000000E+00 0.  1.
          4   -1    0    0  501    0  0.00000000000E+00 -0.00000000000E+00 -0.59599037939E+03  0.59599037939E+03  0.00000000000E+00 0. -1.
         24    2    1    2    0    0 -0.17169374264E+03 -0.28205687527E+03  0.85321888689E+02  0.35044715642E+03  0.80613662614E+02 0.  0.
        254    2    1    2    0    0  0.17169374264E+03  0.28205687527E+03  0.37217153215E+02  0.96407264427E+03  0.90499509656E+03 0.  0.
         23    2    4    4    0    0  0.53150082780E+03  0.22456945061E+03  0.77619589167E+02  0.58908477379E+03  0.89841538204E+02 0.  0.
         23    2    4    4    0    0 -0.35980708516E+03  0.57487424661E+02 -0.40402435953E+02  0.37498787048E+03  0.78851782825E+02 0.  0.
          4    1    3    3  502    0 -0.14230966348E+03 -0.19231588557E+03  0.90713979695E+02  0.25586415590E+03  0.00000000000E+00 0. -1.
         -1    1    3    3    0  502 -0.29384079160E+02 -0.89740989707E+02 -0.53920910063E+01  0.94583000518E+02  0.00000000000E+00 0.  1.
         11    1    5    5    0    0  0.39003136417E+03  0.20618335684E+03  0.53650282707E+02  0.44442591566E+03  0.00000000000E+00 0. -1.
        -11    1    5    5    0    0  0.14146946363E+03  0.18386093778E+02  0.23969306461E+02  0.14465885813E+03  0.00000000000E+00 0.  1.
          2    1    6    6  503    0 -0.28734353973E+03  0.76568055600E+02 -0.24437763932E+02  0.29837255448E+03  0.00000000000E+00 0. -1.
         -2    1    6    6    0  503 -0.72463545427E+02 -0.19080630939E+02 -0.15964672021E+02  0.76615315999E+02  0.00000000000E+00 0.  1.
<mgrwt>
<rscale>  0 0.13087958E+04</rscale>
<asrwt>0</asrwt>
<pdfrwt beam="1">  1        4 0.91690828E-01 0.13087958E+04</pdfrwt>
<pdfrwt beam="2">  1       -3 0.11054299E+00 0.13087958E+04</pdfrwt>
<totfact> 0.15644250E+00</totfact>
</mgrwt>
</event>
<event>
12    6  0.1530720E-007  0.1382017E+04  0.7818608E-02  0.8966939E-01
          2   -1    0    0  501    0  0.00000000000E+00  0.00000000000E+00  0.12889493364E+04  0.12889493364E+04  0.00000000000E+00 0. -1.
         -1   -1    0    0    0  501 -0.00000000000E+00 -0.00000000000E+00 -0.37045109078E+03  0.37045109078E+03  0.00000000000E+00 0.  1.
         24    2    1    2    0    0 -0.25229984559E+02 -0.36185047373E+03  0.43145853610E+03  0.56922406875E+03  0.79292210246E+02 0.  0.
        254    2    1    2    0    0  0.25229984559E+02  0.36185047373E+03  0.48703970950E+03  0.10901763584E+04  0.90537533453E+03 0.  0.
         23    2    4    4    0    0 -0.20273561025E+03 -0.22482705117E+03  0.54524299207E+02  0.32034167428E+03  0.89425714833E+02 0.  0.
         23    2    4    4    0    0  0.22796559481E+03  0.58667752490E+03  0.43251541030E+03  0.76983468415E+03  0.97041383619E+02 0.  0.
          4    1    3    3  502    0 -0.25031331975E+02 -0.36020789636E+03  0.43498941182E+03  0.56532476027E+03  0.00000000000E+00 0. -1.
         -3    1    3    3    0  502 -0.19865258420E+00 -0.16425773743E+01 -0.35308757172E+01  0.38993084785E+01  0.00000000000E+00 0.  1.
         11    1    5    5    0    0 -0.49704772074E+02 -0.57911218713E+02  0.54694358145E+02  0.93892206453E+02  0.00000000000E+00 0. -1.
        -11    1    5    5    0    0 -0.15303083818E+03 -0.16691583246E+03 -0.17005893789E+00  0.22644946783E+03  0.00000000000E+00 0.  1.
          1    1    6    6  503    0  0.13341845798E+03  0.26407240273E+03  0.15554170121E+03  0.33425729555E+03  0.00000000000E+00 0. -1.
         -1    1    6    6    0  503  0.94547136835E+02  0.32260512216E+03  0.27697370909E+03  0.43557738860E+03  0.00000000000E+00 0.  1.
<mgrwt>
<rscale>  0 0.13820169E+04</rscale>
<asrwt>0</asrwt>
<pdfrwt beam="1">  1        2 0.19829990E+00 0.13820169E+04</pdfrwt>
<pdfrwt beam="2">  1       -1 0.56992476E-01 0.13820169E+04</pdfrwt>
<totfact> 0.58098162E+01</totfact>
</mgrwt>
</event>
<event>
12    6  0.1530720E-007  0.2004602E+04  0.7818608E-02  0.8604472E-01
          2   -1    0    0  501    0  0.00000000000E+00  0.00000000000E+00  0.25373008203E+04  0.25373008203E+04  0.00000000000E+00 0. -1.
         -1   -1    0    0    0  501 -0.00000000000E+00 -0.00000000000E+00 -0.39593540550E+03  0.39593540550E+03  0.00000000000E+00 0.  1.
         24    2    1    2    0    0  0.55939181231E+03 -0.13326431871E+03  0.15345568256E+04  0.16407736134E+04  0.81208504016E+02 0.  0.
        254    2    1    2    0    0 -0.55939181231E+03  0.13326431871E+03  0.60680858921E+03  0.12924626124E+04  0.98567964483E+03 0.  0.
         23    2    4    4    0    0  0.21477694533E+03  0.14402438110E+03  0.40028759862E+03  0.48486040195E+03  0.89371635150E+02 0.  0.
         23    2    4    4    0    0 -0.77416875764E+03 -0.10760062395E+02  0.20652099059E+03  0.80760221047E+03  0.10058512092E+03 0.  0.
          4    1    3    3  502    0  0.12331594529E+03  0.10630301292E+01  0.37023840156E+03  0.39023637246E+03  0.00000000000E+00 0. -1.
         -3    1    3    3    0  502  0.43607586702E+03 -0.13432734884E+03  0.11643184240E+04  0.12505372409E+04  0.00000000000E+00 0.  1.
         11    1    5    5    0    0  0.22255004646E+03  0.14350563868E+03  0.38033173527E+03  0.46343782794E+03  0.00000000000E+00 0. -1.
        -11    1    5    5    0    0 -0.77731011336E+01  0.51874242229E+00  0.19955863351E+02  0.21422574006E+02  0.00000000000E+00 0.  1.
          3    1    6    6  503    0 -0.50186555898E+03 -0.38909404447E+02  0.96345783883E+02  0.51250901565E+03  0.00000000000E+00 0. -1.
         -3    1    6    6    0  503 -0.27230319866E+03  0.28149342052E+02  0.11017520671E+03  0.29509319482E+03  0.00000000000E+00 0.  1.
<mgrwt>
<rscale>  0 0.20046019E+04</rscale>
<asrwt>0</asrwt>
<pdfrwt beam="1">  1        2 0.39035396E+00 0.20046019E+04</pdfrwt>
<pdfrwt beam="2">  1       -1 0.60913141E-01 0.20046019E+04</pdfrwt>
<totfact> 0.95748576E+00</totfact>
</mgrwt>
</event>
<event>
12    6  0.1530720E-007  0.1343561E+04  0.7818608E-02  0.8995717E-01
          2   -1    0    0  501    0  0.00000000000E+00  0.00000000000E+00  0.12253248187E+04  0.12253248187E+04  0.00000000000E+00 0. -1.
         -1   -1    0    0    0  501 -0.00000000000E+00 -0.00000000000E+00 -0.36830161375E+03  0.36830161375E+03  0.00000000000E+00 0.  1.
         24    2    1    2    0    0 -0.26588440189E+03  0.24194492715E+03  0.29776053169E+03  0.47373076867E+03  0.80793836499E+02 0.  0.
        254    2    1    2    0    0  0.26588440189E+03 -0.24194492715E+03  0.55926267325E+03  0.11198956638E+04  0.90119903300E+03 0.  0.
         23    2    4    4    0    0 -0.15879152395E+03 -0.40290048911E+03  0.73367721609E+02  0.44835885855E+03  0.89996062496E+02 0.  0.
         23    2    4    4    0    0  0.42467592584E+03  0.16095556196E+03  0.48589495164E+03  0.67153680521E+03  0.92797854575E+02 0.  0.
          2    1    3    3  502    0  0.40022004821E+01 -0.15045837309E+01  0.73822419534E+00  0.43389348768E+01  0.00000000000E+00 0. -1.
         -1    1    3    3    0  502 -0.26988660237E+03  0.24344951088E+03  0.29702230749E+03  0.46939183380E+03  0.00000000000E+00 0.  1.
         11    1    5    5    0    0 -0.13944926175E+02 -0.14198007257E+03  0.39392159632E+02  0.14800183855E+03  0.00000000000E+00 0. -1.
        -11    1    5    5    0    0 -0.14484659777E+03 -0.26092041653E+03  0.33975561977E+02  0.30035702000E+03  0.00000000000E+00 0.  1.
          1    1    6    6  503    0  0.13548154663E+03  0.30495831010E+02  0.20613112440E+03  0.24854634504E+03  0.00000000000E+00 0. -1.
         -1    1    6    6    0  503  0.28919437921E+03  0.13045973095E+03  0.27976382724E+03  0.42299046017E+03  0.00000000000E+00 0.  1.
<mgrwt>
<rscale>  0 0.13435611E+04</rscale>
<asrwt>0</asrwt>
<pdfrwt beam="1">  1        2 0.18851151E+00 0.13435611E+04</pdfrwt>
<pdfrwt beam="2">  1       -1 0.56661787E-01 0.13435611E+04</pdfrwt>
<totfact> 0.64248887E+01</totfact>
</mgrwt>
</event>
<event>
12    6  0.1530720E-007  0.1655297E+04  0.7818608E-02  0.8787279E-01
          2   -1    0    0  501    0  0.00000000000E+00  0.00000000000E+00  0.28508048682E+04  0.28508048682E+04  0.00000000000E+00 0. -1.
         -1   -1    0    0    0  501 -0.00000000000E+00 -0.00000000000E+00 -0.24028370591E+03  0.24028370591E+03  0.00000000000E+00 0.  1.
         24    2    1    2    0    0 -0.52978034644E+02  0.48989728653E+03  0.34755256132E+03  0.60803491970E+03  0.78151501568E+02 0.  0.
        254    2    1    2    0    0  0.52978034644E+02 -0.48989728653E+03  0.22629686010E+04  0.24830536544E+04  0.89538960135E+03 0.  0.
         23    2    4    4    0    0 -0.15122077092E+03  0.21719875129E+03  0.58715119174E+03  0.65048747360E+03  0.91347754384E+02 0.  0.
         23    2    4    4    0    0  0.20419880557E+03 -0.70709603782E+03  0.16758174093E+04  0.18325661808E+04  0.90845247868E+02 0.  0.
          2    1    3    3  502    0 -0.28033581739E+02  0.31291178310E+03  0.26566983346E+03  0.41143666112E+03  0.00000000000E+00 0. -1.
         -1    1    3    3    0  502 -0.24944452906E+02  0.17698550342E+03  0.81882727860E+02  0.19659825858E+03  0.00000000000E+00 0.  1.
         11    1    5    5    0    0 -0.16167148240E+03  0.21473746150E+03  0.57086401251E+03  0.63097984625E+03  0.00000000000E+00 0. -1.
        -11    1    5    5    0    0  0.10450711475E+02  0.24612897973E+01  0.16287179227E+02  0.19507627354E+02  0.00000000000E+00 0.  1.
          3    1    6    6  503    0  0.13891877023E+03 -0.50276731274E+03  0.10812725896E+04  0.12005098119E+04  0.00000000000E+00 0. -1.
         -3    1    6    6    0  503  0.65280035340E+02 -0.20432872508E+03  0.59454481968E+03  0.63205636894E+03  0.00000000000E+00 0.  1.
<mgrwt>
<rscale>  0 0.16552969E+04</rscale>
<asrwt>0</asrwt>
<pdfrwt beam="1">  1        2 0.43858534E+00 0.16552969E+04</pdfrwt>
<pdfrwt beam="2">  1       -1 0.36966726E-01 0.16552969E+04</pdfrwt>
<totfact> 0.16532480E+01</totfact>
</mgrwt>
</event>
<event>
12    6  0.1530720E-007  0.2487758E+04  0.7818608E-02  0.8407360E-01
          2   -1    0    0  501    0  0.00000000000E+00  0.00000000000E+00  0.23227610306E+04  0.23227610306E+04  0.00000000000E+00 0. -1.
         -1   -1    0    0    0  501 -0.00000000000E+00 -0.00000000000E+00 -0.66611907431E+03  0.66611907431E+03  0.00000000000E+00 0.  1.
         24    2    1    2    0    0 -0.92116344931E+03 -0.93638299935E+02  0.13745100129E+04  0.16592050016E+04  0.79832513537E+02 0.  0.
        254    2    1    2    0    0  0.92116344931E+03  0.93638299935E+02  0.28213194340E+03  0.13296751033E+04  0.91166178780E+03 0.  0.
         23    2    4    4    0    0  0.11269769947E+03 -0.33958252523E+03  0.11004739326E+02  0.36891580585E+03  0.89222780779E+02 0.  0.
         23    2    4    4    0    0  0.80846574984E+03  0.43322082516E+03  0.27112720407E+03  0.96075929747E+03  0.90836748421E+02 0.  0.
          4    1    3    3  502    0 -0.45726352410E+03 -0.97025749989E+01  0.64840229586E+03  0.79347943118E+03  0.00000000000E+00 0. -1.
         -3    1    3    3    0  502 -0.46389992521E+03 -0.83935724936E+02  0.72610771707E+03  0.86572557044E+03  0.00000000000E+00 0.  1.
         11    1    5    5    0    0  0.99728276028E+02 -0.17690525455E+03  0.27320504721E+02  0.20490877996E+03  0.00000000000E+00 0. -1.
        -11    1    5    5    0    0  0.12969423444E+02 -0.16267727068E+03 -0.16315765395E+02  0.16400702588E+03  0.00000000000E+00 0.  1.
          1    1    6    6  503    0  0.70527922352E+03  0.34131121765E+03  0.23055533703E+03  0.81674224444E+03  0.00000000000E+00 0. -1.
         -1    1    6    6    0  503  0.10318652632E+03  0.91909607510E+02  0.40571867044E+02  0.14401705302E+03  0.00000000000E+00 0.  1.
<mgrwt>
<rscale>  0 0.24877584E+04</rscale>
<asrwt>0</asrwt>
<pdfrwt beam="1">  1        2 0.35734785E+00 0.24877584E+04</pdfrwt>
<pdfrwt beam="2">  1       -1 0.10247986E+00 0.24877584E+04</pdfrwt>
<totfact> 0.40249603E+00</totfact>
</mgrwt>
</event>
<event>
12    6  0.1530720E-007  0.1744608E+04  0.7818608E-02  0.8736324E-01
         -1   -1    0    0    0  501 -0.00000000000E+00  0.00000000000E+00  0.11109048859E+04  0.11109048859E+04  0.00000000000E+00 0.  1.
          2   -1    0    0  501    0  0.00000000000E+00 -0.00000000000E+00 -0.68495016638E+03  0.68495016638E+03  0.00000000000E+00 0. -1.
         24    2    1    2    0    0  0.39800605902E+03 -0.38998476299E+03  0.48984247401E+03  0.74611466745E+03  0.79022207335E+02 0.  0.
        254    2    1    2    0    0 -0.39800605902E+03  0.38998476299E+03 -0.63887754476E+02  0.10497403848E+04  0.88734226317E+03 0.  0.
         23    2    4    4    0    0  0.79795559119E+02 -0.22821857011E+03 -0.44603645786E+02  0.26280809714E+03  0.92884679602E+02 0.  0.
         23    2    4    4    0    0 -0.47780161814E+03  0.61820333310E+03 -0.19284108689E+02  0.78693228770E+03  0.91764923705E+02 0.  0.
          2    1    3    3  502    0  0.75458727897E+01  0.33630871526E+01  0.45057062048E+01  0.94102040232E+01  0.00000000000E+00 0. -1.
         -1    1    3    3    0  502  0.39046018623E+03 -0.39334785014E+03  0.48533676780E+03  0.73670446342E+03  0.00000000000E+00 0.  1.
         11    1    5    5    0    0  0.16763881086E+01 -0.67123263199E+02 -0.49958204895E+02  0.83690889444E+02  0.00000000000E+00 0. -1.
        -11    1    5    5    0    0  0.78119171010E+02 -0.16109530691E+03  0.53545591094E+01  0.17911720769E+03  0.00000000000E+00 0.  1.
          1    1    6    6  503    0 -0.18331557485E+03  0.28265250518E+03 -0.44246164913E+02  0.33978634725E+03  0.00000000000E+00 0. -1.
         -1    1    6    6    0  503 -0.29448604329E+03  0.33555082792E+03  0.24962056224E+02  0.44714594045E+03  0.00000000000E+00 0.  1.
<mgrwt>
<rscale>  0 0.17446082E+04</rscale>
<asrwt>0</asrwt>
<pdfrwt beam="1">  1        2 0.10537695E+00 0.17446082E+04</pdfrwt>
<pdfrwt beam="2">  1       -1 0.17090844E+00 0.17446082E+04</pdfrwt>
<totfact> 0.11049529E+01</totfact>
</mgrwt>
</event>
<event>
12    6  0.1530720E-007  0.2420848E+04  0.7818608E-02  0.8431739E-01
          2   -1    0    0  501    0  0.00000000000E+00  0.00000000000E+00  0.29743618413E+04  0.29743618413E+04  0.00000000000E+00 0. -1.
         -1   -1    0    0    0  501 -0.00000000000E+00 -0.00000000000E+00 -0.49258500125E+03  0.49258500125E+03  0.00000000000E+00 0.  1.
         24    2    1    2    0    0 -0.87046061543E+03 -0.46758835335E+02  0.25445417699E+03  0.91127100169E+03  0.76025249994E+02 0.  0.
        254    2    1    2    0    0  0.87046061543E+03  0.46758835335E+02  0.22273226631E+04  0.25556758409E+04  0.90034698118E+03 0.  0.
         23    2    4    4    0    0  0.10264756692E+04  0.10074483902E+03  0.16380103351E+04  0.19377565370E+04  0.89558454850E+02 0.  0.
         23    2    4    4    0    0 -0.15601505380E+03 -0.53986003684E+02  0.58931232801E+03  0.61791930387E+03  0.85323270843E+02 0.  0.
          2    1    3    3  502    0 -0.41224582046E+02 -0.97293777313E+01  0.28335491449E+02  0.50961034443E+02  0.00000000000E+00 0. -1.
         -1    1    3    3    0  502 -0.82923603338E+03 -0.37029457604E+02  0.22611868554E+03  0.86030996724E+03  0.00000000000E+00 0.  1.
         11    1    5    5    0    0  0.72591119196E+03  0.70114656485E+02  0.10793499664E+04  0.13026355874E+04  0.00000000000E+00 0.  1.
        -11    1    5    5    0    0  0.30056447727E+03  0.30630182535E+02  0.55866036871E+03  0.63512094962E+03  0.00000000000E+00 0. -1.
          1    1    6    6  503    0 -0.15156690281E+03 -0.62983483495E+02  0.46341887093E+03  0.49162637761E+03  0.00000000000E+00 0.  1.
         -1    1    6    6    0  503 -0.44481509883E+01  0.89974798101E+01  0.12589345707E+03  0.12629292626E+03  0.00000000000E+00 0. -1.
<mgrwt>
<rscale>  0 0.24208478E+04</rscale>
<asrwt>0</asrwt>
<pdfrwt beam="1">  1        2 0.45759412E+00 0.24208478E+04</pdfrwt>
<pdfrwt beam="2">  1       -1 0.75782309E-01 0.24208478E+04</pdfrwt>
<totfact> 0.32282841E+00</totfact>
</mgrwt>
</event>
<event>
12    6  0.1530720E-007  0.1534345E+04  0.7818608E-02  0.8861930E-01
         -1   -1    0    0    0  501 -0.00000000000E+00  0.00000000000E+00  0.23073095283E+03  0.23073095283E+03  0.00000000000E+00 0.  1.
          2   -1    0    0  501    0  0.00000000000E+00 -0.00000000000E+00 -0.25508222086E+04  0.25508222086E+04  0.00000000000E+00 0. -1.
         24    2    1    2    0    0 -0.31461500917E+03 -0.37048350615E+03 -0.10338651113E+04  0.11453427577E+04  0.81806673280E+02 0.  0.
        254    2    1    2    0    0  0.31461500917E+03  0.37048350615E+03 -0.12862261444E+04  0.16362104037E+04  0.88688565126E+03 0.  0.
         23    2    4    4    0    0  0.30896767616E+03  0.45435208281E+03 -0.27987318827E+03  0.62250575861E+03  0.85367311810E+02 0.  0.
         23    2    4    4    0    0  0.56473330149E+01 -0.83868576665E+02 -0.10063529561E+04  0.10137046451E+04  0.88232673683E+02 0.  0.
          2    1    3    3  502    0 -0.28979164522E+03 -0.36696419438E+03 -0.97332074141E+03  0.10798125686E+04  0.00000000000E+00 0. -1.
         -1    1    3    3    0  502 -0.24823363952E+02 -0.35193117641E+01 -0.60544369933E+02  0.65530189102E+02  0.00000000000E+00 0.  1.
         11    1    5    5    0    0  0.16155135162E+03  0.30949850631E+03 -0.18469576409E+03  0.39496922651E+03  0.00000000000E+00 0.  1.
        -11    1    5    5    0    0  0.14741632454E+03  0.14485357650E+03 -0.95177424185E+02  0.22753653210E+03  0.00000000000E+00 0. -1.
          1    1    6    6  503    0 -0.34940742235E+02 -0.25972966983E+02 -0.57000504371E+03  0.57166528698E+03  0.00000000000E+00 0. -1.
         -1    1    6    6    0  503  0.40588075250E+02 -0.57895609682E+02 -0.43634791242E+03  0.44203935814E+03  0.00000000000E+00 0.  1.
<mgrwt>
<rscale>  0 0.15343450E+04</rscale>
<asrwt>0</asrwt>
<pdfrwt beam="1">  1        2 0.39243419E+00 0.15343450E+04</pdfrwt>
<pdfrwt beam="2">  1       -1 0.35497070E-01 0.15343450E+04</pdfrwt>
<totfact> 0.27079219E+01</totfact>
</mgrwt>
</event>
<event>
12    6  0.1530720E-007  0.2350968E+04  0.7818608E-02  0.8458092E-01
         -1   -1    0    0    0  501 -0.00000000000E+00  0.00000000000E+00  0.81898696411E+03  0.81898696411E+03  0.00000000000E+00 0.  1.
          2   -1    0    0  501    0  0.00000000000E+00 -0.00000000000E+00 -0.16871605333E+04  0.16871605333E+04  0.00000000000E+00 0. -1.
         24    2    1    2    0    0 -0.20238155697E+03 -0.49318906232E+03 -0.12716066608E+04  0.13812175690E+04  0.81146332867E+02 0.  0.
        254    2    1    2    0    0  0.20238155697E+03  0.49318906232E+03  0.40343309160E+03  0.11249299284E+04  0.90471837534E+03 0.  0.
         23    2    4    4    0    0  0.22970901889E+03 -0.21923334201E+03  0.12378721279E+03  0.35387792165E+03  0.95272334744E+02 0.  0.
         23    2    4    4    0    0 -0.27327461922E+02  0.71242240434E+03  0.27964587881E+03  0.77105200678E+03  0.89593008935E+02 0.  0.
          4    1    3    3  502    0 -0.18302367807E+03 -0.46910256771E+03 -0.12323663442E+04  0.13312707058E+04  0.00000000000E+00 0. -1.
         -3    1    3    3    0  502 -0.19357878894E+02 -0.24086494617E+02 -0.39240316575E+02  0.49946863196E+02  0.00000000000E+00 0.  1.
         11    1    5    5    0    0  0.17303334765E+03 -0.14430931441E+03  0.41735490527E+02  0.22914530061E+03  0.00000000000E+00 0. -1.
        -11    1    5    5    0    0  0.56675671245E+02 -0.74924027603E+02  0.82051722265E+02  0.12473262103E+03  0.00000000000E+00 0.  1.
          3    1    6    6  503    0 -0.60359652930E+02  0.43597046483E+03  0.16971885051E+03  0.47171815963E+03  0.00000000000E+00 0. -1.
         -3    1    6    6    0  503  0.33032191008E+02  0.27645193951E+03  0.10992702829E+03  0.29933384715E+03  0.00000000000E+00 0.  1.
<mgrwt>
<rscale>  0 0.23509679E+04</rscale>
<asrwt>0</asrwt>
<pdfrwt beam="1">  1        2 0.25956315E+00 0.23509679E+04</pdfrwt>
<pdfrwt beam="2">  1       -1 0.12599800E+00 0.23509679E+04</pdfrwt>
<totfact> 0.56230629E+00</totfact>
</mgrwt>
</event>
<event>
12    6  0.1530720E-007  0.1449535E+04  0.7818608E-02  0.8918723E-01
         -1   -1    0    0    0  501 -0.00000000000E+00  0.00000000000E+00  0.15340294654E+03  0.15340294654E+03  0.00000000000E+00 0.  1.
          2   -1    0    0  501    0  0.00000000000E+00 -0.00000000000E+00 -0.34242372195E+04  0.34242372195E+04  0.00000000000E+00 0. -1.
         24    2    1    2    0    0 -0.30237915544E+03  0.81254928410E+02 -0.16573981206E+04  0.16886350804E+04  0.80525696063E+02 0.  0.
        254    2    1    2    0    0  0.30237915544E+03 -0.81254928410E+02 -0.16134361524E+04  0.18890050857E+04  0.93119733603E+03 0.  0.
         23    2    4    4    0    0  0.25589380122E+03 -0.49083473050E+03 -0.93580842184E+03  0.10910701739E+04  0.91084312047E+02 0.  0.
         23    2    4    4    0    0  0.46485354215E+02  0.40957980209E+03 -0.67762773060E+03  0.79793491173E+03  0.87202520782E+02 0.  0.
          4    1    3    3  502    0 -0.27987665049E+03  0.72919041227E+02 -0.16069603675E+04  0.16327797612E+04  0.00000000000E+00 0. -1.
         -3    1    3    3    0  502 -0.22502504954E+02  0.83358871831E+01 -0.50437753102E+02  0.55855319194E+02  0.00000000000E+00 0.  1.
         11    1    5    5    0    0  0.13179042939E+03 -0.15794355168E+03 -0.34241059777E+03  0.39944949651E+03  0.00000000000E+00 0. -1.
        -11    1    5    5    0    0  0.12410337183E+03 -0.33289117882E+03 -0.59339782407E+03  0.69162067743E+03  0.00000000000E+00 0.  1.
          1    1    6    6  503    0  0.51149068148E+02  0.40194078453E+03 -0.67696830411E+03  0.78896052259E+03  0.00000000000E+00 0. -1.
         -1    1    6    6    0  503 -0.46637139332E+01  0.76390175669E+01 -0.65942649211E+00  0.89743891345E+01  0.00000000000E+00 0.  1.
<mgrwt>
<rscale>  0 0.14495352E+04</rscale>
<asrwt>0</asrwt>
<pdfrwt beam="1">  1        2 0.52680574E+00 0.14495352E+04</pdfrwt>
<pdfrwt beam="2">  1       -1 0.23600453E-01 0.14495352E+04</pdfrwt>
<totfact> 0.15893413E+01</totfact>
</mgrwt>
</event>
<event>
12    6  0.1530720E-007  0.2407551E+04  0.7818608E-02  0.8436682E-01
         -1   -1    0    0    0  501 -0.00000000000E+00  0.00000000000E+00  0.82939304311E+03  0.82939304311E+03  0.00000000000E+00 0.  1.
          2   -1    0    0  501    0  0.00000000000E+00 -0.00000000000E+00 -0.17471512850E+04  0.17471512850E+04  0.00000000000E+00 0. -1.
         24    2    1    2    0    0 -0.14736311079E+03  0.80852831915E+03 -0.10668864175E+04  0.13490610668E+04  0.79279284015E+02 0.  0.
        254    2    1    2    0    0  0.14736311079E+03 -0.80852831915E+03  0.14912817559E+03  0.12274832613E+04  0.89946762850E+03 0.  0.
         23    2    4    4    0    0 -0.34232353530E+03 -0.18066725802E+03 -0.52034342165E+02  0.40116929711E+03  0.91668812802E+02 0.  0.
         23    2    4    4    0    0  0.48968664609E+03 -0.62786106113E+03  0.20116251776E+03  0.82631396419E+03  0.91246289871E+02 0.  0.
          4    1    3    3  502    0 -0.14249170174E+03  0.76665879003E+03 -0.10366117257E+04  0.12971636193E+04  0.00000000000E+00 0. -1.
         -3    1    3    3    0  502 -0.48714090434E+01  0.41869529121E+02 -0.30274691806E+02  0.51897447518E+02  0.00000000000E+00 0.  1.
         11    1    5    5    0    0 -0.25601107553E+03 -0.15851170334E+03 -0.66894584234E+01  0.30118495936E+03  0.00000000000E+00 0. -1.
        -11    1    5    5    0    0 -0.86312459769E+02 -0.22155554682E+02 -0.45344883741E+02  0.99984337754E+02  0.00000000000E+00 0.  1.
          4    1    6    6  503    0  0.28966972006E+03 -0.43018870923E+03  0.10526727594E+03  0.52919946301E+03  0.00000000000E+00 0. -1.
         -4    1    6    6    0  503  0.20001692603E+03 -0.19767235190E+03  0.95895241820E+02  0.29711450118E+03  0.00000000000E+00 0.  1.
<mgrwt>
<rscale>  0 0.24075507E+04</rscale>
<asrwt>0</asrwt>
<pdfrwt beam="1">  1        2 0.26879250E+00 0.24075507E+04</pdfrwt>
<pdfrwt beam="2">  1       -1 0.12759893E+00 0.24075507E+04</pdfrwt>
<totfact> 0.50207946E+00</totfact>
</mgrwt>
</event>
<event>
12    6  0.1530720E-007  0.2508602E+04  0.7818608E-02  0.8399927E-01
          2   -1    0    0  501    0  0.00000000000E+00  0.00000000000E+00  0.13577242159E+04  0.13577242159E+04  0.00000000000E+00 0. -1.
         -1   -1    0    0    0  501 -0.00000000000E+00 -0.00000000000E+00 -0.11587560712E+04  0.11587560712E+04  0.00000000000E+00 0.  1.
         24    2    1    2    0    0 -0.22714318178E+03 -0.35719188848E+03  0.10957024233E+04  0.11774050839E+04  0.80863222954E+02 0.  0.
        254    2    1    2    0    0  0.22714318178E+03  0.35719188848E+03 -0.89673427867E+03  0.13390752032E+04  0.89989441774E+03 0.  0.
         23    2    4    4    0    0  0.10976109292E+02  0.88041595402E+02  0.17088347772E+03  0.21303599247E+03  0.91166735347E+02 0.  0.
         23    2    4    4    0    0  0.21616707248E+03  0.26915029308E+03 -0.10676177564E+04  0.11260392107E+04  0.94797398985E+02 0.  0.
          4    1    3    3  502    0 -0.15309523272E+03 -0.28811440147E+03  0.76846769583E+03  0.83485966374E+03  0.00000000000E+00 0. -1.
         -3    1    3    3    0  502 -0.74047949051E+02 -0.69077487012E+02  0.32723472752E+03  0.34254542015E+03  0.00000000000E+00 0.  1.
         11    1    5    5    0    0  0.36262057713E+02  0.91159164217E+02  0.11209216294E+03  0.14896168313E+03  0.00000000000E+00 0.  1.
        -11    1    5    5    0    0 -0.25285948421E+02 -0.31175688149E+01  0.58791314786E+02  0.64074309338E+02  0.00000000000E+00 0. -1.
          1    1    6    6  503    0  0.59834851933E+02  0.18951205817E+02 -0.20203204582E+03  0.21155686055E+03  0.00000000000E+00 0. -1.
         -1    1    6    6    0  503  0.15633222055E+03  0.25019908726E+03 -0.86558571057E+03  0.91448235018E+03  0.00000000000E+00 0.  1.
<mgrwt>
<rscale>  0 0.25086021E+04</rscale>
<asrwt>0</asrwt>
<pdfrwt beam="1">  1        2 0.20888065E+00 0.25086021E+04</pdfrwt>
<pdfrwt beam="2">  1       -1 0.17827016E+00 0.25086021E+04</pdfrwt>
<totfact> 0.33283058E+00</totfact>
</mgrwt>
</event>
<event>
12    6  0.1530720E-007  0.1747240E+04  0.7818608E-02  0.8734871E-01
         -1   -1    0    0    0  501 -0.00000000000E+00  0.00000000000E+00  0.27256621371E+03  0.27256621371E+03  0.00000000000E+00 0.  1.
          2   -1    0    0  501    0  0.00000000000E+00 -0.00000000000E+00 -0.28000978854E+04  0.28000978854E+04  0.00000000000E+00 0. -1.
         24    2    1    2    0    0 -0.35736702553E+03 -0.41571179591E+03 -0.15104350812E+04  0.16089991497E+04  0.83286499305E+02 0.  0.
        254    2    1    2    0    0  0.35736702553E+03  0.41571179591E+03 -0.10170965905E+04  0.14636649494E+04  0.89849992855E+03 0.  0.
         23    2    4    4    0    0 -0.84333873272E+02 -0.18901532867E+03 -0.35212813498E+02  0.22535565734E+03  0.81891595484E+02 0.  0.
         23    2    4    4    0    0  0.44170089880E+03  0.60472712458E+03 -0.98188377699E+03  0.12383092921E+04  0.92301528352E+02 0.  0.
          4    1    3    3  502    0 -0.35096393947E+03 -0.39424046956E+03 -0.13973602756E+04  0.14937258700E+04  0.00000000000E+00 0. -1.
         -3    1    3    3    0  502 -0.64030860608E+01 -0.21471326353E+02 -0.11307480554E+03  0.11527327970E+03  0.00000000000E+00 0.  1.
         11    1    5    5    0    0 -0.26923046493E+02 -0.61681576769E+02  0.26915367384E+02  0.72483821275E+02  0.00000000000E+00 0. -1.
        -11    1    5    5    0    0 -0.57410826779E+02 -0.12733375190E+03 -0.62128180882E+02  0.15287183607E+03  0.00000000000E+00 0.  1.
          3    1    6    6  503    0  0.74192140563E+02  0.53180523741E+02 -0.10500225505E+03  0.13913344455E+03  0.00000000000E+00 0. -1.
         -3    1    6    6    0  503  0.36750875824E+03  0.55154660084E+03 -0.87688152194E+03  0.10991758475E+04  0.00000000000E+00 0.  1.
<mgrwt>
<rscale>  0 0.17472402E+04</rscale>
<asrwt>0</asrwt>
<pdfrwt beam="1">  1        2 0.43078426E+00 0.17472402E+04</pdfrwt>
<pdfrwt beam="2">  1       -1 0.41933267E-01 0.17472402E+04</pdfrwt>
<totfact> 0.13977821E+01</totfact>
</mgrwt>
</event>
<event>
12    6  0.1530720E-007  0.2279370E+04  0.7818608E-02  0.8486100E-01
         -1   -1    0    0    0  501 -0.00000000000E+00  0.00000000000E+00  0.13553726958E+04  0.13553726958E+04  0.00000000000E+00 0.  1.
          2   -1    0    0  501    0  0.00000000000E+00 -0.00000000000E+00 -0.95832067419E+03  0.95832067419E+03  0.00000000000E+00 0. -1.
         24    2    1    2    0    0 -0.82986563080E+02  0.93416593537E+03  0.37762433820E+03  0.10140269400E+04  0.78087962030E+02 0.  0.
        254    2    1    2    0    0  0.82986563080E+02 -0.93416593537E+03  0.19427683429E+02  0.12996664300E+04  0.89955690756E+03 0.  0.
         23    2    4    4    0    0  0.14489804454E+03 -0.47500738974E+03 -0.41767153272E+03  0.65568677097E+03  0.94064705165E+02 0.  0.
         23    2    4    4    0    0 -0.61911481462E+02 -0.45915854563E+03  0.43709921615E+03  0.64397965904E+03  0.94839205630E+02 0.  0.
          2    1    3    3  502    0 -0.95792432913E+02  0.75266544437E+03  0.31618686892E+03  0.82198272332E+03  0.00000000000E+00 0. -1.
         -1    1    3    3    0  502  0.12805869833E+02  0.18150049100E+03  0.61437469279E+02  0.19204421670E+03  0.00000000000E+00 0.  1.
         11    1    5    5    0    0  0.18510133012E+02 -0.20463268112E+03 -0.14554924531E+03  0.25179702543E+03  0.00000000000E+00 0.  1.
        -11    1    5    5    0    0  0.12638791153E+03 -0.27037470861E+03 -0.27212228741E+03  0.40388974553E+03  0.00000000000E+00 0. -1.
          4    1    6    6  503    0 -0.47431527030E+02 -0.12399167528E+03  0.84938280143E+02  0.15760138555E+03  0.00000000000E+00 0. -1.
         -4    1    6    6    0  503 -0.14479954432E+02 -0.33516687036E+03  0.35216093601E+03  0.48637827348E+03  0.00000000000E+00 0.  1.
<mgrwt>
<rscale>  0 0.22793698E+04</rscale>
<asrwt>0</asrwt>
<pdfrwt beam="1">  1        2 0.14743395E+00 0.22793698E+04</pdfrwt>
<pdfrwt beam="2">  1       -1 0.20851888E+00 0.22793698E+04</pdfrwt>
<totfact> 0.36532107E+00</totfact>
</mgrwt>
</event>
<event>
12    6  0.1530720E-007  0.1411009E+04  0.7818608E-02  0.8945888E-01
         -1   -1    0    0    0  501 -0.00000000000E+00  0.00000000000E+00  0.11645678517E+04  0.11645678517E+04  0.00000000000E+00 0.  1.
          2   -1    0    0  501    0  0.00000000000E+00 -0.00000000000E+00 -0.42740050224E+03  0.42740050224E+03  0.00000000000E+00 0. -1.
         24    2    1    2    0    0 -0.19020953315E+03 -0.28054287850E+03  0.46530947054E+03  0.58107259400E+03  0.79047346292E+02 0.  0.
        254    2    1    2    0    0  0.19020953315E+03  0.28054287850E+03  0.27185787896E+03  0.10108957600E+04  0.91275383209E+03 0.  0.
         23    2    4    4    0    0 -0.15953215846E+03  0.12651969629E+03  0.50649665913E+03  0.55323575437E+03  0.89850938101E+02 0.  0.
         23    2    4    4    0    0  0.34974169160E+03  0.15402318221E+03 -0.23463878017E+03  0.45766000560E+03  0.91405317474E+02 0.  0.
          2    1    3    3  502    0 -0.29766856545E+02 -0.24843301435E+02  0.21507292523E+02  0.44337557515E+02  0.00000000000E+00 0. -1.
         -1    1    3    3    0  502 -0.16044267660E+03 -0.25569957706E+03  0.44380217801E+03  0.53673503649E+03  0.00000000000E+00 0.  1.
         11    1    5    5    0    0 -0.10102487078E+03  0.12724603198E+03  0.34170886785E+03  0.37836824330E+03  0.00000000000E+00 0.  1.
        -11    1    5    5    0    0 -0.58507287673E+02 -0.72633568965E+00  0.16478779127E+03  0.17486751107E+03  0.00000000000E+00 0. -1.
          3    1    6    6  503    0  0.20301044411E+03  0.10549316787E+03 -0.89569808602E+02  0.24569248971E+03  0.00000000000E+00 0. -1.
         -3    1    6    6    0  503  0.14673124749E+03  0.48530014342E+02 -0.14506897157E+03  0.21196751589E+03  0.00000000000E+00 0.  1.
<mgrwt>
<rscale>  0 0.14110094E+04</rscale>
<asrwt>0</asrwt>
<pdfrwt beam="1">  1        2 0.65753924E-01 0.14110094E+04</pdfrwt>
<pdfrwt beam="2">  1       -1 0.17916428E+00 0.14110094E+04</pdfrwt>
<totfact> 0.17314905E+01</totfact>
</mgrwt>
</event>
<event>
12    6  0.1530720E-007  0.1771626E+04  0.7818608E-02  0.8721536E-01
         -1   -1    0    0    0  501 -0.00000000000E+00  0.00000000000E+00  0.37523752988E+03  0.37523752988E+03  0.00000000000E+00 0.  1.
          2   -1    0    0  501    0  0.00000000000E+00 -0.00000000000E+00 -0.20911139379E+04  0.20911139379E+04  0.00000000000E+00 0. -1.
         24    2    1    2    0    0 -0.18164865841E+03  0.50043871321E+03 -0.10868454219E+03  0.54895656166E+03  0.78139849582E+02 0.  0.
        254    2    1    2    0    0  0.18164865841E+03 -0.50043871321E+03 -0.16071918658E+04  0.19173949061E+04  0.89994577152E+03 0.  0.
         23    2    4    4    0    0  0.18207239623E+03  0.27994081491E+02  0.17674833843E+02  0.20632206206E+03  0.91227010650E+02 0.  0.
         23    2    4    4    0    0 -0.42373782893E+00 -0.52843279470E+03 -0.16248666997E+04  0.17110728441E+04  0.91307655349E+02 0.  0.
          4    1    3    3  502    0 -0.11378752437E+03  0.29096613786E+03 -0.10204063600E+03  0.32866576561E+03  0.00000000000E+00 0. -1.
         -3    1    3    3    0  502 -0.67861134033E+02  0.20947257535E+03 -0.66439061926E+01  0.22029079605E+03  0.00000000000E+00 0.  1.
         11    1    5    5    0    0  0.70281633046E+02  0.55398545605E+02 -0.22036109104E+01  0.89517387695E+02  0.00000000000E+00 0.  1.
        -11    1    5    5    0    0  0.11179076319E+03 -0.27404464114E+02  0.19878444753E+02  0.11680467437E+03  0.00000000000E+00 0. -1.
          4    1    6    6  503    0  0.14118509980E+02 -0.13996384655E+02 -0.91880160799E+02  0.94006356465E+02  0.00000000000E+00 0. -1.
         -4    1    6    6    0  503 -0.14542247809E+02 -0.51443641005E+03 -0.15329865389E+04  0.16170664876E+04  0.00000000000E+00 0.  1.
<mgrwt>
<rscale>  0 0.17716257E+04</rscale>
<asrwt>0</asrwt>
<pdfrwt beam="1">  1        2 0.32170984E+00 0.17716257E+04</pdfrwt>
<pdfrwt beam="2">  1       -1 0.57728850E-01 0.17716257E+04</pdfrwt>
<totfact> 0.19468834E+01</totfact>
</mgrwt>
</event>
<event>
12    6  0.1530720E-007  0.3120075E+04  0.7818608E-02  0.8210250E-01
          2   -1    0    0  501    0  0.00000000000E+00  0.00000000000E+00  0.21446123517E+04  0.21446123517E+04  0.00000000000E+00 0. -1.
         -1   -1    0    0    0  501 -0.00000000000E+00 -0.00000000000E+00 -0.11348047743E+04  0.11348047743E+04  0.00000000000E+00 0.  1.
         24    2    1    2    0    0 -0.50091613919E+01 -0.49495562037E+03 -0.95129001145E+03  0.10753345790E+04  0.79910030674E+02 0.  0.
        254    2    1    2    0    0  0.50091613919E+01  0.49495562037E+03  0.19610975889E+04  0.22040825470E+04  0.87582530398E+03 0.  0.
         23    2    4    4    0    0  0.37875750930E+03  0.26218382182E+02  0.92274656832E+03  0.10019899586E+04  0.91531378839E+02 0.  0.
         23    2    4    4    0    0 -0.37374834791E+03  0.46873723819E+03  0.10383510206E+04  0.12020925884E+04  0.86321047558E+02 0.  0.
          4    1    3    3  502    0  0.15785774597E+02 -0.36780633379E+03 -0.76316994311E+03  0.84732464376E+03  0.00000000000E+00 0. -1.
         -3    1    3    3    0  502 -0.20794935989E+02 -0.12714928658E+03 -0.18812006833E+03  0.22800993520E+03  0.00000000000E+00 0.  1.
         11    1    5    5    0    0  0.30279590351E+03 -0.12065461966E+02  0.67085745666E+03  0.73612543884E+03  0.00000000000E+00 0. -1.
        -11    1    5    5    0    0  0.75961605793E+02  0.38283844148E+02  0.25188911166E+03  0.26586451973E+03  0.00000000000E+00 0.  1.
          3    1    6    6  503    0 -0.33049120846E+03  0.44869895185E+03  0.97147801954E+03  0.11199663971E+04  0.00000000000E+00 0. -1.
         -3    1    6    6    0  503 -0.43257139450E+02  0.20038286337E+02  0.66873001024E+02  0.82126191307E+02  0.00000000000E+00 0.  1.
<mgrwt>
<rscale>  0 0.31200746E+04</rscale>
<asrwt>0</asrwt>
<pdfrwt beam="1">  1        2 0.32994036E+00 0.31200746E+04</pdfrwt>
<pdfrwt beam="2">  1       -1 0.17458535E+00 0.31200746E+04</pdfrwt>
<totfact> 0.12178459E+00</totfact>
</mgrwt>
</event>
<event>
12    6  0.1530720E-007  0.2181943E+04  0.7818608E-02  0.8525982E-01
          2   -1    0    0  501    0  0.00000000000E+00  0.00000000000E+00  0.34484292823E+04  0.34484292823E+04  0.00000000000E+00 0. -1.
         -1   -1    0    0    0  501 -0.00000000000E+00 -0.00000000000E+00 -0.34514808303E+03  0.34514808303E+03  0.00000000000E+00 0.  1.
         24    2    1    2    0    0 -0.44922059140E+03  0.78321334189E+03  0.12290032410E+04  0.15269960547E+04  0.77754139009E+02 0.  0.
        254    2    1    2    0    0  0.44922059140E+03 -0.78321334189E+03  0.18742779582E+04  0.22665813105E+04  0.89958362258E+03 0.  0.
         23    2    4    4    0    0  0.65406360644E+03 -0.77560795724E+03  0.13171075136E+04  0.16653282558E+04  0.95807580151E+02 0.  0.
         23    2    4    4    0    0 -0.20484301504E+03 -0.76053846475E+01  0.55717044458E+03  0.60125305477E+03  0.95120076046E+02 0.  0.
          2    1    3    3  502    0 -0.19814423996E+03  0.35671511139E+03  0.62033474143E+03  0.74251060729E+03  0.00000000000E+00 0. -1.
         -1    1    3    3    0  502 -0.25107635145E+03  0.42649823050E+03  0.60866849957E+03  0.78448544744E+03  0.00000000000E+00 0.  1.
         11    1    5    5    0    0  0.26385164931E+03 -0.24207923569E+03  0.46705509131E+03  0.58852400759E+03  0.00000000000E+00 0.  1.
        -11    1    5    5    0    0  0.39021195713E+03 -0.53352872155E+03  0.85005242233E+03  0.10768042482E+04  0.00000000000E+00 0. -1.
          3    1    6    6  503    0 -0.21391542799E+03 -0.42101100857E+01  0.50937221066E+03  0.55248310775E+03  0.00000000000E+00 0. -1.
         -3    1    6    6    0  503  0.90724129483E+01 -0.33952745618E+01  0.47798233916E+02  0.48769947012E+02  0.00000000000E+00 0.  1.
<mgrwt>
<rscale>  0 0.21819429E+04</rscale>
<asrwt>0</asrwt>
<pdfrwt beam="1">  1        2 0.53052756E+00 0.21819429E+04</pdfrwt>
<pdfrwt beam="2">  1       -1 0.53099708E-01 0.21819429E+04</pdfrwt>
<totfact> 0.33007826E+00</totfact>
</mgrwt>
</event>
<event>
12    6  0.1530720E-007  0.1031719E+04  0.7818608E-02  0.9274424E-01
         -1   -1    0    0    0  501 -0.00000000000E+00  0.00000000000E+00  0.88700395625E+03  0.88700395625E+03  0.00000000000E+00 0.  1.
          2   -1    0    0  501    0  0.00000000000E+00 -0.00000000000E+00 -0.30001092106E+03  0.30001092106E+03  0.00000000000E+00 0. -1.
         24    2    1    2    0    0 -0.67173979655E+01  0.46294388494E+02 -0.30850317037E+02  0.97367983804E+02  0.79627183596E+02 0.  0.
        254    2    1    2    0    0  0.67173979655E+01 -0.46294388494E+02  0.61784335223E+03  0.10896468935E+04  0.89633233279E+03 0.  0.
         23    2    4    4    0    0 -0.42073857690E+03  0.78890194701E+02  0.35998240422E+03  0.56674959038E+03  0.91504939467E+02 0.  0.
         23    2    4    4    0    0  0.42745597486E+03 -0.12518458320E+03  0.25786094801E+03  0.52289730313E+03  0.92409581731E+02 0.  0.
          4    1    3    3  502    0 -0.28492197875E+02  0.37006975893E+02 -0.48883870730E+02  0.67608833905E+02  0.00000000000E+00 0. -1.
         -3    1    3    3    0  502  0.21774799910E+02  0.92874126015E+01  0.18033553693E+02  0.29759149899E+02  0.00000000000E+00 0.  1.
         11    1    5    5    0    0 -0.29906985205E+03  0.46943510187E+02  0.30412195203E+03  0.42911144387E+03  0.00000000000E+00 0.  1.
        -11    1    5    5    0    0 -0.12166872485E+03  0.31946684514E+02  0.55860452184E+02  0.13763814651E+03  0.00000000000E+00 0. -1.
          2    1    6    6  503    0  0.26000517702E+03 -0.63741469336E+02  0.20400475505E+03  0.33657630201E+03  0.00000000000E+00 0. -1.
         -2    1    6    6    0  503  0.16745079784E+03 -0.61443113860E+02  0.53856192961E+02  0.18632100112E+03  0.00000000000E+00 0.  1.
<mgrwt>
<rscale>  0 0.10317187E+04</rscale>
<asrwt>0</asrwt>
<pdfrwt beam="1">  1        2 0.46155527E-01 0.10317187E+04</pdfrwt>
<pdfrwt beam="2">  1       -1 0.13646215E+00 0.10317187E+04</pdfrwt>
<totfact> 0.56202326E+01</totfact>
</mgrwt>
</event>
<event>
12    6  0.1530720E-007  0.1500737E+04  0.7818608E-02  0.8883963E-01
          2   -1    0    0  501    0  0.00000000000E+00  0.00000000000E+00  0.17081799721E+04  0.17081799721E+04  0.00000000000E+00 0. -1.
         -1   -1    0    0    0  501 -0.00000000000E+00 -0.00000000000E+00 -0.32962170134E+03  0.32962170134E+03  0.00000000000E+00 0.  1.
         24    2    1    2    0    0  0.37532104976E+03 -0.12006604268E+03  0.74025454470E+02  0.40974769952E+03  0.84449182067E+02 0.  0.
        254    2    1    2    0    0 -0.37532104976E+03  0.12006604268E+03  0.13045328163E+04  0.16280539740E+04  0.89077052500E+03 0.  0.
         23    2    4    4    0    0 -0.15377230429E+03 -0.82513576608E+01 -0.94276580646E+02  0.20295621702E+03  0.92677645097E+02 0.  0.
         23    2    4    4    0    0 -0.22154874548E+03  0.12831740034E+03  0.13988093970E+04  0.14250977569E+04  0.93202392021E+02 0.  0.
          2    1    3    3  502    0  0.93988739642E+02 -0.39496951912E+02  0.56551611568E+02  0.11658463518E+03  0.00000000000E+00 0. -1.
         -1    1    3    3    0  502  0.28133231012E+03 -0.80569090767E+02  0.17473842902E+02  0.29316306434E+03  0.00000000000E+00 0.  1.
         11    1    5    5    0    0 -0.11065847276E+03 -0.48291454716E+02 -0.67316252310E+02  0.13823472797E+03  0.00000000000E+00 0. -1.
        -11    1    5    5    0    0 -0.43113831531E+02  0.40040097055E+02 -0.26960328337E+02  0.64721489055E+02  0.00000000000E+00 0.  1.
          3    1    6    6  503    0 -0.17798677533E+03  0.11573704374E+03  0.92156142340E+03  0.94570069926E+03  0.00000000000E+00 0. -1.
         -3    1    6    6    0  503 -0.43561970148E+02  0.12580356596E+02  0.47724797358E+03  0.47939705767E+03  0.00000000000E+00 0.  1.
<mgrwt>
<rscale>  0 0.15007374E+04</rscale>
<asrwt>0</asrwt>
<pdfrwt beam="1">  1        2 0.26279691E+00 0.15007374E+04</pdfrwt>
<pdfrwt beam="2">  1       -1 0.50711032E-01 0.15007374E+04</pdfrwt>
<totfact> 0.41732241E+01</totfact>
</mgrwt>
</event>
<event>
12    6  0.1530720E-007  0.1643968E+04  0.7818608E-02  0.8793983E-01
          2   -1    0    0  501    0  0.00000000000E+00  0.00000000000E+00  0.11697146876E+04  0.11697146876E+04  0.00000000000E+00 0. -1.
         -1   -1    0    0    0  501 -0.00000000000E+00 -0.00000000000E+00 -0.57762626617E+03  0.57762626617E+03  0.00000000000E+00 0.  1.
         24    2    1    2    0    0 -0.40751358787E+02 -0.84611978806E+02  0.81554855602E+03  0.82479741867E+03  0.79696138087E+02 0.  0.
        254    2    1    2    0    0  0.40751358787E+02  0.84611978806E+02 -0.22346013462E+03  0.92254353506E+03  0.89013048600E+03 0.  0.
         23    2    4    4    0    0 -0.20398809121E+03  0.17608791075E+03 -0.47274505178E+03  0.55161654875E+03  0.90414817380E+02 0.  0.
         23    2    4    4    0    0  0.24473944999E+03 -0.91475931945E+02  0.24928491716E+03  0.37092698631E+03  0.84726706192E+02 0.  0.
          2    1    3    3  502    0 -0.53172742906E+02 -0.75865808214E+02  0.78721862274E+03  0.79265132399E+03  0.00000000000E+00 0. -1.
         -1    1    3    3    0  502  0.12421384119E+02 -0.87461705918E+01  0.28329933279E+02  0.32146094678E+02  0.00000000000E+00 0.  1.
         11    1    5    5    0    0 -0.13500844803E+03  0.57745449714E+02 -0.25959241198E+03  0.29824493015E+03  0.00000000000E+00 0. -1.
        -11    1    5    5    0    0 -0.68979643178E+02  0.11834246104E+03 -0.21315263980E+03  0.25337161860E+03  0.00000000000E+00 0.  1.
          3    1    6    6  503    0  0.32259796949E+02  0.15523421400E+02  0.22710051994E+02  0.42395961750E+02  0.00000000000E+00 0. -1.
         -3    1    6    6    0  503  0.21247965305E+03 -0.10699935334E+03  0.22657486516E+03  0.32853102456E+03  0.00000000000E+00 0.  1.
<mgrwt>
<rscale>  0 0.16439683E+04</rscale>
<asrwt>0</asrwt>
<pdfrwt beam="1">  1        2 0.17995610E+00 0.16439683E+04</pdfrwt>
<pdfrwt beam="2">  1       -1 0.88865580E-01 0.16439683E+04</pdfrwt>
<totfact> 0.26744351E+01</totfact>
</mgrwt>
</event>
<event>
12    6  0.1530720E-007  0.2391568E+04  0.7818608E-02  0.8442667E-01
          2   -1    0    0  501    0  0.00000000000E+00  0.00000000000E+00  0.18215263765E+04  0.18215263765E+04  0.00000000000E+00 0. -1.
         -1   -1    0    0    0  501 -0.00000000000E+00 -0.00000000000E+00 -0.78500045824E+03  0.78500045824E+03  0.00000000000E+00 0.  1.
         24    2    1    2    0    0 -0.63591941266E+03  0.34280161146E+03 -0.34325880026E+03  0.80395596861E+03  0.81315135744E+02 0.  0.
        254    2    1    2    0    0  0.63591941266E+03 -0.34280161146E+03  0.13797847185E+04  0.18025708661E+04  0.90749623346E+03 0.  0.
         23    2    4    4    0    0  0.59704642186E+03 -0.12120723671E+03  0.28074010852E+03  0.67705331957E+03  0.91818107793E+02 0.  0.
         23    2    4    4    0    0  0.38872990795E+02 -0.22159437475E+03  0.10990446100E+04  0.11255175465E+04  0.90969866083E+02 0.  0.
          2    1    3    3  502    0 -0.32582852953E+03  0.13159022969E+03 -0.17945042794E+03  0.39456643964E+03  0.00000000000E+00 0. -1.
         -1    1    3    3    0  502 -0.31009088313E+03  0.21121138178E+03 -0.16380837231E+03  0.40938952897E+03  0.00000000000E+00 0.  1.
         11    1    5    5    0    0  0.62457493823E+01  0.25511449718E+01  0.17070143896E+02  0.18355041233E+02  0.00000000000E+00 0. -1.
        -11    1    5    5    0    0  0.59080067248E+03 -0.12375838168E+03  0.26366996463E+03  0.65869827834E+03  0.00000000000E+00 0.  1.
          4    1    6    6  503    0  0.17208626379E+02 -0.21423903441E+03  0.90714237610E+03  0.93225629052E+03  0.00000000000E+00 0.  1.
         -4    1    6    6    0  503  0.21664364416E+02 -0.73553403394E+01  0.19190223387E+03  0.19326125602E+03  0.00000000000E+00 0. -1.
<mgrwt>
<rscale>  0 0.23915677E+04</rscale>
<asrwt>0</asrwt>
<pdfrwt beam="1">  1        2 0.28023483E+00 0.23915677E+04</pdfrwt>
<pdfrwt beam="2">  1       -1 0.12076930E+00 0.23915677E+04</pdfrwt>
<totfact> 0.52403689E+00</totfact>
</mgrwt>
</event>
<event>
12    6  0.1530720E-007  0.2287266E+04  0.7818608E-02  0.8482959E-01
          2   -1    0    0  501    0  0.00000000000E+00  0.00000000000E+00  0.26451094727E+04  0.26451094727E+04  0.00000000000E+00 0. -1.
         -1   -1    0    0    0  501 -0.00000000000E+00 -0.00000000000E+00 -0.49445812875E+03  0.49445812875E+03  0.00000000000E+00 0.  1.
         24    2    1    2    0    0 -0.66373918162E+03 -0.14048868027E+03 -0.30348652688E+02  0.68373462543E+03  0.79279422264E+02 0.  0.
        254    2    1    2    0    0  0.66373918162E+03  0.14048868027E+03  0.21809999966E+04  0.24558329760E+04  0.90225708658E+03 0.  0.
         23    2    4    4    0    0  0.86431642942E+03  0.43794981299E+01  0.16310964428E+04  0.18481845039E+04  0.90820066939E+02 0.  0.
         23    2    4    4    0    0 -0.20057724780E+03  0.13610918214E+03  0.54990355382E+03  0.60764847211E+03  0.89921106273E+02 0.  0.
          4    1    3    3  502    0 -0.23670776449E+03 -0.32464709377E+02  0.23022570971E+02  0.24003033537E+03  0.00000000000E+00 0. -1.
         -3    1    3    3    0  502 -0.42703141713E+03 -0.10802397089E+03 -0.53371223659E+02  0.44370429006E+03  0.00000000000E+00 0.  1.
         11    1    5    5    0    0  0.54600795668E+03 -0.11060700441E+02  0.93948403326E+03  0.10866817734E+04  0.00000000000E+00 0.  1.
        -11    1    5    5    0    0  0.31830847274E+03  0.15440198571E+02  0.69161240954E+03  0.76150273052E+03  0.00000000000E+00 0. -1.
          1    1    6    6  503    0 -0.18619546242E+03  0.89885958478E+02  0.40247747341E+03  0.45247801313E+03  0.00000000000E+00 0. -1.
         -1    1    6    6    0  503 -0.14381785378E+02  0.46223223659E+02  0.14742608041E+03  0.15517045898E+03  0.00000000000E+00 0.  1.
<mgrwt>
<rscale>  0 0.22872655E+04</rscale>
<asrwt>0</asrwt>
<pdfrwt beam="1">  1        2 0.40693991E+00 0.22872655E+04</pdfrwt>
<pdfrwt beam="2">  1       -1 0.76070483E-01 0.22872655E+04</pdfrwt>
<totfact> 0.51303917E+00</totfact>
</mgrwt>
</event>
<event>
12    6  0.1530720E-007  0.1719531E+04  0.7818608E-02  0.8750303E-01
          2   -1    0    0  501    0  0.00000000000E+00  0.00000000000E+00  0.63008098114E+03  0.63008098114E+03  0.00000000000E+00 0. -1.
         -1   -1    0    0    0  501 -0.00000000000E+00 -0.00000000000E+00 -0.11731777901E+04  0.11731777901E+04  0.00000000000E+00 0.  1.
         24    2    1    2    0    0  0.14134322174E+03 -0.53888338522E+03 -0.49282505903E+03  0.74803328159E+03  0.79397999751E+02 0.  0.
        254    2    1    2    0    0 -0.14134322174E+03  0.53888338522E+03 -0.50271749968E+02  0.10552254897E+04  0.89476274848E+03 0.  0.
         23    2    4    4    0    0  0.54735708640E+02 -0.26889891571E+02  0.32465809038E+03  0.34267249154E+03  0.91118037409E+02 0.  0.
         23    2    4    4    0    0 -0.19607893038E+03  0.56577327679E+03 -0.37492984035E+03  0.71255299815E+03  0.92806477839E+02 0.  0.
          4    1    3    3  502    0  0.15883253962E+02 -0.24057679397E+02 -0.48889229664E+02  0.56755673475E+02  0.00000000000E+00 0. -1.
         -3    1    3    3    0  502  0.12545996777E+03 -0.51482570582E+03 -0.44393582937E+03  0.69127760812E+03  0.00000000000E+00 0.  1.
         11    1    5    5    0    0  0.11333751838E+02  0.28688542536E+02  0.16892019126E+03  0.17171347477E+03  0.00000000000E+00 0. -1.
        -11    1    5    5    0    0  0.43401956802E+02 -0.55578434107E+02  0.15573789912E+03  0.17095901677E+03  0.00000000000E+00 0.  1.
          2    1    6    6  503    0 -0.43871387736E+02  0.20486015395E+03 -0.17394012885E+03  0.27230047698E+03  0.00000000000E+00 0. -1.
         -2    1    6    6    0  503 -0.15220754264E+03  0.36091312284E+03 -0.20098971150E+03  0.44025252118E+03  0.00000000000E+00 0.  1.
<mgrwt>
<rscale>  0 0.17195313E+04</rscale>
<asrwt>0</asrwt>
<pdfrwt beam="1">  1        2 0.96935536E-01 0.17195313E+04</pdfrwt>
<pdfrwt beam="2">  1       -1 0.18048889E+00 0.17195313E+04</pdfrwt>
<totfact> 0.10466116E+01</totfact>
</mgrwt>
</event>
<event>
12    6  0.1530720E-007  0.2372130E+04  0.7818608E-02  0.8450012E-01
          2   -1    0    0  501    0  0.00000000000E+00  0.00000000000E+00  0.99672848734E+03  0.99672848734E+03  0.00000000000E+00 0. -1.
         -1   -1    0    0    0  501 -0.00000000000E+00 -0.00000000000E+00 -0.14113676342E+04  0.14113676342E+04  0.00000000000E+00 0.  1.
         24    2    1    2    0    0  0.80240638719E+03 -0.42622545393E+02  0.43907077327E+03  0.91917136926E+03  0.80125966742E+02 0.  0.
        254    2    1    2    0    0 -0.80240638719E+03  0.42622545393E+02 -0.85370992010E+03  0.14889247523E+04  0.91782547286E+03 0.  0.
         23    2    4    4    0    0 -0.61766870690E+03  0.39175770650E+03 -0.78700382976E+03  0.10782635978E+04  0.91041893163E+02 0.  0.
         23    2    4    4    0    0 -0.18473768029E+03 -0.34913516111E+03 -0.66706090344E+02  0.41066115441E+03  0.90385341813E+02 0.  0.
          4    1    3    3  502    0  0.80303271563E+03 -0.40602410843E+02  0.44030594510E+03  0.91672210807E+03  0.00000000000E+00 0. -1.
         -3    1    3    3    0  502 -0.62632843738E+00 -0.20201345491E+01 -0.12351718327E+01  0.24492611875E+01  0.00000000000E+00 0.  1.
         11    1    5    5    0    0 -0.60829295741E+03  0.39693602955E+03 -0.77467926457E+03  0.10619352601E+04  0.00000000000E+00 0. -1.
        -11    1    5    5    0    0 -0.93757494854E+01 -0.51783230521E+01 -0.12324565191E+02  0.16328337797E+02  0.00000000000E+00 0.  1.
          3    1    6    6  503    0 -0.10278256047E+03 -0.27902996026E+03 -0.48974193394E+02  0.30136430624E+03  0.00000000000E+00 0. -1.
         -3    1    6    6    0  503 -0.81955119818E+02 -0.70105200849E+02 -0.17731896950E+02  0.10929684817E+03  0.00000000000E+00 0.  1.
<mgrwt>
<rscale>  0 0.23721301E+04</rscale>
<asrwt>0</asrwt>
<pdfrwt beam="1">  1        2 0.15334285E+00 0.23721301E+04</pdfrwt>
<pdfrwt beam="2">  1       -1 0.21713348E+00 0.23721301E+04</pdfrwt>
<totfact> 0.29923002E+00</totfact>
</mgrwt>
</event>
<event>
12    6  0.1847028E-007  0.2324644E+04  0.7818608E-02  0.8468267E-01
         -1   -1    0    0    0  501 -0.00000000000E+00  0.00000000000E+00  0.56846271133E+03  0.56846271133E+03  0.00000000000E+00 0.  1.
          2   -1    0    0  501    0  0.00000000000E+00 -0.00000000000E+00 -0.23765712564E+04  0.23765712564E+04  0.00000000000E+00 0. -1.
         24    2    1    2    0    0  0.42006400707E+02 -0.39567770262E+03 -0.19678044631E+04  0.20103472291E+04  0.10448059418E+03 0.  0.
        254    2    1    2    0    0 -0.42006400707E+02  0.39567770262E+03  0.15969591795E+03  0.93468673870E+03  0.83054869287E+03 0.  0.
         23    2    4    4    0    0  0.15173354537E+03 -0.21232642467E+03  0.43583422702E+02  0.27975416810E+03  0.90869689267E+02 0.  0.
         23    2    4    4    0    0 -0.19373994608E+03  0.60800412729E+03  0.11611249525E+03  0.65493257060E+03  0.90831574705E+02 0.  0.
          4    1    3    3  502    0 -0.54839177639E+01 -0.32723161809E+03 -0.16168400767E+04  0.16496310009E+04  0.00000000000E+00 0. -1.
         -3    1    3    3    0  502  0.47490318471E+02 -0.68446084525E+02 -0.35096438632E+03  0.36071622822E+03  0.00000000000E+00 0.  1.
         11    1    5    5    0    0  0.84528308848E+01  0.16596246505E+01  0.19240319734E+02  0.21080669046E+02  0.00000000000E+00 0.  1.
        -11    1    5    5    0    0  0.14328071449E+03 -0.21398604932E+03  0.24343102968E+02  0.25867349905E+03  0.00000000000E+00 0. -1.
          2    1    6    6  503    0 -0.59140814310E+02  0.18636290383E+03  0.78644227634E+02  0.21074553941E+03  0.00000000000E+00 0.  1.
         -2    1    6    6    0  503 -0.13459913177E+03  0.42164122346E+03  0.37468267618E+02  0.44418703119E+03  0.00000000000E+00 0. -1.
<mgrwt>
<rscale>  0 0.23246437E+04</rscale>
<asrwt>0</asrwt>
<pdfrwt beam="1">  1        2 0.36562634E+00 0.23246437E+04</pdfrwt>
<pdfrwt beam="2">  1       -1 0.87455804E-01 0.23246437E+04</pdfrwt>
<totfact> 0.54302137E+00</totfact>
</mgrwt>
</event>
<event>
12    6  0.1530720E-007  0.3665658E+04  0.7818608E-02  0.8075615E-01
         -1   -1    0    0    0  501 -0.00000000000E+00  0.00000000000E+00  0.84956277175E+03  0.84956277175E+03  0.00000000000E+00 0.  1.
          2   -1    0    0  501    0  0.00000000000E+00 -0.00000000000E+00 -0.39541069948E+04  0.39541069948E+04  0.00000000000E+00 0. -1.
         24    2    1    2    0    0 -0.61065736775E+03  0.88160989060E+00 -0.35751920153E+04  0.36278379002E+04  0.79414644750E+02 0.  0.
        254    2    1    2    0    0  0.61065736775E+03 -0.88160989060E+00  0.47064779222E+03  0.11758318664E+04  0.88778828312E+03 0.  0.
         23    2    4    4    0    0 -0.10506711132E+03  0.84704310121E+02 -0.14978452949E+03  0.22044142589E+03  0.89135284476E+02 0.  0.
         23    2    4    4    0    0  0.71572447907E+03 -0.85585920011E+02  0.62043232171E+03  0.95539044049E+03  0.90819316840E+02 0.  0.
          2    1    3    3  502    0 -0.36231134759E+03 -0.36008111228E+02 -0.20345286820E+04  0.20668509996E+04  0.00000000000E+00 0. -1.
         -3    1    3    3    0  502 -0.24834602015E+03  0.36889721118E+02 -0.15406633332E+04  0.15609869005E+04  0.00000000000E+00 0.  1.
         11    1    5    5    0    0 -0.64408303434E+02  0.84662252811E+02 -0.60603518044E+02  0.12242921629E+03  0.00000000000E+00 0. -1.
        -11    1    5    5    0    0 -0.40658807887E+02  0.42057309464E-01 -0.89181011445E+02  0.98012209596E+02  0.00000000000E+00 0.  1.
          4    1    6    6  503    0  0.25402872635E+03 -0.73027500409E+02  0.21187302148E+03  0.33875328317E+03  0.00000000000E+00 0. -1.
         -4    1    6    6    0  503  0.46169575272E+03 -0.12558419602E+02  0.40855930023E+03  0.61663715732E+03  0.00000000000E+00 0.  1.
<mgrwt>
<rscale>  0 0.36656580E+04</rscale>
<asrwt>0</asrwt>
<pdfrwt beam="1">  1        2 0.60832415E+00 0.36656580E+04</pdfrwt>
<pdfrwt beam="2">  1       -1 0.13070197E+00 0.36656580E+04</pdfrwt>
<totfact> 0.17090390E-01</totfact>
</mgrwt>
</event>
<event>
12    6  0.1530720E-007  0.2280823E+04  0.7818608E-02  0.8485521E-01
          2   -1    0    0  501    0  0.00000000000E+00  0.00000000000E+00  0.12240663013E+04  0.12240663013E+04  0.00000000000E+00 0. -1.
         -1   -1    0    0    0  501 -0.00000000000E+00 -0.00000000000E+00 -0.10624738240E+04  0.10624738240E+04  0.00000000000E+00 0.  1.
         24    2    1    2    0    0 -0.29762011546E+03  0.82634208777E+03 -0.31419565956E+03  0.93621948730E+03  0.79806245160E+02 0.  0.
        254    2    1    2    0    0  0.29762011546E+03 -0.82634208777E+03  0.47578813684E+03  0.13503206379E+04  0.90861019965E+03 0.  0.
         23    2    4    4    0    0 -0.10636500087E+03 -0.74881702260E+03  0.69967150027E+02  0.76504946196E+03  0.91459446907E+02 0.  0.
         23    2    4    4    0    0  0.40398511633E+03 -0.77525065176E+02  0.40582098682E+03  0.58527117597E+03  0.92938507266E+02 0.  0.
          2    1    3    3  502    0 -0.83351880139E+02  0.14076175137E+03 -0.62178376742E+02  0.17500730586E+03  0.00000000000E+00 0. -1.
         -1    1    3    3    0  502 -0.21426823532E+03  0.68558033641E+03 -0.25201728282E+03  0.76121218144E+03  0.00000000000E+00 0.  1.
         11    1    5    5    0    0 -0.54550277209E+02 -0.24314821027E+03 -0.15165103580E+02  0.24965329012E+03  0.00000000000E+00 0. -1.
        -11    1    5    5    0    0 -0.51814723662E+02 -0.50566881232E+03  0.85132253607E+02  0.51539617184E+03  0.00000000000E+00 0.  1.
          3    1    6    6  503    0  0.12408200545E+03 -0.59220187764E+02  0.98157082572E+02  0.16893249413E+03  0.00000000000E+00 0.  1.
         -3    1    6    6    0  503  0.27990311088E+03 -0.18304877413E+02  0.30766390425E+03  0.41633868184E+03  0.00000000000E+00 0. -1.
<mgrwt>
<rscale>  0 0.22808230E+04</rscale>
<asrwt>0</asrwt>
<pdfrwt beam="1">  1        2 0.18831789E+00 0.22808230E+04</pdfrwt>
<pdfrwt beam="2">  1       -1 0.16345751E+00 0.22808230E+04</pdfrwt>
<totfact> 0.52199877E+00</totfact>
</mgrwt>
</event>
<event>
12    6  0.1710653E-007  0.2256985E+04  0.7818608E-02  0.8495077E-01
          2   -1    0    0  501    0  0.00000000000E+00  0.00000000000E+00  0.25336815809E+04  0.25336815809E+04  0.00000000000E+00 0. -1.
         -1   -1    0    0    0  501 -0.00000000000E+00 -0.00000000000E+00 -0.50262624969E+03  0.50262624969E+03  0.00000000000E+00 0.  1.
         24    2    1    2    0    0  0.29860883670E+03  0.33055446112E+03  0.19825004326E+04  0.20337286420E+04  0.85502835667E+02 0.  0.
        254    2    1    2    0    0 -0.29860883670E+03 -0.33055446112E+03  0.48554898589E+02  0.10025791886E+04  0.89686897709E+03 0.  0.
         23    2    4    4    0    0  0.45043491150E+01  0.28779091429E+03 -0.39680418022E+02  0.30212063419E+03  0.82815714214E+02 0.  0.
         23    2    4    4    0    0 -0.30311318582E+03 -0.61834537541E+03  0.88235316610E+02  0.70045855438E+03  0.92887612755E+02 0.  0.
          2    1    3    3  502    0  0.29127737148E+03  0.28583779949E+03  0.18007805578E+04  0.18464442510E+04  0.00000000000E+00 0. -1.
         -1    1    3    3    0  502  0.73314652291E+01  0.44716661632E+02  0.18171987483E+03  0.18728439102E+03  0.00000000000E+00 0.  1.
         11    1    5    5    0    0  0.91690094188E+01 -0.53173747231E+00 -0.77134278849E+01  0.11993767056E+02  0.00000000000E+00 0. -1.
        -11    1    5    5    0    0 -0.46646603038E+01  0.28832265176E+03 -0.31966990137E+02  0.29012686714E+03  0.00000000000E+00 0.  1.
          3    1    6    6  503    0 -0.24337478258E+03 -0.54834144817E+03  0.54316986780E+02  0.60237858829E+03  0.00000000000E+00 0.  1.
         -3    1    6    6    0  503 -0.59738403237E+02 -0.70003927240E+02  0.33918329830E+02  0.98079966093E+02  0.00000000000E+00 0. -1.
<mgrwt>
<rscale>  0 0.22569846E+04</rscale>
<asrwt>0</asrwt>
<pdfrwt beam="1">  1        2 0.38979716E+00 0.22569846E+04</pdfrwt>
<pdfrwt beam="2">  1       -1 0.77327117E-01 0.22569846E+04</pdfrwt>
<totfact> 0.57758403E+00</totfact>
</mgrwt>
</event>
<event>
12    6  0.1530720E-007  0.2143263E+04  0.7818608E-02  0.8542421E-01
          2   -1    0    0  501    0  0.00000000000E+00  0.00000000000E+00  0.27503208479E+04  0.27503208479E+04  0.00000000000E+00 0. -1.
         -1   -1    0    0    0  501 -0.00000000000E+00 -0.00000000000E+00 -0.41754919645E+03  0.41754919645E+03  0.00000000000E+00 0.  1.
         24    2    1    2    0    0 -0.85154794413E+03 -0.46653096283E+02  0.66430397196E+03  0.10846971133E+04  0.89205649682E+02 0.  0.
        254    2    1    2    0    0  0.85154794413E+03  0.46653096283E+02  0.16684676795E+04  0.20831729311E+04  0.91022780147E+03 0.  0.
         23    2    4    4    0    0  0.91692395164E+03 -0.20777568090E+03  0.14423588835E+04  0.17240064788E+04  0.88763301015E+02 0.  0.
         23    2    4    4    0    0 -0.65376007508E+02  0.25442877718E+03  0.22610879607E+03  0.35916645226E+03  0.94166489556E+02 0.  0.
          4    1    3    3  502    0 -0.23009430814E+03 -0.39553702919E+01  0.22973308933E+03  0.32517122862E+03  0.00000000000E+00 0. -1.
         -3    1    3    3    0  502 -0.62145363599E+03 -0.42697725991E+02  0.43457088263E+03  0.75952588469E+03  0.00000000000E+00 0.  1.
         11    1    5    5    0    0  0.86456485879E+02 -0.25452110957E+01  0.17114215646E+03  0.19175724176E+03  0.00000000000E+00 0.  1.
        -11    1    5    5    0    0  0.83046746576E+03 -0.20523046980E+03  0.12712167270E+04  0.15322492371E+04  0.00000000000E+00 0. -1.
          1    1    6    6  503    0 -0.73400892409E+02  0.12986962127E+03  0.88807391502E+02  0.17361037504E+03  0.00000000000E+00 0. -1.
         -1    1    6    6    0  503  0.80248849008E+01  0.12455915591E+03  0.13730140456E+03  0.18555607722E+03  0.00000000000E+00 0.  1.
<mgrwt>
<rscale>  0 0.21432632E+04</rscale>
<asrwt>0</asrwt>
<pdfrwt beam="1">  1        2 0.42312627E+00 0.21432632E+04</pdfrwt>
<pdfrwt beam="2">  1       -1 0.64238340E-01 0.21432632E+04</pdfrwt>
<totfact> 0.63674381E+00</totfact>
</mgrwt>
</event>
<event>
12    6  0.1530720E-007  0.1389411E+04  0.7818608E-02  0.8961519E-01
         -1   -1    0    0    0  501 -0.00000000000E+00  0.00000000000E+00  0.50804950144E+03  0.50804950144E+03  0.00000000000E+00 0.  1.
          2   -1    0    0  501    0  0.00000000000E+00 -0.00000000000E+00 -0.94993900016E+03  0.94993900016E+03  0.00000000000E+00 0. -1.
         24    2    1    2    0    0  0.22866725354E+03  0.88821142840E+02 -0.42197741977E+03  0.49475374635E+03  0.80860487719E+02 0.  0.
        254    2    1    2    0    0 -0.22866725354E+03 -0.88821142840E+02 -0.19912078940E+02  0.96323475524E+03  0.93126086279E+03 0.  0.
         23    2    4    4    0    0 -0.21399903277E+03 -0.33893880261E+03 -0.34956774402E+03  0.53911143159E+03  0.88138697853E+02 0.  0.
         23    2    4    4    0    0 -0.14668220762E+02  0.25011765977E+03  0.32965566508E+03  0.42412332366E+03  0.91835372921E+02 0.  0.
          2    1    3    3  502    0  0.21968469599E+03  0.61658237816E+02 -0.39001692852E+03  0.45185872624E+03  0.00000000000E+00 0. -1.
         -1    1    3    3    0  502  0.89825575416E+01  0.27162905025E+02 -0.31960491255E+02  0.42895020114E+02  0.00000000000E+00 0.  1.
         11    1    5    5    0    0 -0.17602050615E+03 -0.22182500992E+03 -0.20716781882E+03  0.35086758010E+03  0.00000000000E+00 0. -1.
        -11    1    5    5    0    0 -0.37978526625E+02 -0.11711379269E+03 -0.14239992521E+03  0.18824385149E+03  0.00000000000E+00 0.  1.
          1    1    6    6  503    0 -0.36598187920E+02  0.23433497681E+03  0.31173049011E+03  0.39169912839E+03  0.00000000000E+00 0. -1.
         -1    1    6    6    0  503  0.21929967159E+02  0.15782682962E+02  0.17925174969E+02  0.32424195267E+02  0.00000000000E+00 0.  1.
<mgrwt>
<rscale>  0 0.13894114E+04</rscale>
<asrwt>0</asrwt>
<pdfrwt beam="1">  1        2 0.14614446E+00 0.13894114E+04</pdfrwt>
<pdfrwt beam="2">  1       -1 0.78161462E-01 0.13894114E+04</pdfrwt>
<totfact> 0.49474987E+01</totfact>
</mgrwt>
</event>
<event>
12    6  0.1530720E-007  0.3010549E+04  0.7818608E-02  0.8240725E-01
          2   -1    0    0  501    0  0.00000000000E+00  0.00000000000E+00  0.32166194410E+04  0.32166194410E+04  0.00000000000E+00 0. -1.
         -1   -1    0    0    0  501 -0.00000000000E+00 -0.00000000000E+00 -0.70442025492E+03  0.70442025492E+03  0.00000000000E+00 0.  1.
         24    2    1    2    0    0 -0.16639706657E+03 -0.12812617084E+04  0.52175688983E+03  0.13956262779E+04  0.78885399631E+02 0.  0.
        254    2    1    2    0    0  0.16639706657E+03  0.12812617084E+04  0.19904422963E+04  0.25254134180E+04  0.86402132373E+03 0.  0.
         23    2    4    4    0    0 -0.54882346934E+02  0.38372559160E+03  0.13228085003E+04  0.13814614365E+04  0.91410996944E+02 0.  0.
         23    2    4    4    0    0  0.22127941350E+03  0.89753611683E+03  0.66763379594E+03  0.11439519815E+04  0.91408919978E+02 0.  0.
          4    1    3    3  502    0 -0.45394683377E+02 -0.15233156491E+03  0.69178864254E+02  0.17335310267E+03  0.00000000000E+00 0. -1.
         -3    1    3    3    0  502 -0.12100238319E+03 -0.11289301435E+04  0.45257802557E+03  0.12222731753E+04  0.00000000000E+00 0.  1.
         11    1    5    5    0    0 -0.61346833648E+02  0.38574246390E+03  0.12849856777E+04  0.13430371828E+04  0.00000000000E+00 0.  1.
        -11    1    5    5    0    0  0.64644867140E+01 -0.20168723005E+01  0.37822822642E+02  0.38424253734E+02  0.00000000000E+00 0. -1.
          4    1    6    6  503    0  0.11675332931E+02  0.10302529662E+03  0.45122105518E+02  0.11307753778E+03  0.00000000000E+00 0. -1.
         -4    1    6    6    0  503  0.20960408057E+03  0.79451082021E+03  0.62251169042E+03  0.10308744437E+04  0.00000000000E+00 0.  1.
<mgrwt>
<rscale>  0 0.30105494E+04</rscale>
<asrwt>0</asrwt>
<pdfrwt beam="1">  1        2 0.49486452E+00 0.30105494E+04</pdfrwt>
<pdfrwt beam="2">  1       -1 0.10837235E+00 0.30105494E+04</pdfrwt>
<totfact> 0.97072233E-01</totfact>
</mgrwt>
</event>
<event>
12    6  0.1530720E-007  0.2333044E+04  0.7818608E-02  0.8465005E-01
          2   -1    0    0  501    0  0.00000000000E+00  0.00000000000E+00  0.28163163480E+04  0.28163163480E+04  0.00000000000E+00 0. -1.
         -1   -1    0    0    0  501 -0.00000000000E+00 -0.00000000000E+00 -0.48317514102E+03  0.48317514102E+03  0.00000000000E+00 0.  1.
         24    2    1    2    0    0 -0.14870748302E+03  0.73807845054E+03  0.19063698396E+04  0.20513757554E+04  0.83802207259E+02 0.  0.
        254    2    1    2    0    0  0.14870748302E+03 -0.73807845054E+03  0.42677136737E+03  0.12481157336E+04  0.89932495225E+03 0.  0.
         23    2    4    4    0    0  0.48713103479E+03 -0.23916747680E+03  0.29870604579E+03  0.62579228705E+03  0.88842319419E+02 0.  0.
         23    2    4    4    0    0 -0.33842355177E+03 -0.49891097374E+03  0.12806532157E+03  0.62232344653E+03  0.86273318035E+02 0.  0.
          2    1    3    3  502    0 -0.10384376930E+03  0.64353304808E+03  0.16781136308E+04  0.18002732210E+04  0.00000000000E+00 0. -1.
         -1    1    3    3    0  502 -0.44863713724E+02  0.94545402465E+02  0.22825620884E+03  0.25110253446E+03  0.00000000000E+00 0.  1.
         11    1    5    5    0    0  0.44529921313E+02 -0.12795241648E+02  0.10123254450E+01  0.46342819333E+02  0.00000000000E+00 0.  1.
        -11    1    5    5    0    0  0.44260111348E+03 -0.22637223515E+03  0.29769372035E+03  0.57944946771E+03  0.00000000000E+00 0. -1.
          3    1    6    6  503    0 -0.18904302858E+03 -0.21821963729E+03  0.33854382479E+02  0.29069433425E+03  0.00000000000E+00 0. -1.
         -3    1    6    6    0  503 -0.14938052319E+03 -0.28069133645E+03  0.94210939096E+02  0.33162911228E+03  0.00000000000E+00 0.  1.
<mgrwt>
<rscale>  0 0.23330444E+04</rscale>
<asrwt>0</asrwt>
<pdfrwt beam="1">  1        2 0.43327943E+00 0.23330444E+04</pdfrwt>
<pdfrwt beam="2">  1       -1 0.74334639E-01 0.23330444E+04</pdfrwt>
<totfact> 0.42364168E+00</totfact>
</mgrwt>
</event>
<event>
12    6  0.1530720E-007  0.1409148E+04  0.7818608E-02  0.8947223E-01
         -1   -1    0    0    0  501 -0.00000000000E+00  0.00000000000E+00  0.30654945803E+03  0.30654945803E+03  0.00000000000E+00 0.  1.
          2   -1    0    0  501    0  0.00000000000E+00 -0.00000000000E+00 -0.16193947672E+04  0.16193947672E+04  0.00000000000E+00 0. -1.
         24    2    1    2    0    0 -0.26068178578E+02  0.74967981887E+02 -0.91907430138E+03  0.92586833401E+03  0.78961080518E+02 0.  0.
        254    2    1    2    0    0  0.26068178578E+02 -0.74967981887E+02 -0.39377100783E+03  0.10000758912E+04  0.91585830422E+03 0.  0.
         23    2    4    4    0    0  0.40071875735E+02 -0.26970489821E+03  0.21185359487E+03  0.35745852022E+03  0.92456263600E+02 0.  0.
         23    2    4    4    0    0 -0.14003697156E+02  0.19473691632E+03 -0.60562460270E+03  0.64261737102E+03  0.89762776442E+02 0.  0.
          4    1    3    3  502    0 -0.52327429879E+01  0.79440671040E+02 -0.84634808447E+03  0.85008427929E+03  0.00000000000E+00 0. -1.
         -3    1    3    3    0  502 -0.20835435590E+02 -0.44726891529E+01 -0.72726216910E+02  0.75784054725E+02  0.00000000000E+00 0.  1.
         11    1    5    5    0    0  0.57656703189E+02 -0.11995820535E+03  0.69719996612E+02  0.15025027248E+03  0.00000000000E+00 0.  1.
        -11    1    5    5    0    0 -0.17584827454E+02 -0.14974669286E+03  0.14213359825E+03  0.20720824774E+03  0.00000000000E+00 0. -1.
          4    1    6    6  503    0  0.10443165491E+02  0.94621938658E+02 -0.41646003528E+03  0.42720174622E+03  0.00000000000E+00 0. -1.
         -4    1    6    6    0  503 -0.24446862647E+02  0.10011497767E+03 -0.18916456741E+03  0.21541562481E+03  0.00000000000E+00 0.  1.
<mgrwt>
<rscale>  0 0.14091481E+04</rscale>
<asrwt>0</asrwt>
<pdfrwt beam="1">  1        2 0.24913766E+00 0.14091481E+04</pdfrwt>
<pdfrwt beam="2">  1       -1 0.47161454E-01 0.14091481E+04</pdfrwt>
<totfact> 0.54046708E+01</totfact>
</mgrwt>
</event>
<event>
12    6  0.1530720E-007  0.1437014E+04  0.7818608E-02  0.8927453E-01
         -1   -1    0    0    0  501 -0.00000000000E+00  0.00000000000E+00  0.40088598229E+03  0.40088598229E+03  0.00000000000E+00 0.  1.
          2   -1    0    0  501    0  0.00000000000E+00 -0.00000000000E+00 -0.12877787974E+04  0.12877787974E+04  0.00000000000E+00 0. -1.
         24    2    1    2    0    0  0.33075883379E+03 -0.11933064005E+03 -0.52789077728E+03  0.63923773346E+03  0.79466970230E+02 0.  0.
        254    2    1    2    0    0 -0.33075883379E+03  0.11933064005E+03 -0.35900203781E+03  0.10494270462E+04  0.92128901784E+03 0.  0.
         23    2    4    4    0    0 -0.18470167041E+03 -0.38308781036E+03 -0.27005451665E+03  0.51188147595E+03  0.90676490700E+02 0.  0.
         23    2    4    4    0    0 -0.14605716338E+03  0.50241845041E+03 -0.88947521168E+02  0.53754557026E+03  0.85361491924E+02 0.  0.
          2    1    3    3  502    0  0.28489075191E+03 -0.11266450197E+03 -0.40444557210E+03  0.50737781910E+03  0.00000000000E+00 0. -1.
         -1    1    3    3    0  502  0.45868081886E+02 -0.66661380757E+01 -0.12344520518E+03  0.13185991435E+03  0.00000000000E+00 0.  1.
         11    1    5    5    0    0 -0.13867068994E+03 -0.22059821164E+03 -0.12382981400E+03  0.28849082146E+03  0.00000000000E+00 0.  1.
        -11    1    5    5    0    0 -0.46030980471E+02 -0.16248959872E+03 -0.14622470264E+03  0.22339065450E+03  0.00000000000E+00 0. -1.
          2    1    6    6  503    0 -0.56021909935E+02  0.76682297449E+02 -0.17565434305E+02  0.96577293486E+02  0.00000000000E+00 0. -1.
         -2    1    6    6    0  503 -0.90035253445E+02  0.42573615296E+03 -0.71382086863E+02  0.44096827678E+03  0.00000000000E+00 0.  1.
<mgrwt>
<rscale>  0 0.14370142E+04</rscale>
<asrwt>0</asrwt>
<pdfrwt beam="1">  1        2 0.19811981E+00 0.14370142E+04</pdfrwt>
<pdfrwt beam="2">  1       -1 0.61674767E-01 0.14370142E+04</pdfrwt>
<totfact> 0.49586255E+01</totfact>
</mgrwt>
</event>
<event>
12    6  0.1530720E-007  0.2853571E+04  0.7818608E-02  0.8286827E-01
         -1   -1    0    0    0  501 -0.00000000000E+00  0.00000000000E+00  0.83677693227E+03  0.83677693227E+03  0.00000000000E+00 0.  1.
          2   -1    0    0  501    0  0.00000000000E+00 -0.00000000000E+00 -0.24328073246E+04  0.24328073246E+04  0.00000000000E+00 0. -1.
         24    2    1    2    0    0 -0.63240480397E+03 -0.72334368510E+03 -0.16898984236E+04  0.19458171868E+04  0.85357597933E+02 0.  0.
        254    2    1    2    0    0  0.63240480397E+03  0.72334368510E+03  0.93868031279E+02  0.13237670701E+04  0.90575169092E+03 0.  0.
         23    2    4    4    0    0 -0.18029158476E+03  0.36687037228E+03 -0.39081108410E+02  0.42172935304E+03  0.96069706918E+02 0.  0.
         23    2    4    4    0    0  0.81269638873E+03  0.35647331282E+03  0.13294913969E+03  0.90203771702E+03  0.91912600728E+02 0.  0.
          4    1    3    3  502    0 -0.40644541318E+03 -0.46395274674E+03 -0.10004038585E+04  0.11752692905E+04  0.00000000000E+00 0. -1.
         -3    1    3    3    0  502 -0.22595939078E+03 -0.25939093836E+03 -0.68949456513E+03  0.77054789633E+03  0.00000000000E+00 0.  1.
         11    1    5    5    0    0 -0.26976356064E+02  0.73228473515E+02  0.29533718646E+02  0.83440839263E+02  0.00000000000E+00 0. -1.
        -11    1    5    5    0    0 -0.15331522870E+03  0.29364189877E+03 -0.68614827056E+02  0.33828851378E+03  0.00000000000E+00 0.  1.
          4    1    6    6  503    0  0.23790198264E+03  0.61477185752E+02  0.24654932094E+02  0.24695073069E+03  0.00000000000E+00 0.  1.
         -4    1    6    6    0  503  0.57479440609E+03  0.29499612707E+03  0.10829420759E+03  0.65508698632E+03  0.00000000000E+00 0. -1.
<mgrwt>
<rscale>  0 0.28535711E+04</rscale>
<asrwt>0</asrwt>
<pdfrwt beam="1">  1        2 0.37427805E+00 0.28535711E+04</pdfrwt>
<pdfrwt beam="2">  1       -1 0.12873491E+00 0.28535711E+04</pdfrwt>
<totfact> 0.19485429E+00</totfact>
</mgrwt>
</event>
<event>
12    6  0.1530720E-007  0.1377918E+04  0.7818608E-02  0.8969959E-01
          2   -1    0    0  501    0  0.00000000000E+00  0.00000000000E+00  0.17075168250E+04  0.17075168250E+04  0.00000000000E+00 0. -1.
         -1   -1    0    0    0  501 -0.00000000000E+00 -0.00000000000E+00 -0.27798539839E+03  0.27798539839E+03  0.00000000000E+00 0.  1.
         24    2    1    2    0    0  0.17024899164E+03 -0.25385155803E+03  0.76502430524E+03  0.82774860122E+03  0.80499854301E+02 0.  0.
        254    2    1    2    0    0 -0.17024899164E+03  0.25385155803E+03  0.66450712133E+03  0.11577536221E+04  0.89743991587E+03 0.  0.
         23    2    4    4    0    0  0.35046892593E+03  0.59907399188E+02  0.15547839436E+03  0.39853263035E+03  0.90759913073E+02 0.  0.
         23    2    4    4    0    0 -0.52071791757E+03  0.19394415885E+03  0.50902872696E+03  0.75922099178E+03  0.92437995723E+02 0.  0.
          4    1    3    3  502    0  0.67166685589E+02 -0.93860760726E+02  0.39681784975E+03  0.41326215885E+03  0.00000000000E+00 0. -1.
         -3    1    3    3    0  502  0.10308230605E+03 -0.15999079731E+03  0.36820645549E+03  0.41448644237E+03  0.00000000000E+00 0.  1.
         11    1    5    5    0    0  0.26519324486E+03  0.83531324014E+02  0.12608873471E+03  0.30529216864E+03  0.00000000000E+00 0. -1.
        -11    1    5    5    0    0  0.85275681069E+02 -0.23623924825E+02  0.29389659656E+02  0.93240461714E+02  0.00000000000E+00 0.  1.
          1    1    6    6  503    0 -0.33361611859E+03  0.95539074939E+02  0.36361355809E+03  0.50263530422E+03  0.00000000000E+00 0. -1.
         -1    1    6    6    0  503 -0.18710179898E+03  0.98405083907E+02  0.14541516888E+03  0.25658568756E+03  0.00000000000E+00 0.  1.
<mgrwt>
<rscale>  0 0.13779184E+04</rscale>
<asrwt>0</asrwt>
<pdfrwt beam="1">  1        2 0.26269489E+00 0.13779184E+04</pdfrwt>
<pdfrwt beam="2">  1       -1 0.42766985E-01 0.13779184E+04</pdfrwt>
<totfact> 0.58078620E+01</totfact>
</mgrwt>
</event>
<event>
12    6  0.1530720E-007  0.1198443E+04  0.7818608E-02  0.9114220E-01
         -1   -1    0    0    0  501 -0.00000000000E+00  0.00000000000E+00  0.66733530039E+03  0.66733530039E+03  0.00000000000E+00 0.  1.
          2   -1    0    0  501    0  0.00000000000E+00 -0.00000000000E+00 -0.53806021591E+03  0.53806021591E+03  0.00000000000E+00 0. -1.
         24    2    1    2    0    0  0.10108707648E+03  0.19446899333E+03  0.77415287492E+02  0.24686592239E+03  0.83143673832E+02 0.  0.
        254    2    1    2    0    0 -0.10108707648E+03 -0.19446899333E+03  0.51859796985E+02  0.95852959391E+03  0.93169348901E+03 0.  0.
         23    2    4    4    0    0 -0.17707816539E+03 -0.39499874918E+03 -0.30151901335E+03  0.53535584243E+03  0.91167286338E+02 0.  0.
         23    2    4    4    0    0  0.75991088907E+02  0.20052975585E+03  0.35337881034E+03  0.42317375148E+03  0.90623461488E+02 0.  0.
          2    1    3    3  502    0  0.10478379107E+02  0.10693202096E+01  0.24746276763E+02  0.26894573580E+02  0.00000000000E+00 0. -1.
         -1    1    3    3    0  502  0.90608697378E+02  0.19339967312E+03  0.52669010729E+02  0.21997134881E+03  0.00000000000E+00 0.  1.
         11    1    5    5    0    0 -0.74671266218E+02 -0.10860797524E+03 -0.51025765574E+02  0.14133336137E+03  0.00000000000E+00 0. -1.
        -11    1    5    5    0    0 -0.10240689917E+03 -0.28639077395E+03 -0.25049324778E+03  0.39402248106E+03  0.00000000000E+00 0.  1.
          1    1    6    6  503    0  0.76899895515E+02  0.75496272982E+02  0.16206485674E+03  0.19462347996E+03  0.00000000000E+00 0. -1.
         -1    1    6    6    0  503 -0.90880660845E+00  0.12503348287E+03  0.19131395360E+03  0.22855027152E+03  0.00000000000E+00 0.  1.
<mgrwt>
<rscale>  0 0.11984433E+04</rscale>
<asrwt>0</asrwt>
<pdfrwt beam="1">  1        2 0.82778495E-01 0.11984433E+04</pdfrwt>
<pdfrwt beam="2">  1       -1 0.10266697E+00 0.11984433E+04</pdfrwt>
<totfact> 0.57213512E+01</totfact>
</mgrwt>
</event>
<event>
12    6  0.1530720E-007  0.1172923E+04  0.7818608E-02  0.9136892E-01
         -1   -1    0    0    0  501 -0.00000000000E+00  0.00000000000E+00  0.26334638950E+03  0.26334638950E+03  0.00000000000E+00 0.  1.
          2   -1    0    0  501    0  0.00000000000E+00 -0.00000000000E+00 -0.13060265109E+04  0.13060265109E+04  0.00000000000E+00 0. -1.
         24    2    1    2    0    0 -0.21606058931E+03 -0.78756741484E+01 -0.13308563723E+03  0.26683414487E+03  0.82124719396E+02 0.  0.
        254    2    1    2    0    0  0.21606058931E+03  0.78756741484E+01 -0.90959448420E+03  0.13025387556E+04  0.90691834228E+03 0.  0.
         23    2    4    4    0    0  0.44485666452E+03  0.25681046245E+03 -0.76065462564E+03  0.92203115301E+03  0.87732103723E+02 0.  0.
         23    2    4    4    0    0 -0.22879607522E+03 -0.24893478830E+03 -0.14893985856E+03  0.38050760255E+03  0.91031759693E+02 0.  0.
          2    1    3    3  502    0 -0.73511162907E+00 -0.14311832513E+02 -0.15133366306E+01  0.14410382602E+02  0.00000000000E+00 0. -1.
         -1    1    3    3    0  502 -0.21532547768E+03  0.64361583644E+01 -0.13157230060E+03  0.25242376227E+03  0.00000000000E+00 0.  1.
         11    1    5    5    0    0  0.40219497471E+03  0.22919959251E+03 -0.72412194849E+03  0.85944508096E+03  0.00000000000E+00 0. -1.
        -11    1    5    5    0    0  0.42661689808E+02  0.27610869932E+02 -0.36532677153E+02  0.62586072058E+02  0.00000000000E+00 0.  1.
          2    1    6    6  503    0 -0.13310675989E+03 -0.19798812530E+03 -0.12560860009E+03  0.26961867092E+03  0.00000000000E+00 0. -1.
         -2    1    6    6    0  503 -0.95689315324E+02 -0.50946662996E+02 -0.23331258467E+02  0.11088893164E+03  0.00000000000E+00 0.  1.
<mgrwt>
<rscale>  0 0.11729235E+04</rscale>
<asrwt>0</asrwt>
<pdfrwt beam="1">  1        2 0.20092715E+00 0.11729235E+04</pdfrwt>
<pdfrwt beam="2">  1       -1 0.40514830E-01 0.11729235E+04</pdfrwt>
<totfact> 0.10984147E+02</totfact>
</mgrwt>
</event>
<event>
12    6  0.1530720E-007  0.2825047E+04  0.7818608E-02  0.8295534E-01
         -1   -1    0    0    0  501 -0.00000000000E+00  0.00000000000E+00  0.69608720794E+03  0.69608720794E+03  0.00000000000E+00 0.  1.
          2   -1    0    0  501    0  0.00000000000E+00 -0.00000000000E+00 -0.28663401411E+04  0.28663401411E+04  0.00000000000E+00 0. -1.
         24    2    1    2    0    0  0.43428154898E+03 -0.49754698813E+03 -0.23327079452E+04  0.24257036966E+04  0.79740812153E+02 0.  0.
        254    2    1    2    0    0 -0.43428154898E+03  0.49754698813E+03  0.16245501208E+03  0.11367236524E+04  0.91082136650E+03 0.  0.
         23    2    4    4    0    0 -0.26525457366E+03  0.63424943829E+03 -0.18341471899E+03  0.71752567130E+03  0.92573165767E+02 0.  0.
         23    2    4    4    0    0 -0.16902697532E+03 -0.13670245015E+03  0.34586973107E+03  0.41919798105E+03  0.94039343792E+02 0.  0.
          2    1    3    3  502    0  0.37357970941E+03 -0.46266093729E+03 -0.20552683962E+04  0.21395665736E+04  0.00000000000E+00 0. -1.
         -1    1    3    3    0  502  0.60701839562E+02 -0.34886050844E+02 -0.27743954895E+03  0.28613712305E+03  0.00000000000E+00 0.  1.
         11    1    5    5    0    0 -0.57044469421E+02  0.15237929682E+03 -0.39112960075E+01  0.16275386271E+03  0.00000000000E+00 0.  1.
        -11    1    5    5    0    0 -0.20821010424E+03  0.48187014146E+03 -0.17950342298E+03  0.55477180859E+03  0.00000000000E+00 0. -1.
          2    1    6    6  503    0 -0.13805023047E+03 -0.12825922906E+03  0.22178766131E+03  0.29102931584E+03  0.00000000000E+00 0. -1.
         -2    1    6    6    0  503 -0.30976744847E+02 -0.84432210964E+01  0.12408206977E+03  0.12816866521E+03  0.00000000000E+00 0.  1.
<mgrwt>
<rscale>  0 0.28250470E+04</rscale>
<asrwt>0</asrwt>
<pdfrwt beam="1">  1        2 0.44097540E+00 0.28250470E+04</pdfrwt>
<pdfrwt beam="2">  1       -1 0.10709034E+00 0.28250470E+04</pdfrwt>
<totfact> 0.16899070E+00</totfact>
</mgrwt>
</event>
<event>
12    6  0.1530720E-007  0.1203137E+04  0.7818608E-02  0.9110115E-01
          2   -1    0    0  501    0  0.00000000000E+00  0.00000000000E+00  0.11590492180E+04  0.11590492180E+04  0.00000000000E+00 0. -1.
         -1   -1    0    0    0  501 -0.00000000000E+00 -0.00000000000E+00 -0.31222567989E+03  0.31222567989E+03  0.00000000000E+00 0.  1.
         24    2    1    2    0    0  0.38804278484E+02 -0.23691529121E+03  0.93876552487E+02  0.26968617668E+03  0.79266635780E+02 0.  0.
        254    2    1    2    0    0 -0.38804278484E+02  0.23691529121E+03  0.75294698566E+03  0.12015887213E+04  0.90512522039E+03 0.  0.
         23    2    4    4    0    0 -0.24297157596E+03  0.44824253848E+03  0.17498046277E+03  0.54665309451E+03  0.90856388637E+02 0.  0.
         23    2    4    4    0    0  0.20416729748E+03 -0.21132724727E+03  0.57796652289E+03  0.65493562674E+03  0.92476390484E+02 0.  0.
          2    1    3    3  502    0  0.30110531034E+02 -0.44698249826E+02 -0.35540695555E+01  0.54011193535E+02  0.00000000000E+00 0. -1.
         -1    1    3    3    0  502  0.86937474493E+01 -0.19221704139E+03  0.97430622042E+02  0.21567498315E+03  0.00000000000E+00 0.  1.
         11    1    5    5    0    0 -0.25092943569E+03  0.43087192247E+03  0.16582086842E+03  0.52546432388E+03  0.00000000000E+00 0. -1.
        -11    1    5    5    0    0  0.79578597271E+01  0.17370616012E+02  0.91595943582E+01  0.21188770632E+02  0.00000000000E+00 0.  1.
          2    1    6    6  503    0  0.89405996667E+02 -0.13619972222E+03  0.23880555524E+03  0.28908803121E+03  0.00000000000E+00 0.  1.
         -2    1    6    6    0  503  0.11476130081E+03 -0.75127525053E+02  0.33916096764E+03  0.36584759553E+03  0.00000000000E+00 0. -1.
<mgrwt>
<rscale>  0 0.12031374E+04</rscale>
<asrwt>0</asrwt>
<pdfrwt beam="1">  1        2 0.17831526E+00 0.12031374E+04</pdfrwt>
<pdfrwt beam="2">  1       -1 0.48034720E-01 0.12031374E+04</pdfrwt>
<totfact> 0.97636777E+01</totfact>
</mgrwt>
</event>
<event>
12    6  0.1530720E-007  0.1929992E+04  0.7818608E-02  0.8640070E-01
          2   -1    0    0  501    0  0.00000000000E+00  0.00000000000E+00  0.22931885330E+04  0.22931885330E+04  0.00000000000E+00 0. -1.
         -1   -1    0    0    0  501 -0.00000000000E+00 -0.00000000000E+00 -0.40607962592E+03  0.40607962592E+03  0.00000000000E+00 0.  1.
         24    2    1    2    0    0 -0.36152298009E+03  0.16709499092E+02 -0.18109790716E+03  0.41239365163E+03  0.79334730322E+02 0.  0.
        254    2    1    2    0    0  0.36152298009E+03 -0.16709499092E+02  0.20682068142E+04  0.22868745073E+04  0.90627673099E+03 0.  0.
         23    2    4    4    0    0  0.52320171038E+03 -0.14883568254E+03  0.65871849045E+03  0.85909645795E+03  0.90799693066E+02 0.  0.
         23    2    4    4    0    0 -0.16167873029E+03  0.13212618345E+03  0.14094883238E+04  0.14277780493E+04  0.91079542732E+02 0.  0.
          2    1    3    3  502    0 -0.13600565649E+03  0.19097222890E+02 -0.28998502149E+02  0.14036792955E+03  0.00000000000E+00 0. -1.
         -1    1    3    3    0  502 -0.22551732360E+03 -0.23877237979E+01 -0.15209940501E+03  0.27202572208E+03  0.00000000000E+00 0.  1.
         11    1    5    5    0    0  0.48317897264E+03 -0.11698508019E+03  0.62133660858E+03  0.79574280377E+03  0.00000000000E+00 0. -1.
        -11    1    5    5    0    0  0.40022737743E+02 -0.31850602348E+02  0.37381881877E+02  0.63353654189E+02  0.00000000000E+00 0.  1.
          2    1    6    6  503    0 -0.12691497450E+02  0.39233739989E+02  0.48611315743E+03  0.48785895737E+03  0.00000000000E+00 0.  1.
         -2    1    6    6    0  503 -0.14898723284E+03  0.92892443460E+02  0.92337516632E+03  0.93991909193E+03  0.00000000000E+00 0. -1.
<mgrwt>
<rscale>  0 0.19299919E+04</rscale>
<asrwt>0</asrwt>
<pdfrwt beam="1">  1        2 0.35279823E+00 0.19299919E+04</pdfrwt>
<pdfrwt beam="2">  1       -1 0.62473790E-01 0.19299919E+04</pdfrwt>
<totfact> 0.12647824E+01</totfact>
</mgrwt>
</event>
<event>
12    6  0.1530720E-007  0.1173037E+04  0.7818608E-02  0.9136791E-01
          2   -1    0    0  501    0  0.00000000000E+00  0.00000000000E+00  0.25949937691E+04  0.25949937691E+04  0.00000000000E+00 0. -1.
         -1   -1    0    0    0  501 -0.00000000000E+00 -0.00000000000E+00 -0.13256436461E+03  0.13256436461E+03  0.00000000000E+00 0.  1.
         24    2    1    2    0    0  0.13433744363E+02 -0.39415981799E-01  0.10502319455E+04  0.10536021841E+04  0.83126144906E+02 0.  0.
        254    2    1    2    0    0 -0.13433744363E+02  0.39415981799E-01  0.14121974589E+04  0.16739559495E+04  0.89869148820E+03 0.  0.
         23    2    4    4    0    0  0.42010122161E+03 -0.34007111163E+02  0.51024447703E+03  0.66827185592E+03  0.92716379758E+02 0.  0.
         23    2    4    4    0    0 -0.43353496597E+03  0.34046527145E+02  0.90195298190E+03  0.10056840936E+04  0.93646045655E+02 0.  0.
          2    1    3    3  502    0  0.39661293623E+02  0.15192789206E+02  0.85252982541E+03  0.85358710292E+03  0.00000000000E+00 0. -1.
         -1    1    3    3    0  502 -0.26227549261E+02 -0.15232205188E+02  0.19770212013E+03  0.20001508123E+03  0.00000000000E+00 0.  1.
         11    1    5    5    0    0  0.24139643960E+03 -0.17140883289E+02  0.22027992711E+03  0.32724501100E+03  0.00000000000E+00 0.  1.
        -11    1    5    5    0    0  0.17870478201E+03 -0.16866227875E+02  0.28996454991E+03  0.34102684493E+03  0.00000000000E+00 0. -1.
          2    1    6    6  503    0 -0.13457906454E+03  0.47561727911E+02  0.24019400337E+03  0.27940436974E+03  0.00000000000E+00 0. -1.
         -2    1    6    6    0  503 -0.29895590143E+03 -0.13515200765E+02  0.66175897853E+03  0.72627972388E+03  0.00000000000E+00 0.  1.
<mgrwt>
<rscale>  0 0.11730366E+04</rscale>
<asrwt>0</asrwt>
<pdfrwt beam="1">  1        2 0.39922977E+00 0.11730366E+04</pdfrwt>
<pdfrwt beam="2">  1       -1 0.20394520E-01 0.11730366E+04</pdfrwt>
<totfact> 0.68857329E+01</totfact>
</mgrwt>
</event>
<event>
12    6  0.1530720E-007  0.1998470E+04  0.7818608E-02  0.8607336E-01
         -1   -1    0    0    0  501 -0.00000000000E+00  0.00000000000E+00  0.40986739239E+03  0.40986739239E+03  0.00000000000E+00 0.  1.
          2   -1    0    0  501    0  0.00000000000E+00 -0.00000000000E+00 -0.24360814319E+04  0.24360814319E+04  0.00000000000E+00 0. -1.
         24    2    1    2    0    0  0.63473269823E+03 -0.15380138761E+02 -0.13405062408E+03  0.65387923550E+03  0.80413543284E+02 0.  0.
        254    2    1    2    0    0 -0.63473269823E+03  0.15380138761E+02 -0.18921634154E+04  0.21920695887E+04  0.90651229692E+03 0.  0.
         23    2    4    4    0    0  0.20197265918E+03 -0.54118245337E+02 -0.65620468300E+03  0.69483917720E+03  0.92060613976E+02 0.  0.
         23    2    4    4    0    0 -0.83670535740E+03  0.69498384098E+02 -0.12359587324E+04  0.14972304115E+04  0.95911608110E+02 0.  0.
          2    1    3    3  502    0  0.36202355834E+03 -0.36804983106E+02 -0.10532404086E+03  0.37882557616E+03  0.00000000000E+00 0. -1.
         -1    1    3    3    0  502  0.27270913989E+03  0.21424844345E+02 -0.28726583220E+02  0.27505365934E+03  0.00000000000E+00 0.  1.
         11    1    5    5    0    0  0.15692790926E+03 -0.53842681202E+02 -0.60157234993E+03  0.62403100502E+03  0.00000000000E+00 0. -1.
        -11    1    5    5    0    0  0.45044749920E+02 -0.27556413522E+00 -0.54632333069E+02  0.70808172180E+02  0.00000000000E+00 0.  1.
          1    1    6    6  503    0 -0.29900662638E+03 -0.22676218309E+01 -0.37491407395E+03  0.47955257019E+03  0.00000000000E+00 0. -1.
         -1    1    6    6    0  503 -0.53769873102E+03  0.71766005929E+02 -0.86104465845E+03  0.10176778414E+04  0.00000000000E+00 0.  1.
<mgrwt>
<rscale>  0 0.19984698E+04</rscale>
<asrwt>0</asrwt>
<pdfrwt beam="1">  1        2 0.37478175E+00 0.19984698E+04</pdfrwt>
<pdfrwt beam="2">  1       -1 0.63056524E-01 0.19984698E+04</pdfrwt>
<totfact> 0.10230496E+01</totfact>
</mgrwt>
</event>
<event>
12    6  0.1530720E-007  0.1398227E+04  0.7818608E-02  0.8955103E-01
          2   -1    0    0  501    0  0.00000000000E+00  0.00000000000E+00  0.17998050566E+04  0.17998050566E+04  0.00000000000E+00 0. -1.
         -1   -1    0    0    0  501 -0.00000000000E+00 -0.00000000000E+00 -0.27156239424E+03  0.27156239424E+03  0.00000000000E+00 0.  1.
         24    2    1    2    0    0  0.24439307034E+03 -0.22568738528E+02  0.92214351702E+03  0.95748051024E+03  0.78631677655E+02 0.  0.
        254    2    1    2    0    0 -0.24439307034E+03  0.22568738528E+02  0.60609914533E+03  0.11138869406E+04  0.90174864660E+03 0.  0.
         23    2    4    4    0    0 -0.56908344450E+03 -0.14308205184E+02  0.27388296179E+03  0.63859006779E+03  0.93406136783E+02 0.  0.
         23    2    4    4    0    0  0.32469037416E+03  0.36876943712E+02  0.33221618354E+03  0.47529687279E+03  0.93572306954E+02 0.  0.
          2    1    3    3  502    0  0.13336921745E+03 -0.55930442533E+01  0.64062731514E+03  0.65438672603E+03  0.00000000000E+00 0. -1.
         -1    1    3    3    0  502  0.11102385289E+03 -0.16975694274E+02  0.28151620188E+03  0.30309378421E+03  0.00000000000E+00 0.  1.
         11    1    5    5    0    0 -0.50046576834E+03 -0.41153312611E+02  0.22564852059E+03  0.55052414594E+03  0.00000000000E+00 0. -1.
        -11    1    5    5    0    0 -0.68617676161E+02  0.26845107427E+02  0.48234441200E+02  0.88065921856E+02  0.00000000000E+00 0.  1.
          1    1    6    6  503    0  0.24093425125E+03 -0.71245744944E+01  0.20291780020E+03  0.31508047642E+03  0.00000000000E+00 0. -1.
         -1    1    6    6    0  503  0.83756122909E+02  0.44001518206E+02  0.12929838334E+03  0.16021639637E+03  0.00000000000E+00 0.  1.
<mgrwt>
<rscale>  0 0.13982265E+04</rscale>
<asrwt>0</asrwt>
<pdfrwt beam="1">  1        2 0.27689308E+00 0.13982265E+04</pdfrwt>
<pdfrwt beam="2">  1       -1 0.41778831E-01 0.13982265E+04</pdfrwt>
<totfact> 0.53816624E+01</totfact>
</mgrwt>
</event>
<event>
12    6  0.1530720E-007  0.1748629E+04  0.7818608E-02  0.8734105E-01
         -1   -1    0    0    0  501 -0.00000000000E+00  0.00000000000E+00  0.96495412605E+03  0.96495412605E+03  0.00000000000E+00 0.  1.
          2   -1    0    0  501    0  0.00000000000E+00 -0.00000000000E+00 -0.79218872177E+03  0.79218872177E+03  0.00000000000E+00 0. -1.
         24    2    1    2    0    0  0.60782231415E+02  0.31940387643E+03 -0.49482728684E+03  0.59766719817E+03  0.81478340898E+02 0.  0.
        254    2    1    2    0    0 -0.60782231415E+02 -0.31940387643E+03  0.66759269112E+03  0.11594756496E+04  0.89050012069E+03 0.  0.
         23    2    4    4    0    0 -0.54911281730E+02 -0.48290711418E+03  0.31040559203E+02  0.49593458824E+03  0.93664666291E+02 0.  0.
         23    2    4    4    0    0 -0.58709496849E+01  0.16350323776E+03  0.63655213192E+03  0.66354106140E+03  0.91215934527E+02 0.  0.
          4    1    3    3  502    0  0.42574928726E+02  0.27099422743E+03 -0.35538480488E+03  0.44894192875E+03  0.00000000000E+00 0. -1.
         -3    1    3    3    0  502  0.18207302688E+02  0.48409649001E+02 -0.13944248196E+03  0.14872526942E+03  0.00000000000E+00 0.  1.
         11    1    5    5    0    0 -0.14867153440E+02 -0.41565189173E+03  0.36205173799E+02  0.41749052918E+03  0.00000000000E+00 0.  1.
        -11    1    5    5    0    0 -0.40044128290E+02 -0.67255222457E+02 -0.51646145955E+01  0.78444059062E+02  0.00000000000E+00 0. -1.
          3    1    6    6  503    0  0.42448495860E+02  0.71604262191E+02  0.26632351651E+03  0.27902913936E+03  0.00000000000E+00 0. -1.
         -3    1    6    6    0  503 -0.48319445545E+02  0.91898975566E+02  0.37022861540E+03  0.38451192204E+03  0.00000000000E+00 0.  1.
<mgrwt>
<rscale>  0 0.17486289E+04</rscale>
<asrwt>0</asrwt>
<pdfrwt beam="1">  1        2 0.12187519E+00 0.17486289E+04</pdfrwt>
<pdfrwt beam="2">  1       -1 0.14845448E+00 0.17486289E+04</pdfrwt>
<totfact> 0.13549973E+01</totfact>
</mgrwt>
</event>
<event>
12    6  0.1530720E-007  0.1640796E+04  0.7818608E-02  0.8795870E-01
         -1   -1    0    0    0  501 -0.00000000000E+00  0.00000000000E+00  0.54675870353E+03  0.54675870353E+03  0.00000000000E+00 0.  1.
          2   -1    0    0  501    0  0.00000000000E+00 -0.00000000000E+00 -0.12309877195E+04  0.12309877195E+04  0.00000000000E+00 0. -1.
         24    2    1    2    0    0  0.54701517610E+03 -0.12791544680E+03 -0.33872764308E+03  0.66109811978E+03  0.82014287665E+02 0.  0.
        254    2    1    2    0    0 -0.54701517610E+03  0.12791544680E+03 -0.34550137292E+03  0.11166483033E+04  0.90107950266E+03 0.  0.
         23    2    4    4    0    0 -0.69781429915E+03 -0.75505005166E+02 -0.43779777258E+03  0.83211071486E+03  0.89975275564E+02 0.  0.
         23    2    4    4    0    0  0.15079912304E+03  0.20342045197E+03  0.92296399654E+02  0.28453758842E+03  0.91229151313E+02 0.  0.
          2    1    3    3  502    0  0.15941186454E+03 -0.48636827991E+02 -0.14345997890E+03  0.21990554595E+03  0.00000000000E+00 0. -1.
         -1    1    3    3    0  502  0.38760331156E+03 -0.79278618809E+02 -0.19526766418E+03  0.44119257384E+03  0.00000000000E+00 0.  1.
         11    1    5    5    0    0 -0.25308499070E+02 -0.30545532232E+01 -0.39930948254E+02  0.47374371226E+02  0.00000000000E+00 0. -1.
        -11    1    5    5    0    0 -0.67250580008E+03 -0.72450451943E+02 -0.39786682432E+03  0.78473634363E+03  0.00000000000E+00 0.  1.
          4    1    6    6  503    0  0.21091732263E+02  0.28754831022E+02 -0.18735795484E+02  0.40283141751E+02  0.00000000000E+00 0. -1.
         -4    1    6    6    0  503  0.12970739078E+03  0.17466562094E+03  0.11103219514E+03  0.24425444667E+03  0.00000000000E+00 0.  1.
<mgrwt>
<rscale>  0 0.16407965E+04</rscale>
<asrwt>0</asrwt>
<pdfrwt beam="1">  1        2 0.18938273E+00 0.16407965E+04</pdfrwt>
<pdfrwt beam="2">  1       -1 0.84116723E-01 0.16407965E+04</pdfrwt>
<totfact> 0.27710699E+01</totfact>
</mgrwt>
</event>
<event>
12    6  0.1530720E-007  0.1303951E+04  0.7818608E-02  0.9026438E-01
         -1   -1    0    0    0  501 -0.00000000000E+00  0.00000000000E+00  0.33120129263E+03  0.33120129263E+03  0.00000000000E+00 0.  1.
          2   -1    0    0  501    0  0.00000000000E+00 -0.00000000000E+00 -0.12834257361E+04  0.12834257361E+04  0.00000000000E+00 0. -1.
         24    2    1    2    0    0  0.27627162593E+03 -0.11748837125E+03 -0.10231376276E+03  0.32728943077E+03  0.80751079064E+02 0.  0.
        254    2    1    2    0    0 -0.27627162593E+03  0.11748837125E+03 -0.84991068068E+03  0.12873375979E+04  0.91910847957E+03 0.  0.
         23    2    4    4    0    0 -0.25483915209E+03  0.49477791120E+03 -0.39401267292E+03  0.68860455112E+03  0.95823100325E+02 0.  0.
         23    2    4    4    0    0 -0.21432473845E+02 -0.37728953995E+03 -0.45589800776E+03  0.59873304680E+03  0.88495875375E+02 0.  0.
          2    1    3    3  502    0  0.17474082358E+01 -0.17871026209E+02 -0.34409067559E+00  0.17959549318E+02  0.00000000000E+00 0. -1.
         -1    1    3    3    0  502  0.27452421770E+03 -0.99617345045E+02 -0.10196967208E+03  0.30932988146E+03  0.00000000000E+00 0.  1.
         11    1    5    5    0    0 -0.25826469131E+03  0.44301827521E+03 -0.36078206230E+03  0.62700043016E+03  0.00000000000E+00 0.  1.
        -11    1    5    5    0    0  0.34255392233E+01  0.51759635993E+02 -0.33230610621E+02  0.61604120961E+02  0.00000000000E+00 0. -1.
          1    1    6    6  503    0 -0.41007767742E+02 -0.77462886407E+02 -0.10463464972E+03  0.13649375703E+03  0.00000000000E+00 0. -1.
         -1    1    6    6    0  503  0.19575293896E+02 -0.29982665354E+03 -0.35126335804E+03  0.46223928977E+03  0.00000000000E+00 0.  1.
<mgrwt>
<rscale>  0 0.13039513E+04</rscale>
<asrwt>0</asrwt>
<pdfrwt beam="1">  1        2 0.19745012E+00 0.13039513E+04</pdfrwt>
<pdfrwt beam="2">  1       -1 0.50954044E-01 0.13039513E+04</pdfrwt>
<totfact> 0.73087744E+01</totfact>
</mgrwt>
</event>
<event>
12    6  0.1530720E-007  0.1351916E+04  0.7818608E-02  0.8989379E-01
          2   -1    0    0  501    0  0.00000000000E+00  0.00000000000E+00  0.13998044538E+04  0.13998044538E+04  0.00000000000E+00 0. -1.
         -1   -1    0    0    0  501 -0.00000000000E+00 -0.00000000000E+00 -0.32641654887E+03  0.32641654887E+03  0.00000000000E+00 0.  1.
         24    2    1    2    0    0 -0.34356259189E+03  0.14365848134E+03  0.23621451506E+03  0.44818330475E+03  0.79987272292E+02 0.  0.
        254    2    1    2    0    0  0.34356259189E+03 -0.14365848134E+03  0.83717338984E+03  0.12780376979E+04  0.89098151426E+03 0.  0.
         23    2    4    4    0    0 -0.90502481562E+02 -0.37124960258E+03  0.13131936627E+03  0.41401314404E+03  0.90250434326E+02 0.  0.
         23    2    4    4    0    0  0.43406507345E+03  0.22759112124E+03  0.70585402357E+03  0.86402455385E+03  0.89990669534E+02 0.  0.
          4    1    3    3  502    0 -0.42022499852E+01  0.63750551019E+01  0.23685533601E+02  0.24885834012E+02  0.00000000000E+00 0. -1.
         -3    1    3    3    0  502 -0.33936034190E+03  0.13728342624E+03  0.21252898146E+03  0.42329747074E+03  0.00000000000E+00 0.  1.
         11    1    5    5    0    0 -0.60529320360E+02 -0.31025197473E+03  0.72915275201E+02  0.32440210204E+03  0.00000000000E+00 0. -1.
        -11    1    5    5    0    0 -0.29973161201E+02 -0.60997627848E+02  0.58404091066E+02  0.89611042003E+02  0.00000000000E+00 0.  1.
          3    1    6    6  503    0  0.17318035289E+03  0.11013367473E+03  0.36747385751E+03  0.42090129115E+03  0.00000000000E+00 0. -1.
         -3    1    6    6    0  503  0.26088472055E+03  0.11745744650E+03  0.33838016606E+03  0.44312326269E+03  0.00000000000E+00 0.  1.
<mgrwt>
<rscale>  0 0.13519162E+04</rscale>
<asrwt>0</asrwt>
<pdfrwt beam="1">  1        2 0.21535453E+00 0.13519162E+04</pdfrwt>
<pdfrwt beam="2">  1       -1 0.50217931E-01 0.13519162E+04</pdfrwt>
<totfact> 0.64119758E+01</totfact>
</mgrwt>
</event>
<event>
12    6  0.1530720E-007  0.1503287E+04  0.7818608E-02  0.8882270E-01
          2   -1    0    0  501    0  0.00000000000E+00  0.00000000000E+00  0.33417379297E+03  0.33417379297E+03  0.00000000000E+00 0. -1.
         -1   -1    0    0    0  501 -0.00000000000E+00 -0.00000000000E+00 -0.16906405437E+04  0.16906405437E+04  0.00000000000E+00 0.  1.
         24    2    1    2    0    0  0.44598241790E+02  0.20958476286E+03  0.13482214123E+03  0.26664924255E+03  0.83725938596E+02 0.  0.
        254    2    1    2    0    0 -0.44598241790E+02 -0.20958476286E+03 -0.14912888919E+04  0.17581650941E+04  0.90624895192E+03 0.  0.
         23    2    4    4    0    0 -0.36417519492E+03  0.17516156385E+03 -0.79082557806E+03  0.89256384491E+03  0.89218699162E+02 0.  0.
         23    2    4    4    0    0  0.31957695313E+03 -0.38474632671E+03 -0.70046331386E+03  0.86560124916E+03  0.91964686670E+02 0.  0.
          2    1    3    3  502    0  0.25806937071E+02  0.18030050235E+03  0.14220848921E+03  0.23107904178E+03  0.00000000000E+00 0. -1.
         -1    1    3    3    0  502  0.18791304719E+02  0.29284260509E+02 -0.73863479709E+01  0.35570200772E+02  0.00000000000E+00 0.  1.
         11    1    5    5    0    0 -0.36761792839E+02  0.25861552152E+02 -0.40895556397E+02  0.60767555697E+02  0.00000000000E+00 0. -1.
        -11    1    5    5    0    0 -0.32741340209E+03  0.14930001170E+03 -0.74993002166E+03  0.83179628921E+03  0.00000000000E+00 0.  1.
          3    1    6    6  503    0  0.34977403264E+02 -0.53499353118E+02 -0.14919210990E+03  0.16230799481E+03  0.00000000000E+00 0. -1.
         -3    1    6    6    0  503  0.28459954987E+03 -0.33124697359E+03 -0.55127120397E+03  0.70329325436E+03  0.00000000000E+00 0.  1.
<mgrwt>
<rscale>  0 0.15032867E+04</rscale>
<asrwt>0</asrwt>
<pdfrwt beam="1">  1        2 0.51411353E-01 0.15032867E+04</pdfrwt>
<pdfrwt beam="2">  1       -1 0.26009854E+00 0.15032867E+04</pdfrwt>
<totfact> 0.64534008E+00</totfact>
</mgrwt>
</event>
<event>
12    6  0.1634971E-007  0.2284785E+04  0.7818608E-02  0.8483945E-01
         -1   -1    0    0    0  501 -0.00000000000E+00  0.00000000000E+00  0.54462936195E+03  0.54462936195E+03  0.00000000000E+00 0.  1.
          2   -1    0    0  501    0  0.00000000000E+00 -0.00000000000E+00 -0.23962353915E+04  0.23962353915E+04  0.00000000000E+00 0. -1.
         24    2    1    2    0    0 -0.47319551523E+03  0.81537729828E+03 -0.60582243537E+03  0.11245859761E+04  0.94438659302E+02 0.  0.
        254    2    1    2    0    0  0.47319551523E+03 -0.81537729828E+03 -0.12457835942E+04  0.18162787773E+04  0.92635722007E+03 0.  0.
         23    2    4    4    0    0 -0.15413522748E+03 -0.21174610897E+03  0.17953141881E+02  0.27892645772E+03  0.94252694935E+02 0.  0.
         23    2    4    4    0    0  0.62733074270E+03 -0.60363118931E+03 -0.12637367361E+04  0.15373523196E+04  0.92234174710E+02 0.  0.
          4    1    3    3  502    0 -0.55222149462E+00 -0.53916783923E+00 -0.81735258365E+01  0.82098827725E+01  0.00000000000E+00 0. -1.
         -3    1    3    3    0  502 -0.47264329373E+03  0.81591646612E+03 -0.59764890953E+03  0.11163760934E+04  0.00000000000E+00 0.  1.
         11    1    5    5    0    0 -0.49188588923E+02 -0.10565797254E+02 -0.63964208987E+01  0.50715555328E+02  0.00000000000E+00 0. -1.
        -11    1    5    5    0    0 -0.10494663855E+03 -0.20118031171E+03  0.24349562780E+02  0.22821090240E+03  0.00000000000E+00 0.  1.
          1    1    6    6  503    0  0.20462344702E+02 -0.21105948489E+01 -0.37491871356E+02  0.42764501389E+02  0.00000000000E+00 0. -1.
         -1    1    6    6    0  503  0.60686839800E+03 -0.60152059446E+03 -0.12262448647E+04  0.14945878182E+04  0.00000000000E+00 0.  1.
<mgrwt>
<rscale>  0 0.22847846E+04</rscale>
<asrwt>0</asrwt>
<pdfrwt beam="1">  1        2 0.36865161E+00 0.22847846E+04</pdfrwt>
<pdfrwt beam="2">  1       -1 0.83789130E-01 0.22847846E+04</pdfrwt>
<totfact> 0.58276469E+00</totfact>
</mgrwt>
</event>
<event>
12    6  0.1530720E-007  0.1736933E+04  0.7818608E-02  0.8740576E-01
         -1   -1    0    0    0  501 -0.00000000000E+00  0.00000000000E+00  0.64938510853E+03  0.64938510853E+03  0.00000000000E+00 0.  1.
          2   -1    0    0  501    0  0.00000000000E+00 -0.00000000000E+00 -0.11614593005E+04  0.11614593005E+04  0.00000000000E+00 0. -1.
         24    2    1    2    0    0  0.28766620034E+02  0.64566934656E+02  0.47324548838E+03  0.48515353509E+03  0.80101515983E+02 0.  0.
        254    2    1    2    0    0 -0.28766620034E+02 -0.64566934656E+02 -0.98531968036E+03  0.13256908740E+04  0.88408427952E+03 0.  0.
         23    2    4    4    0    0  0.57126451126E+02 -0.24723231976E+03  0.44249317730E+02  0.27266048614E+03  0.89434262075E+02 0.  0.
         23    2    4    4    0    0 -0.85893071160E+02  0.18266538510E+03 -0.10295689981E+04  0.10530303878E+04  0.90091138509E+02 0.  0.
          4    1    3    3  502    0  0.43956580928E+01 -0.18780496287E+02  0.66443227637E+02  0.69186207800E+02  0.00000000000E+00 0. -1.
         -3    1    3    3    0  502  0.24370961941E+02  0.83347430943E+02  0.40680226074E+03  0.41596732729E+03  0.00000000000E+00 0.  1.
         11    1    5    5    0    0  0.16993452453E+02 -0.21958188040E+03  0.38644855601E+02  0.22360323005E+03  0.00000000000E+00 0. -1.
        -11    1    5    5    0    0  0.40132998672E+02 -0.27650439357E+02  0.56044621290E+01  0.49057256087E+02  0.00000000000E+00 0.  1.
          1    1    6    6  503    0 -0.31394800751E+02  0.15776910636E+03 -0.72660316851E+03  0.74419680792E+03  0.00000000000E+00 0. -1.
         -1    1    6    6    0  503 -0.54498270408E+02  0.24896278743E+02 -0.30296582958E+03  0.30883357989E+03  0.00000000000E+00 0.  1.
<mgrwt>
<rscale>  0 0.17369334E+04</rscale>
<asrwt>0</asrwt>
<pdfrwt beam="1">  1        2 0.17868604E+00 0.17369334E+04</pdfrwt>
<pdfrwt beam="2">  1       -1 0.99905403E-01 0.17369334E+04</pdfrwt>
<totfact> 0.20652477E+01</totfact>
</mgrwt>
</event>
<event>
12    6  0.1530720E-007  0.4498113E+04  0.7818608E-02  0.7910967E-01
         -1   -1    0    0    0  501 -0.00000000000E+00  0.00000000000E+00  0.21068247721E+04  0.21068247721E+04  0.00000000000E+00 0.  1.
          2   -1    0    0  501    0  0.00000000000E+00 -0.00000000000E+00 -0.24008905170E+04  0.24008905170E+04  0.00000000000E+00 0. -1.
         24    2    1    2    0    0  0.27763389538E+03 -0.10330734632E+04  0.17393311304E+04  0.20437066096E+04  0.84513695715E+02 0.  0.
        254    2    1    2    0    0 -0.27763389538E+03  0.10330734632E+04 -0.20333968753E+04  0.24640086795E+04  0.89012053106E+03 0.  0.
         23    2    4    4    0    0 -0.29803534187E+02  0.11027558535E+04 -0.15034122308E+04  0.18673940689E+04  0.99767478820E+02 0.  0.
         23    2    4    4    0    0 -0.24783036120E+03 -0.69682390301E+02 -0.52998464444E+03  0.59661461051E+03  0.93753648910E+02 0.  0.
          4    1    3    3  502    0 -0.10651642528E+01 -0.42186499993E+02  0.49404508835E+02  0.64974155244E+02  0.00000000000E+00 0. -1.
         -3    1    3    3    0  502  0.27869905964E+03 -0.99088696320E+03  0.16899266216E+04  0.19787324544E+04  0.00000000000E+00 0.  1.
         11    1    5    5    0    0 -0.27075096164E+02  0.68676554538E+03 -0.85483292888E+03  0.10968679553E+04  0.00000000000E+00 0.  1.
        -11    1    5    5    0    0 -0.27284380233E+01  0.41599030812E+03 -0.64857930196E+03  0.77052611361E+03  0.00000000000E+00 0. -1.
          2    1    6    6  503    0 -0.32037411588E+02  0.11616647355E+02 -0.27668975166E+02  0.43896633399E+02  0.00000000000E+00 0. -1.
         -2    1    6    6    0  503 -0.21579294961E+03 -0.81299037656E+02 -0.50231566927E+03  0.55271797711E+03  0.00000000000E+00 0.  1.
<mgrwt>
<rscale>  0 0.44981132E+04</rscale>
<asrwt>0</asrwt>
<pdfrwt beam="1">  1        2 0.36936777E+00 0.44981132E+04</pdfrwt>
<pdfrwt beam="2">  1       -1 0.32412689E+00 0.44981132E+04</pdfrwt>
<totfact> 0.78719560E-02</totfact>
</mgrwt>
</event>
<event>
12    6  0.1530720E-007  0.1673553E+04  0.7818608E-02  0.8776593E-01
         -1   -1    0    0    0  501 -0.00000000000E+00  0.00000000000E+00  0.30756872721E+03  0.30756872721E+03  0.00000000000E+00 0.  1.
          2   -1    0    0  501    0  0.00000000000E+00 -0.00000000000E+00 -0.22765475845E+04  0.22765475845E+04  0.00000000000E+00 0. -1.
         24    2    1    2    0    0  0.31177374124E+03  0.39986354882E+03 -0.11701042279E+04  0.12777559373E+04  0.80141174174E+02 0.  0.
        254    2    1    2    0    0 -0.31177374124E+03 -0.39986354882E+03 -0.79887462941E+03  0.13063603744E+04  0.90071251289E+03 0.  0.
         23    2    4    4    0    0 -0.16939952894E+03 -0.60400505068E+03 -0.22128213166E+03  0.67091082160E+03  0.87391344508E+02 0.  0.
         23    2    4    4    0    0 -0.14237421230E+03  0.20414150185E+03 -0.57759249774E+03  0.63544955280E+03  0.90768230100E+02 0.  0.
          4    1    3    3  502    0  0.25039694875E+03  0.33852912440E+03 -0.89120776489E+03  0.98567331313E+03  0.00000000000E+00 0. -1.
         -3    1    3    3    0  502  0.61376792496E+02  0.61334424425E+02 -0.27889646299E+03  0.29208262417E+03  0.00000000000E+00 0.  1.
         11    1    5    5    0    0 -0.60369904087E+02 -0.36689620692E+03 -0.11606021954E+03  0.38952192047E+03  0.00000000000E+00 0. -1.
        -11    1    5    5    0    0 -0.10902962485E+03 -0.23710884376E+03 -0.10522191213E+03  0.28138890113E+03  0.00000000000E+00 0.  1.
          2    1    6    6  503    0 -0.13821369420E+03  0.12964588818E+03 -0.39133150318E+03  0.43480044499E+03  0.00000000000E+00 0. -1.
         -2    1    6    6    0  503 -0.41605181061E+01  0.74495613672E+02 -0.18626099457E+03  0.20064910781E+03  0.00000000000E+00 0.  1.
<mgrwt>
<rscale>  0 0.16735529E+04</rscale>
<asrwt>0</asrwt>
<pdfrwt beam="1">  1        2 0.35023809E+00 0.16735529E+04</pdfrwt>
<pdfrwt beam="2">  1       -1 0.47318266E-01 0.16735529E+04</pdfrwt>
<totfact> 0.22639413E+01</totfact>
</mgrwt>
</event>
<event>
12    6  0.1530720E-007  0.2563774E+04  0.7818608E-02  0.8380611E-01
         -1   -1    0    0    0  501 -0.00000000000E+00  0.00000000000E+00  0.11655805202E+04  0.11655805202E+04  0.00000000000E+00 0.  1.
          2   -1    0    0  501    0  0.00000000000E+00 -0.00000000000E+00 -0.14097994941E+04  0.14097994941E+04  0.00000000000E+00 0. -1.
         24    2    1    2    0    0  0.55320826042E+03 -0.30427274636E+02  0.87325271083E+03  0.10376381742E+04  0.84601922035E+02 0.  0.
        254    2    1    2    0    0 -0.55320826042E+03  0.30427274636E+02 -0.11174716847E+04  0.15377418400E+04  0.89941192002E+03 0.  0.
         23    2    4    4    0    0 -0.23493837454E+03  0.41977506620E+03 -0.79468536933E+03  0.93322175221E+03  0.89279653534E+02 0.  0.
         23    2    4    4    0    0 -0.31826988588E+03 -0.38934779157E+03 -0.32278631539E+03  0.60452008778E+03  0.91466431402E+02 0.  0.
          4    1    3    3  502    0  0.28006991199E+03 -0.39331694051E+02  0.50861091376E+03  0.58195463685E+03  0.00000000000E+00 0. -1.
         -3    1    3    3    0  502  0.27313834842E+03  0.89044194152E+01  0.36464179708E+03  0.45568353738E+03  0.00000000000E+00 0.  1.
         11    1    5    5    0    0 -0.70893695770E+02  0.58676404388E+02 -0.13188439666E+03  0.16081769372E+03  0.00000000000E+00 0. -1.
        -11    1    5    5    0    0 -0.16404467877E+03  0.36109866181E+03 -0.66280097267E+03  0.77240405849E+03  0.00000000000E+00 0.  1.
          4    1    6    6  503    0 -0.16145074795E+03 -0.26242361812E+03 -0.21573229317E+03  0.37612886313E+03  0.00000000000E+00 0. -1.
         -4    1    6    6    0  503 -0.15681913793E+03 -0.12692417345E+03 -0.10705402222E+03  0.22839122466E+03  0.00000000000E+00 0.  1.
<mgrwt>
<rscale>  0 0.25637744E+04</rscale>
<asrwt>0</asrwt>
<pdfrwt beam="1">  1        2 0.21689223E+00 0.25637744E+04</pdfrwt>
<pdfrwt beam="2">  1       -1 0.17932008E+00 0.25637744E+04</pdfrwt>
<totfact> 0.30387143E+00</totfact>
</mgrwt>
</event>
<event>
12    6  0.1530720E-007  0.1808530E+04  0.7818608E-02  0.8701777E-01
         -1   -1    0    0    0  501 -0.00000000000E+00  0.00000000000E+00  0.44089182202E+03  0.44089182202E+03  0.00000000000E+00 0.  1.
          2   -1    0    0  501    0  0.00000000000E+00 -0.00000000000E+00 -0.18546383832E+04  0.18546383832E+04  0.00000000000E+00 0. -1.
         24    2    1    2    0    0  0.25758378602E+03 -0.42117818623E+03 -0.11017667337E+04  0.12115189264E+04  0.10073580399E+03 0.  0.
        254    2    1    2    0    0 -0.25758378602E+03  0.42117818623E+03 -0.31197982753E+03  0.10840112788E+04  0.91324069582E+03 0.  0.
         23    2    4    4    0    0 -0.75024198291E+02  0.20939451808E+03 -0.61631003539E+03  0.66111263977E+03  0.88074787562E+02 0.  0.
         23    2    4    4    0    0 -0.18255958773E+03  0.21178366815E+03  0.30433020787E+03  0.42289863908E+03  0.89699823546E+02 0.  0.
          4    1    3    3  502    0  0.14212195628E+03 -0.24143467016E+03 -0.74166792577E+03  0.79281817747E+03  0.00000000000E+00 0. -1.
         -1    1    3    3    0  502  0.11546182974E+03 -0.17974351607E+03 -0.36009880790E+03  0.41870074892E+03  0.00000000000E+00 0.  1.
         11    1    5    5    0    0 -0.45829418015E+02  0.19557736602E+03 -0.46735469677E+03  0.50869564009E+03  0.00000000000E+00 0. -1.
        -11    1    5    5    0    0 -0.29194780276E+02  0.13817152062E+02 -0.14895533862E+03  0.15241699968E+03  0.00000000000E+00 0.  1.
          2    1    6    6  503    0 -0.15569642271E+03  0.17103970324E+03  0.19262813135E+03  0.30100091879E+03  0.00000000000E+00 0. -1.
         -2    1    6    6    0  503 -0.26863165022E+02  0.40743964915E+02  0.11170207652E+03  0.12189772028E+03  0.00000000000E+00 0.  1.
<mgrwt>
<rscale>  0 0.18085297E+04</rscale>
<asrwt>0</asrwt>
<pdfrwt beam="1">  1        2 0.28532898E+00 0.18085297E+04</pdfrwt>
<pdfrwt beam="2">  1       -1 0.67829512E-01 0.18085297E+04</pdfrwt>
<totfact> 0.19027448E+01</totfact>
</mgrwt>
</event>
<event>
12    6  0.1530720E-007  0.1796832E+04  0.7818608E-02  0.8707986E-01
          2   -1    0    0  501    0  0.00000000000E+00  0.00000000000E+00  0.11635804235E+04  0.11635804235E+04  0.00000000000E+00 0. -1.
         -1   -1    0    0    0  501 -0.00000000000E+00 -0.00000000000E+00 -0.69367927911E+03  0.69367927911E+03  0.00000000000E+00 0.  1.
         24    2    1    2    0    0  0.89121443938E+02  0.65160541278E+03  0.11451503372E+03  0.67311891359E+03  0.86273594804E+02 0.  0.
        254    2    1    2    0    0 -0.89121443938E+02 -0.65160541278E+03  0.35538611065E+03  0.11841407890E+04  0.91834518281E+03 0.  0.
         23    2    4    4    0    0 -0.36674070424E+03  0.10668320078E+02  0.60231356989E+00  0.37781443756E+03  0.90171110951E+02 0.  0.
         23    2    4    4    0    0  0.27761926030E+03 -0.66227373285E+03  0.35478379708E+03  0.80632635144E+03  0.92799199511E+02 0.  0.
          2    1    3    3  502    0 -0.94086477861E+01  0.23909186391E+02 -0.60560299678E+01  0.26397866316E+02  0.00000000000E+00 0. -1.
         -1    1    3    3    0  502  0.98530091724E+02  0.62769622639E+03  0.12057106369E+03  0.64672104728E+03  0.00000000000E+00 0.  1.
         11    1    5    5    0    0 -0.29414308642E+02 -0.20984383748E+02  0.13979195782E+02  0.38742274441E+02  0.00000000000E+00 0. -1.
        -11    1    5    5    0    0 -0.33732639560E+03  0.31652703826E+02 -0.13376882212E+02  0.33907216312E+03  0.00000000000E+00 0.  1.
          3    1    6    6  503    0  0.15651990556E+02 -0.13849744036E+02 -0.24205740604E+01  0.21039472355E+02  0.00000000000E+00 0. -1.
         -3    1    6    6    0  503  0.26196726974E+03 -0.64842398882E+03  0.35720437115E+03  0.78528687908E+03  0.00000000000E+00 0.  1.
<mgrwt>
<rscale>  0 0.17968324E+04</rscale>
<asrwt>0</asrwt>
<pdfrwt beam="1">  1        2 0.17901237E+00 0.17968324E+04</pdfrwt>
<pdfrwt beam="2">  1       -1 0.10671989E+00 0.17968324E+04</pdfrwt>
<totfact> 0.17584569E+01</totfact>
</mgrwt>
</event>
<event>
12    6  0.1530720E-007  0.1398544E+04  0.7818608E-02  0.8954873E-01
         -1   -1    0    0    0  501 -0.00000000000E+00  0.00000000000E+00  0.28049604773E+03  0.28049604773E+03  0.00000000000E+00 0.  1.
          2   -1    0    0  501    0  0.00000000000E+00 -0.00000000000E+00 -0.17432728185E+04  0.17432728185E+04  0.00000000000E+00 0. -1.
         24    2    1    2    0    0  0.76665096090E+02 -0.20573840446E+03 -0.91321293467E+03  0.94252435974E+03  0.78666871282E+02 0.  0.
        254    2    1    2    0    0 -0.76665096090E+02  0.20573840446E+03 -0.54956383605E+03  0.10812445064E+04  0.90491073857E+03 0.  0.
         23    2    4    4    0    0 -0.19855560009E+03 -0.58222881596E+02 -0.70600099140E+03  0.74096124645E+03  0.88158599207E+02 0.  0.
         23    2    4    4    0    0  0.12189050400E+03  0.26396128606E+03  0.15643715535E+03  0.34028325999E+03  0.82384816277E+02 0.  0.
          4    1    3    3  502    0  0.62201936930E+02 -0.20594171597E+03 -0.88556514550E+03  0.91132140228E+03  0.00000000000E+00 0. -1.
         -3    1    3    3    0  502  0.14463159160E+02  0.20331150831E+00 -0.27647789168E+02  0.31202957461E+02  0.00000000000E+00 0.  1.
         11    1    5    5    0    0 -0.18025617809E+03 -0.66930733967E+02 -0.68618980511E+03  0.71262083995E+03  0.00000000000E+00 0.  1.
        -11    1    5    5    0    0 -0.18299422003E+02  0.87078523707E+01 -0.19811186286E+02  0.28340406500E+02  0.00000000000E+00 0. -1.
          1    1    6    6  503    0  0.22094464513E+02  0.30259910342E+02 -0.70405786238E+01  0.38123447947E+02  0.00000000000E+00 0. -1.
         -1    1    6    6    0  503  0.99796039490E+02  0.23370137572E+03  0.16347773397E+03  0.30215981204E+03  0.00000000000E+00 0.  1.
<mgrwt>
<rscale>  0 0.13985437E+04</rscale>
<asrwt>0</asrwt>
<pdfrwt beam="1">  1        2 0.26819582E+00 0.13985437E+04</pdfrwt>
<pdfrwt beam="2">  1       -1 0.43153239E-01 0.13985437E+04</pdfrwt>
<totfact> 0.54482163E+01</totfact>
</mgrwt>
</event>
<event>
12    6  0.1530720E-007  0.2223417E+04  0.7818608E-02  0.8508744E-01
         -1   -1    0    0    0  501 -0.00000000000E+00  0.00000000000E+00  0.67724929123E+03  0.67724929123E+03  0.00000000000E+00 0.  1.
          2   -1    0    0  501    0  0.00000000000E+00 -0.00000000000E+00 -0.18248750094E+04  0.18248750094E+04  0.00000000000E+00 0. -1.
         24    2    1    2    0    0  0.20813364953E+03  0.12380838466E+03  0.52521791466E+03  0.58398796169E+03  0.80869953295E+02 0.  0.
        254    2    1    2    0    0 -0.20813364953E+03 -0.12380838466E+03 -0.16728436328E+04  0.19181363389E+04  0.90674862155E+03 0.  0.
         23    2    4    4    0    0 -0.51686081199E+03 -0.60899676436E+02 -0.13831443623E+04  0.14805852854E+04  0.90501883961E+02 0.  0.
         23    2    4    4    0    0  0.30872716246E+03 -0.62908708221E+02 -0.28969927056E+03  0.43755105350E+03  0.90858630021E+02 0.  0.
          2    1    3    3  502    0  0.30207027354E+02  0.54186297075E+02  0.16420160329E+03  0.17553001400E+03  0.00000000000E+00 0. -1.
         -1    1    3    3    0  502  0.17792662218E+03  0.69622087582E+02  0.36101631137E+03  0.40845794769E+03  0.00000000000E+00 0.  1.
         11    1    5    5    0    0 -0.62277970468E+02  0.19212748120E+02 -0.13739738946E+03  0.15207142376E+03  0.00000000000E+00 0.  1.
        -11    1    5    5    0    0 -0.45458284153E+03 -0.80112424557E+02 -0.12457469728E+04  0.13285138617E+04  0.00000000000E+00 0. -1.
          4    1    6    6  503    0  0.29377237928E+03 -0.74356456492E+02 -0.24722955929E+03  0.39109276193E+03  0.00000000000E+00 0. -1.
         -4    1    6    6    0  503  0.14954783181E+02  0.11447748272E+02 -0.42469711268E+02  0.46458291571E+02  0.00000000000E+00 0.  1.
<mgrwt>
<rscale>  0 0.22234166E+04</rscale>
<asrwt>0</asrwt>
<pdfrwt beam="1">  1        2 0.28075000E+00 0.22234166E+04</pdfrwt>
<pdfrwt beam="2">  1       -1 0.10419220E+00 0.22234166E+04</pdfrwt>
<totfact> 0.75250231E+00</totfact>
</mgrwt>
</event>
<event>
12    6  0.1530720E-007  0.1343856E+04  0.7818608E-02  0.8995492E-01
         -1   -1    0    0    0  501 -0.00000000000E+00  0.00000000000E+00  0.70832533367E+03  0.70832533367E+03  0.00000000000E+00 0.  1.
          2   -1    0    0  501    0  0.00000000000E+00 -0.00000000000E+00 -0.63740118838E+03  0.63740118838E+03  0.00000000000E+00 0. -1.
         24    2    1    2    0    0 -0.17810621084E+03  0.30335337206E+03  0.88945695551E+02  0.36800186908E+03  0.61391760112E+02 0.  0.
        254    2    1    2    0    0  0.17810621084E+03 -0.30335337206E+03 -0.18021550256E+02  0.97772465297E+03  0.91207216276E+03 0.  0.
         23    2    4    4    0    0  0.81632942384E+02  0.18357126466E+03 -0.32061310425E+03  0.38917258201E+03  0.91105375706E+02 0.  0.
         23    2    4    4    0    0  0.96473268452E+02 -0.48692463672E+03  0.30259155399E+03  0.58855207096E+03  0.91810665576E+02 0.  0.
          2    1    3    3  502    0 -0.13131587441E+02  0.18358923380E+02  0.22880059847E+02  0.32140096375E+02  0.00000000000E+00 0. -1.
         -1    1    3    3    0  502 -0.16497462340E+03  0.28499444868E+03  0.66065635704E+02  0.33586177270E+03  0.00000000000E+00 0.  1.
         11    1    5    5    0    0  0.92695301780E+02  0.11982037063E+03 -0.25767540328E+03  0.29890793506E+03  0.00000000000E+00 0. -1.
        -11    1    5    5    0    0 -0.11062359396E+02  0.63750894031E+02 -0.62937700970E+02  0.90264646947E+02  0.00000000000E+00 0.  1.
          3    1    6    6  503    0  0.10746363854E+03 -0.46334254015E+03  0.27028892721E+03  0.54707480959E+03  0.00000000000E+00 0. -1.
         -3    1    6    6    0  503 -0.10990370092E+02 -0.23582096575E+02  0.32302626782E+02  0.41477261369E+02  0.00000000000E+00 0.  1.
<mgrwt>
<rscale>  0 0.13438563E+04</rscale>
<asrwt>0</asrwt>
<pdfrwt beam="1">  1        2 0.98061721E-01 0.13438563E+04</pdfrwt>
<pdfrwt beam="2">  1       -1 0.10897313E+00 0.13438563E+04</pdfrwt>
<totfact> 0.40149669E+01</totfact>
</mgrwt>
</event>
<event>
12    6  0.1530720E-007  0.2095858E+04  0.7818608E-02  0.8563070E-01
         -1   -1    0    0    0  501 -0.00000000000E+00  0.00000000000E+00  0.33815564016E+03  0.33815564016E+03  0.00000000000E+00 0.  1.
          2   -1    0    0  501    0  0.00000000000E+00 -0.00000000000E+00 -0.32474843249E+04  0.32474843249E+04  0.00000000000E+00 0. -1.
         24    2    1    2    0    0 -0.10444954181E+03 -0.45956945272E+03  0.28845365510E+02  0.47852660327E+03  0.77729442694E+02 0.  0.
        254    2    1    2    0    0  0.10444954181E+03  0.45956945272E+03 -0.29381740503E+04  0.31071133618E+04  0.89396471115E+03 0.  0.
         23    2    4    4    0    0 -0.84701451684E+02  0.17519933222E+03 -0.85104277367E+02  0.23219415514E+03  0.93820284195E+02 0.  0.
         23    2    4    4    0    0  0.18915099349E+03  0.28437012050E+03 -0.28530697729E+04  0.28749192067E+04  0.92243438952E+02 0.  0.
          2    1    3    3  502    0 -0.47021263440E+01 -0.14315333275E+02 -0.13558896071E+02  0.20270234868E+02  0.00000000000E+00 0. -1.
         -1    1    3    3    0  502 -0.99747415466E+02 -0.44525411945E+03  0.42404261581E+02  0.45825636840E+03  0.00000000000E+00 0.  1.
         11    1    5    5    0    0 -0.28347602880E+02  0.85586276486E+02  0.89310705286E+01  0.90600007354E+02  0.00000000000E+00 0. -1.
        -11    1    5    5    0    0 -0.56353848805E+02  0.89613055738E+02 -0.94035347896E+02  0.14159414779E+03  0.00000000000E+00 0.  1.
          2    1    6    6  503    0  0.19960998068E+03  0.27274868928E+03 -0.27087653519E+04  0.27297702694E+04  0.00000000000E+00 0. -1.
         -2    1    6    6    0  503 -0.10458987187E+02  0.11621431217E+02 -0.14430442098E+03  0.14514893727E+03  0.00000000000E+00 0.  1.
<mgrwt>
<rscale>  0 0.20958580E+04</rscale>
<asrwt>0</asrwt>
<pdfrwt beam="1">  1        2 0.49961296E+00 0.20958580E+04</pdfrwt>
<pdfrwt beam="2">  1       -1 0.52023946E-01 0.20958580E+04</pdfrwt>
<totfact> 0.47249070E+00</totfact>
</mgrwt>
</event>
<event>
12    6  0.1530720E-007  0.1629051E+04  0.7818608E-02  0.8802897E-01
          2   -1    0    0  501    0  0.00000000000E+00  0.00000000000E+00  0.20439445804E+04  0.20439445804E+04  0.00000000000E+00 0. -1.
         -1   -1    0    0    0  501 -0.00000000000E+00 -0.00000000000E+00 -0.32459398289E+03  0.32459398289E+03  0.00000000000E+00 0.  1.
         24    2    1    2    0    0  0.23454918050E+03  0.43876237313E+03  0.22479888216E+03  0.55132286435E+03  0.76789486205E+02 0.  0.
        254    2    1    2    0    0 -0.23454918050E+03 -0.43876237313E+03  0.14945517154E+04  0.18172156990E+04  0.90612489675E+03 0.  0.
         23    2    4    4    0    0  0.71565302916E+02 -0.43229974223E+03  0.14202590270E+04  0.14889912029E+04  0.89187661021E+02 0.  0.
         23    2    4    4    0    0 -0.30611448342E+03 -0.64626309045E+01  0.74292688385E+02  0.32822449606E+03  0.92000400610E+02 0.  0.
          2    1    3    3  502    0  0.17380371021E+02  0.59913407117E+02  0.53725415308E+02  0.82329301583E+02  0.00000000000E+00 0. -1.
         -1    1    3    3    0  502  0.21716880948E+03  0.37884896601E+03  0.17107346685E+03  0.46899356277E+03  0.00000000000E+00 0.  1.
         11    1    5    5    0    0  0.32462842148E+02 -0.27592442006E+03  0.10285772687E+04  0.10654385573E+04  0.00000000000E+00 0.  1.
        -11    1    5    5    0    0  0.39102460768E+02 -0.15637532216E+03  0.39168175832E+03  0.42355264563E+03  0.00000000000E+00 0. -1.
          1    1    6    6  503    0 -0.52016460352E+02  0.32386510637E+02  0.24534151042E+01  0.61323873527E+02  0.00000000000E+00 0. -1.
         -1    1    6    6    0  503 -0.25409802306E+03 -0.38849141541E+02  0.71839273281E+02  0.26690062253E+03  0.00000000000E+00 0.  1.
<mgrwt>
<rscale>  0 0.16290514E+04</rscale>
<asrwt>0</asrwt>
<pdfrwt beam="1">  1        2 0.31445300E+00 0.16290514E+04</pdfrwt>
<pdfrwt beam="2">  1       -1 0.49937537E-01 0.16290514E+04</pdfrwt>
<totfact> 0.27697014E+01</totfact>
</mgrwt>
</event>
<event>
12    6  0.1530720E-007  0.1571274E+04  0.7818608E-02  0.8838392E-01
         -1   -1    0    0    0  501 -0.00000000000E+00  0.00000000000E+00  0.87991962846E+03  0.87991962846E+03  0.00000000000E+00 0.  1.
          2   -1    0    0  501    0  0.00000000000E+00 -0.00000000000E+00 -0.70145697122E+03  0.70145697122E+03  0.00000000000E+00 0. -1.
         24    2    1    2    0    0  0.44793179325E+03  0.25357097360E+03  0.17645385803E+03  0.55027345623E+03  0.81998674117E+02 0.  0.
        254    2    1    2    0    0 -0.44793179325E+03 -0.25357097360E+03  0.20087992097E+01  0.10311031435E+04  0.89343635873E+03 0.  0.
         23    2    4    4    0    0 -0.12685191913E+03 -0.28424909804E+03  0.39711285217E+03  0.51270783857E+03  0.91004127626E+02 0.  0.
         23    2    4    4    0    0 -0.32107987412E+03  0.30678124439E+02 -0.39510405296E+03  0.51839530489E+03  0.92698687000E+02 0.  0.
          4    1    3    3  502    0  0.36874576990E+03  0.22879884234E+03  0.17317404217E+03  0.46723827108E+03  0.00000000000E+00 0. -1.
         -3    1    3    3    0  502  0.79186023348E+02  0.24772131261E+02  0.32798158592E+01  0.83035185151E+02  0.00000000000E+00 0.  1.
         11    1    5    5    0    0 -0.59845380307E+02 -0.48596061190E+02  0.70869233521E+02  0.10471625933E+03  0.00000000000E+00 0.  1.
        -11    1    5    5    0    0 -0.67006538820E+02 -0.23565303685E+03  0.32624361865E+03  0.40799157924E+03  0.00000000000E+00 0. -1.
          1    1    6    6  503    0 -0.18503005742E+03  0.48744885487E+02 -0.28074883851E+03  0.33975299312E+03  0.00000000000E+00 0. -1.
         -1    1    6    6    0  503 -0.13604981670E+03 -0.18066761047E+02 -0.11435521446E+03  0.17864231177E+03  0.00000000000E+00 0.  1.
<mgrwt>
<rscale>  0 0.15712743E+04</rscale>
<asrwt>0</asrwt>
<pdfrwt beam="1">  1        2 0.10791646E+00 0.15712743E+04</pdfrwt>
<pdfrwt beam="2">  1       -1 0.13537225E+00 0.15712743E+04</pdfrwt>
<totfact> 0.20519262E+01</totfact>
</mgrwt>
</event>
<event>
12    6  0.1530720E-007  0.2404041E+04  0.7818608E-02  0.8437992E-01
          2   -1    0    0  501    0  0.00000000000E+00  0.00000000000E+00  0.24075628077E+04  0.24075628077E+04  0.00000000000E+00 0. -1.
         -1   -1    0    0    0  501 -0.00000000000E+00 -0.00000000000E+00 -0.60013127679E+03  0.60013127679E+03  0.00000000000E+00 0.  1.
         24    2    1    2    0    0  0.81705195230E+02 -0.38182871894E+03 -0.41893635629E+03  0.57879964030E+03  0.83859665207E+02 0.  0.
        254    2    1    2    0    0 -0.81705195230E+02  0.38182871894E+03  0.22263678872E+04  0.24288944442E+04  0.88901369073E+03 0.  0.
         23    2    4    4    0    0 -0.28699711527E+03  0.47400115229E+03  0.20561637968E+04  0.21320082833E+04  0.10298215380E+03 0.  0.
         23    2    4    4    0    0  0.20529192004E+03 -0.92172433348E+02  0.17020409034E+03  0.29688616089E+03  0.92365741771E+02 0.  0.
          2    1    3    3  502    0  0.63343526668E+02 -0.15477571328E+03 -0.13596721491E+03  0.21553423701E+03  0.00000000000E+00 0. -1.
         -1    1    3    3    0  502  0.18361668562E+02 -0.22705300565E+03 -0.28296914138E+03  0.36326540328E+03  0.00000000000E+00 0.  1.
         11    1    5    5    0    0 -0.24115105189E+03  0.38063478418E+03  0.17997708672E+04  0.18553198762E+04  0.00000000000E+00 0.  1.
        -11    1    5    5    0    0 -0.45846063385E+02  0.93366368106E+02  0.25639292965E+03  0.27668840705E+03  0.00000000000E+00 0. -1.
          3    1    6    6  503    0  0.16533768602E+02 -0.44629461177E+02  0.44607366537E+02  0.65230142254E+02  0.00000000000E+00 0. -1.
         -3    1    6    6    0  503  0.18875815144E+03 -0.47542972172E+02  0.12559672381E+03  0.23165601863E+03  0.00000000000E+00 0.  1.
<mgrwt>
<rscale>  0 0.24040414E+04</rscale>
<asrwt>0</asrwt>
<pdfrwt beam="1">  1        2 0.37039427E+00 0.24040414E+04</pdfrwt>
<pdfrwt beam="2">  1       -1 0.92327890E-01 0.24040414E+04</pdfrwt>
<totfact> 0.45934874E+00</totfact>
</mgrwt>
</event>
<event>
12    6  0.1530720E-007  0.1909185E+04  0.7818608E-02  0.8650298E-01
          2   -1    0    0  501    0  0.00000000000E+00  0.00000000000E+00  0.27819625920E+04  0.27819625920E+04  0.00000000000E+00 0. -1.
         -3   -1    0    0    0  501 -0.00000000000E+00 -0.00000000000E+00 -0.32755533794E+03  0.32755533794E+03  0.00000000000E+00 0.  1.
         24    2    1    2    0    0 -0.60122897774E+03  0.27853168844E+03  0.14946006703E+04  0.16367822739E+04  0.78542111770E+02 0.  0.
        254    2    1    2    0    0  0.60122897774E+03 -0.27853168844E+03  0.95980658378E+03  0.14727356561E+04  0.89925827730E+03 0.  0.
         23    2    4    4    0    0  0.37515365969E+03 -0.59708381350E+03  0.54232609659E+03  0.89410588596E+03  0.89768544281E+02 0.  0.
         23    2    4    4    0    0  0.22607531805E+03  0.31855212507E+03  0.41748048719E+03  0.57862977012E+03  0.89089549716E+02 0.  0.
          2    1    3    3  502    0 -0.39999787603E+03  0.19787227518E+03  0.91666737458E+03  0.10195247980E+04  0.00000000000E+00 0. -1.
         -1    1    3    3    0  502 -0.20123110171E+03  0.80659413252E+02  0.57793329571E+03  0.61725747588E+03  0.00000000000E+00 0.  1.
         11    1    5    5    0    0  0.16728938774E+03 -0.32728679985E+03  0.24249799882E+03  0.44034948398E+03  0.00000000000E+00 0.  1.
        -11    1    5    5    0    0  0.20786427195E+03 -0.26979701365E+03  0.29982809777E+03  0.45375640198E+03  0.00000000000E+00 0. -1.
          3    1    6    6  503    0  0.27911549458E+02  0.32054833150E+02  0.12215578282E+02  0.44224283761E+02  0.00000000000E+00 0. -1.
         -3    1    6    6    0  503  0.19816376859E+03  0.28649729192E+03  0.40526490891E+03  0.53440548636E+03  0.00000000000E+00 0.  1.
<mgrwt>
<rscale>  0 0.19091848E+04</rscale>
<asrwt>0</asrwt>
<pdfrwt beam="1">  1        2 0.42799423E+00 0.19091848E+04</pdfrwt>
<pdfrwt beam="2">  1       -3 0.50393131E-01 0.19091848E+04</pdfrwt>
<totfact> 0.55970176E+00</totfact>
</mgrwt>
</event>
<event>
12    6  0.1530720E-007  0.3826290E+04  0.7818608E-02  0.8040537E-01
          2   -1    0    0  501    0  0.00000000000E+00  0.00000000000E+00  0.30880917617E+04  0.30880917617E+04  0.00000000000E+00 0. -1.
         -1   -1    0    0    0  501 -0.00000000000E+00 -0.00000000000E+00 -0.11852378955E+04  0.11852378955E+04  0.00000000000E+00 0.  1.
         24    2    1    2    0    0 -0.16111281026E+04 -0.81314072557E+03  0.95362144621E+03  0.20426686628E+04  0.78548080658E+02 0.  0.
        254    2    1    2    0    0  0.16111281026E+04  0.81314072557E+03  0.94923241997E+03  0.22306609944E+04  0.90436424202E+03 0.  0.
         23    2    4    4    0    0  0.92444425100E+03  0.32775126146E+03  0.97295406424E+03  0.13845514387E+04  0.91241507709E+02 0.  0.
         23    2    4    4    0    0  0.68668385158E+03  0.48538946411E+03 -0.23721644275E+02  0.84610955567E+03  0.90559482613E+02 0.  0.
          2    1    3    3  502    0 -0.45009237247E+03 -0.21736666446E+03  0.30298329820E+03  0.58449147946E+03  0.00000000000E+00 0. -1.
         -1    1    3    3    0  502 -0.11610357301E+04 -0.59577406111E+03  0.65063814801E+03  0.14581771834E+04  0.00000000000E+00 0.  1.
         11    1    5    5    0    0  0.27787177131E+03  0.77699128723E+02  0.33881052451E+03  0.44501960340E+03  0.00000000000E+00 0. -1.
        -11    1    5    5    0    0  0.64657247969E+03  0.25005213274E+03  0.63414353973E+03  0.93953183531E+03  0.00000000000E+00 0.  1.
          2    1    6    6  503    0  0.51427502496E+03  0.35418423857E+03  0.21394675800E+02  0.62480637665E+03  0.00000000000E+00 0. -1.
         -2    1    6    6    0  503  0.17240882662E+03  0.13120522555E+03 -0.45116320074E+02  0.22130317902E+03  0.00000000000E+00 0.  1.
<mgrwt>
<rscale>  0 0.38262898E+04</rscale>
<asrwt>0</asrwt>
<pdfrwt beam="1">  1        2 0.47509104E+00 0.38262898E+04</pdfrwt>
<pdfrwt beam="2">  1       -1 0.18234429E+00 0.38262898E+04</pdfrwt>
<totfact> 0.27831969E-01</totfact>
</mgrwt>
</event>
<event>
12    6  0.1530720E-007  0.1803375E+04  0.7818608E-02  0.8704507E-01
         -1   -1    0    0    0  501 -0.00000000000E+00  0.00000000000E+00  0.35749058372E+03  0.35749058372E+03  0.00000000000E+00 0.  1.
          2   -1    0    0  501    0  0.00000000000E+00 -0.00000000000E+00 -0.22742978548E+04  0.22742978548E+04  0.00000000000E+00 0. -1.
         24    2    1    2    0    0 -0.17565187130E+03  0.42933173193E+03 -0.14333035944E+04  0.15086198057E+04  0.79970046414E+02 0.  0.
        254    2    1    2    0    0  0.17565187130E+03 -0.42933173193E+03 -0.48350367660E+03  0.11231686328E+04  0.90141702695E+03 0.  0.
         23    2    4    4    0    0  0.26171240075E+03 -0.20012718279E+03 -0.70311108521E+03  0.78175386130E+03  0.90717316533E+02 0.  0.
         23    2    4    4    0    0 -0.86060529446E+02 -0.22920454915E+03  0.21960740861E+03  0.34141477149E+03  0.91626918524E+02 0.  0.
          2    1    3    3  502    0 -0.16664472793E+03  0.43034641341E+03 -0.13996424438E+04  0.14737596382E+04  0.00000000000E+00 0. -1.
         -1    1    3    3    0  502 -0.90071433715E+01 -0.10146814722E+01 -0.33661150681E+02  0.34860167460E+02  0.00000000000E+00 0.  1.
         11    1    5    5    0    0  0.22515128141E+03 -0.12481591732E+03 -0.54943097905E+03  0.60675078366E+03  0.00000000000E+00 0. -1.
        -11    1    5    5    0    0  0.36561119340E+02 -0.75311265466E+02 -0.15368010616E+03  0.17500307764E+03  0.00000000000E+00 0.  1.
          3    1    6    6  503    0 -0.78326331503E+01 -0.11192945410E+02 -0.86926508502E+01  0.16192416367E+02  0.00000000000E+00 0. -1.
         -3    1    6    6    0  503 -0.78227896296E+02 -0.21801160374E+03  0.22830005946E+03  0.32522235513E+03  0.00000000000E+00 0.  1.
<mgrwt>
<rscale>  0 0.18033747E+04</rscale>
<asrwt>0</asrwt>
<pdfrwt beam="1">  1        2 0.34989197E+00 0.18033747E+04</pdfrwt>
<pdfrwt beam="2">  1       -1 0.54998552E-01 0.18033747E+04</pdfrwt>
<totfact> 0.16842884E+01</totfact>
</mgrwt>
</event>
<event>
12    6  0.1530720E-007  0.1469544E+04  0.7818608E-02  0.8904963E-01
         -1   -1    0    0    0  501 -0.00000000000E+00  0.00000000000E+00  0.52847382793E+03  0.52847382793E+03  0.00000000000E+00 0.  1.
          2   -1    0    0  501    0  0.00000000000E+00 -0.00000000000E+00 -0.10216013799E+04  0.10216013799E+04  0.00000000000E+00 0. -1.
         24    2    1    2    0    0  0.39895475422E+03 -0.16596235519E+03 -0.63118680553E+01  0.43967357372E+03  0.81022296279E+02 0.  0.
        254    2    1    2    0    0 -0.39895475422E+03  0.16596235519E+03 -0.48681568396E+03  0.11104016342E+04  0.89960762543E+03 0.  0.
         23    2    4    4    0    0 -0.37717268125E+03  0.14897218232E+03 -0.73479434467E+03  0.84398704322E+03  0.89103633915E+02 0.  0.
         23    2    4    4    0    0 -0.21782072968E+02  0.16990172864E+02  0.24797866071E+03  0.26641459094E+03  0.93381975890E+02 0.  0.
          4    1    3    3  502    0  0.27747128789E+03 -0.11082309387E+03 -0.41619778787E+02  0.30166915607E+03  0.00000000000E+00 0. -1.
         -3    1    3    3    0  502  0.12148346632E+03 -0.55139261315E+02  0.35307910731E+02  0.13800441764E+03  0.00000000000E+00 0.  1.
         11    1    5    5    0    0 -0.22733107945E+03  0.10275780431E+03 -0.36284209175E+03  0.44033279412E+03  0.00000000000E+00 0.  1.
        -11    1    5    5    0    0 -0.14984160179E+03  0.46214378013E+02 -0.37195225292E+03  0.40365424910E+03  0.00000000000E+00 0. -1.
          3    1    6    6  503    0  0.20299378495E+02  0.24863346738E+02  0.19809540829E+03  0.20067895148E+03  0.00000000000E+00 0. -1.
         -3    1    6    6    0  503 -0.42081451463E+02 -0.78731738745E+01  0.49883252416E+02  0.65735639464E+02  0.00000000000E+00 0.  1.
<mgrwt>
<rscale>  0 0.14695436E+04</rscale>
<asrwt>0</asrwt>
<pdfrwt beam="1">  1        2 0.15716944E+00 0.14695436E+04</pdfrwt>
<pdfrwt beam="2">  1       -1 0.81303666E-01 0.14695436E+04</pdfrwt>
<totfact> 0.40627529E+01</totfact>
</mgrwt>
</event>
<event>
12    6  0.1530720E-007  0.1350912E+04  0.7818608E-02  0.8990138E-01
         -1   -1    0    0    0  501 -0.00000000000E+00  0.00000000000E+00  0.40553150035E+03  0.40553150035E+03  0.00000000000E+00 0.  1.
          2   -1    0    0  501    0  0.00000000000E+00 -0.00000000000E+00 -0.11250432529E+04  0.11250432529E+04  0.00000000000E+00 0. -1.
         24    2    1    2    0    0 -0.17647130163E+03  0.98048541555E+01 -0.59561052628E+03  0.62651705905E+03  0.80829888012E+02 0.  0.
        254    2    1    2    0    0  0.17647130163E+03 -0.98048541555E+01 -0.12390122626E+03  0.90405769419E+03  0.87791260675E+03 0.  0.
         23    2    4    4    0    0 -0.30752312212E+02 -0.33357821924E+03 -0.31382168669E+03  0.46792666939E+03  0.90836027147E+02 0.  0.
         23    2    4    4    0    0  0.20722361384E+03  0.32377336509E+03  0.18992046043E+03  0.43613102480E+03  0.79810221317E+02 0.  0.
          4    1    3    3  502    0 -0.14527952448E+03 -0.22095180889E+02 -0.40745387395E+03  0.43314315953E+03  0.00000000000E+00 0. -1.
         -3    1    3    3    0  502 -0.31191777150E+02  0.31900035044E+02 -0.18815665233E+03  0.19337389952E+03  0.00000000000E+00 0.  1.
         11    1    5    5    0    0 -0.24132335903E+02 -0.32214909666E+03 -0.31874687507E+03  0.45383034328E+03  0.00000000000E+00 0. -1.
        -11    1    5    5    0    0 -0.66199763089E+01 -0.11429122583E+02  0.49251883734E+01  0.14096326112E+02  0.00000000000E+00 0.  1.
          4    1    6    6  503    0  0.14213087811E+03  0.26261173423E+03  0.11656970139E+03  0.32055359108E+03  0.00000000000E+00 0. -1.
         -4    1    6    6    0  503  0.65092735733E+02  0.61161630855E+02  0.73350759040E+02  0.11557743372E+03  0.00000000000E+00 0.  1.
<mgrwt>
<rscale>  0 0.13509115E+04</rscale>
<asrwt>0</asrwt>
<pdfrwt beam="1">  1        2 0.17308357E+00 0.13509115E+04</pdfrwt>
<pdfrwt beam="2">  1       -1 0.62389463E-01 0.13509115E+04</pdfrwt>
<totfact> 0.61030697E+01</totfact>
</mgrwt>
</event>
<event>
12    6  0.1530720E-007  0.2096988E+04  0.7818608E-02  0.8562572E-01
          2   -1    0    0  501    0  0.00000000000E+00  0.00000000000E+00  0.11748706287E+04  0.11748706287E+04  0.00000000000E+00 0. -1.
         -1   -1    0    0    0  501 -0.00000000000E+00 -0.00000000000E+00 -0.93571091499E+03  0.93571091499E+03  0.00000000000E+00 0.  1.
         24    2    1    2    0    0  0.32169573171E+03  0.78846919569E+03 -0.62595444631E+02  0.85803171228E+03  0.84429930937E+02 0.  0.
        254    2    1    2    0    0 -0.32169573171E+03 -0.78846919569E+03  0.30175515831E+03  0.12525498314E+04  0.86755581271E+03 0.  0.
         23    2    4    4    0    0 -0.34333941972E+03 -0.90141201892E+03  0.42734399907E+03  0.10585102698E+04  0.85997167426E+02 0.  0.
         23    2    4    4    0    0  0.21643688013E+02  0.11294282323E+03 -0.12558884077E+03  0.19403956155E+03  0.93028296627E+02 0.  0.
          4    1    3    3  502    0  0.32211704763E+03  0.77087200177E+03 -0.51138614363E+02  0.83702938620E+03  0.00000000000E+00 0. -1.
         -3    1    3    3    0  502 -0.42131591620E+00  0.17597193917E+02 -0.11456830268E+02  0.21002326077E+02  0.00000000000E+00 0.  1.
         11    1    5    5    0    0 -0.25615554393E+03 -0.55910242156E+03  0.28137777765E+03  0.67630217672E+03  0.00000000000E+00 0. -1.
        -11    1    5    5    0    0 -0.87183875790E+02 -0.34230959736E+03  0.14596622142E+03  0.38220809311E+03  0.00000000000E+00 0.  1.
          3    1    6    6  503    0  0.28668478812E+02  0.92474927366E+02 -0.13839197343E+03  0.16889592115E+03  0.00000000000E+00 0. -1.
         -3    1    6    6    0  503 -0.70247907996E+01  0.20467895860E+02  0.12803132669E+02  0.25143640405E+02  0.00000000000E+00 0.  1.
<mgrwt>
<rscale>  0 0.20969876E+04</rscale>
<asrwt>0</asrwt>
<pdfrwt beam="1">  1        2 0.18074933E+00 0.20969876E+04</pdfrwt>
<pdfrwt beam="2">  1       -1 0.14395553E+00 0.20969876E+04</pdfrwt>
<totfact> 0.80279416E+00</totfact>
</mgrwt>
</event>
<event>
12    6  0.1530720E-007  0.1772809E+04  0.7818608E-02  0.8720895E-01
         -1   -1    0    0    0  501 -0.00000000000E+00  0.00000000000E+00  0.57844300018E+03  0.57844300018E+03  0.00000000000E+00 0.  1.
          2   -1    0    0  501    0  0.00000000000E+00 -0.00000000000E+00 -0.13583231294E+04  0.13583231294E+04  0.00000000000E+00 0. -1.
         24    2    1    2    0    0  0.39475231520E+03  0.44054737824E+03  0.12278619541E+02  0.59705019719E+03  0.80042430257E+02 0.  0.
        254    2    1    2    0    0 -0.39475231520E+03 -0.44054737824E+03 -0.79215874879E+03  0.13397159324E+04  0.90410835271E+03 0.  0.
         23    2    4    4    0    0 -0.29748269311E+03  0.10094765651E+03  0.48297809129E+02  0.33106907657E+03  0.92669698591E+02 0.  0.
         23    2    4    4    0    0 -0.97269622091E+02 -0.54149503475E+03 -0.84045655792E+03  0.10086468558E+04  0.91230488441E+02 0.  0.
          2    1    3    3  502    0  0.64478832230E+02  0.44001649155E+02  0.21245808334E+02  0.80901479009E+02  0.00000000000E+00 0. -1.
         -1    1    3    3    0  502  0.33027348297E+03  0.39654572909E+03 -0.89671887925E+01  0.51614871819E+03  0.00000000000E+00 0.  1.
         11    1    5    5    0    0 -0.25489350669E+03  0.51503469884E+02  0.22928820724E+02  0.26105370708E+03  0.00000000000E+00 0. -1.
        -11    1    5    5    0    0 -0.42589186421E+02  0.49444186627E+02  0.25368988405E+02  0.70015369483E+02  0.00000000000E+00 0.  1.
          4    1    6    6  503    0 -0.48513649028E+02 -0.42099639464E+03 -0.69069415103E+03  0.81033940340E+03  0.00000000000E+00 0. -1.
         -4    1    6    6    0  503 -0.48755973064E+02 -0.12049864011E+03 -0.14976240689E+03  0.19830745245E+03  0.00000000000E+00 0.  1.
<mgrwt>
<rscale>  0 0.17728085E+04</rscale>
<asrwt>0</asrwt>
<pdfrwt beam="1">  1        2 0.20897279E+00 0.17728085E+04</pdfrwt>
<pdfrwt beam="2">  1       -1 0.88991231E-01 0.17728085E+04</pdfrwt>
<totfact> 0.20422224E+01</totfact>
</mgrwt>
</event>
<event>
12    6  0.1530720E-007  0.1722359E+04  0.7818608E-02  0.8748714E-01
          2   -1    0    0  501    0  0.00000000000E+00  0.00000000000E+00  0.14932251079E+04  0.14932251079E+04  0.00000000000E+00 0. -1.
         -1   -1    0    0    0  501 -0.00000000000E+00 -0.00000000000E+00 -0.49666350211E+03  0.49666350211E+03  0.00000000000E+00 0.  1.
         24    2    1    2    0    0  0.22191799647E+03 -0.58708696696E+03  0.34039275362E+03  0.71832895160E+03  0.78807055913E+02 0.  0.
        254    2    1    2    0    0 -0.22191799647E+03  0.58708696696E+03  0.65616885214E+03  0.12715596584E+04  0.89016161363E+03 0.  0.
         23    2    4    4    0    0  0.23089094557E+03  0.34933543459E+03 -0.79853738702E+01  0.42839136075E+03  0.90052857589E+02 0.  0.
         23    2    4    4    0    0 -0.45280894204E+03  0.23775153236E+03  0.66415422601E+03  0.84316829763E+03  0.90940711853E+02 0.  0.
          2    1    3    3  502    0  0.82223985263E+02 -0.21908781022E+03  0.84291560394E+02  0.24872739997E+03  0.00000000000E+00 0. -1.
         -1    1    3    3    0  502  0.13969401120E+03 -0.36799915674E+03  0.25610119323E+03  0.46960155163E+03  0.00000000000E+00 0.  1.
         11    1    5    5    0    0  0.62101283427E+02  0.42044521564E+02 -0.19907211552E+02  0.77592578696E+02  0.00000000000E+00 0. -1.
        -11    1    5    5    0    0  0.16878966215E+03  0.30729091303E+03  0.11921837682E+02  0.35079878206E+03  0.00000000000E+00 0.  1.
          2    1    6    6  503    0 -0.89613259975E+02  0.11529662095E+02  0.94902045219E+02  0.13103384165E+03  0.00000000000E+00 0. -1.
         -2    1    6    6    0  503 -0.36319568206E+03  0.22622187027E+03  0.56925218079E+03  0.71213445598E+03  0.00000000000E+00 0.  1.
<mgrwt>
<rscale>  0 0.17223593E+04</rscale>
<asrwt>0</asrwt>
<pdfrwt beam="1">  1        2 0.22972694E+00 0.17223593E+04</pdfrwt>
<pdfrwt beam="2">  1       -1 0.76409770E-01 0.17223593E+04</pdfrwt>
<totfact> 0.23832366E+01</totfact>
</mgrwt>
</event>
<event>
12    6  0.1530720E-007  0.1895445E+04  0.7818608E-02  0.8657127E-01
         -3   -1    0    0    0  501 -0.00000000000E+00  0.00000000000E+00  0.71847435170E+03  0.71847435170E+03  0.00000000000E+00 0.  1.
          2   -1    0    0  501    0  0.00000000000E+00 -0.00000000000E+00 -0.12501182799E+04  0.12501182799E+04  0.00000000000E+00 0. -1.
         24    2    1    2    0    0 -0.32138819316E+03  0.52895094173E+03  0.19699897541E+03  0.65441878273E+03  0.79849091582E+02 0.  0.
        254    2    1    2    0    0  0.32138819316E+03 -0.52895094173E+03 -0.72864290358E+03  0.13141738488E+04  0.90169449072E+03 0.  0.
         23    2    4    4    0    0  0.34537052924E+03  0.94186759756E+02 -0.54387860070E+03  0.65739288009E+03  0.90606392228E+02 0.  0.
         23    2    4    4    0    0 -0.23982336081E+02 -0.62313770148E+03 -0.18476430288E+03  0.65678096876E+03  0.91365452181E+02 0.  0.
          2    1    3    3  502    0 -0.29134152052E+03  0.47252039646E+03  0.14986662503E+03  0.57499166250E+03  0.00000000000E+00 0. -1.
         -1    1    3    3    0  502 -0.30046672636E+02  0.56430545263E+02  0.47132350379E+02  0.79427120226E+02  0.00000000000E+00 0.  1.
         11    1    5    5    0    0  0.11306873858E+02  0.21360552702E+01  0.11226003253E+01  0.11561503365E+02  0.00000000000E+00 0.  1.
        -11    1    5    5    0    0  0.33406365538E+03  0.92050704485E+02 -0.54500120102E+03  0.64583137672E+03  0.00000000000E+00 0. -1.
          4    1    6    6  503    0  0.22671094716E+02 -0.45974904400E+03 -0.13209482334E+03  0.47888642114E+03  0.00000000000E+00 0. -1.
         -4    1    6    6    0  503 -0.46653430797E+02 -0.16338865748E+03 -0.52669479541E+02  0.17789454762E+03  0.00000000000E+00 0.  1.
<mgrwt>
<rscale>  0 0.18954450E+04</rscale>
<asrwt>0</asrwt>
<pdfrwt beam="1">  1        2 0.19232589E+00 0.18954450E+04</pdfrwt>
<pdfrwt beam="2">  1       -3 0.11053452E+00 0.18954450E+04</pdfrwt>
<totfact> 0.72481006E+00</totfact>
</mgrwt>
</event>
<event>
12    6  0.1530720E-007  0.3830427E+04  0.7818608E-02  0.8039657E-01
          2   -1    0    0  501    0  0.00000000000E+00  0.00000000000E+00  0.29890853902E+04  0.29890853902E+04  0.00000000000E+00 0. -1.
         -1   -1    0    0    0  501 -0.00000000000E+00 -0.00000000000E+00 -0.12271453254E+04  0.12271453254E+04  0.00000000000E+00 0.  1.
         24    2    1    2    0    0 -0.59348375569E+03 -0.13311591160E+04 -0.34464428599E+03  0.15006562905E+04  0.94773721104E+02 0.  0.
        254    2    1    2    0    0  0.59348375569E+03  0.13311591160E+04  0.21065843508E+04  0.27155744250E+04  0.90135413164E+03 0.  0.
         23    2    4    4    0    0 -0.22843446863E+03  0.22785776067E+03  0.40281415081E+03  0.52377674062E+03  0.89338504426E+02 0.  0.
         23    2    4    4    0    0  0.82191822432E+03  0.11033013553E+04  0.17037702000E+04  0.21917976844E+04  0.91218128522E+02 0.  0.
          4    1    3    3  502    0 -0.29168399609E+03 -0.57045533312E+03 -0.18464674647E+03  0.66677827022E+03  0.00000000000E+00 0. -1.
         -3    1    3    3    0  502 -0.30179975960E+03 -0.76070378283E+03 -0.15999753951E+03  0.83387802031E+03  0.00000000000E+00 0.  1.
         11    1    5    5    0    0 -0.22480899375E+03  0.23590042295E+03  0.39001996457E+03  0.50823583697E+03  0.00000000000E+00 0.  1.
        -11    1    5    5    0    0 -0.36254748764E+01 -0.80426622867E+01  0.12794186241E+02  0.15540903652E+02  0.00000000000E+00 0. -1.
          3    1    6    6  503    0  0.64482684010E+02  0.59684784423E+02  0.85671453799E+02  0.12271873543E+03  0.00000000000E+00 0. -1.
         -3    1    6    6    0  503  0.75743554031E+03  0.10436165709E+04  0.16180987462E+04  0.20690789490E+04  0.00000000000E+00 0.  1.
<mgrwt>
<rscale>  0 0.38304267E+04</rscale>
<asrwt>0</asrwt>
<pdfrwt beam="1">  1        2 0.45985929E+00 0.38304267E+04</pdfrwt>
<pdfrwt beam="2">  1       -1 0.18879159E+00 0.38304267E+04</pdfrwt>
<totfact> 0.28930896E-01</totfact>
</mgrwt>
</event>
<event>
12    6  0.1530720E-007  0.1440946E+04  0.7818608E-02  0.8924702E-01
          2   -1    0    0  501    0  0.00000000000E+00  0.00000000000E+00  0.64557263841E+03  0.64557263841E+03  0.00000000000E+00 0. -1.
         -1   -1    0    0    0  501 -0.00000000000E+00 -0.00000000000E+00 -0.80406289599E+03  0.80406289599E+03  0.00000000000E+00 0.  1.
         24    2    1    2    0    0 -0.15421176707E+01  0.72204814871E+02 -0.49316091332E+03  0.50493258405E+03  0.80828921791E+02 0.  0.
        254    2    1    2    0    0  0.15421176707E+01 -0.72204814871E+02  0.33467065574E+03  0.94470295036E+03  0.88047901916E+03 0.  0.
         23    2    4    4    0    0  0.27198980088E+03 -0.84486905244E+02  0.52263456589E+03  0.60204254678E+03  0.90508837800E+02 0.  0.
         23    2    4    4    0    0 -0.27044768321E+03  0.12282090372E+02 -0.18796391015E+03  0.34266040358E+03  0.93770579402E+02 0.  0.
          4    1    3    3  502    0  0.12217469580E+02 -0.15353628455E+02 -0.79919309225E+02  0.82292748506E+02  0.00000000000E+00 0. -1.
         -1    1    3    3    0  502 -0.13759587251E+02  0.87558443327E+02 -0.41324160409E+03  0.42263983555E+03  0.00000000000E+00 0.  1.
         11    1    5    5    0    0 -0.52369031449E+00  0.65928356326E+01  0.12558270000E+01  0.67317779730E+01  0.00000000000E+00 0. -1.
        -11    1    5    5    0    0  0.27251349120E+03 -0.91079740876E+02  0.52137873889E+03  0.59531076880E+03  0.00000000000E+00 0.  1.
          2    1    6    6  503    0 -0.11746677074E+03 -0.31019430414E+02 -0.47299272407E+02  0.13037587377E+03  0.00000000000E+00 0. -1.
         -2    1    6    6    0  503 -0.15298091247E+03  0.43301520786E+02 -0.14066463775E+03  0.21228452981E+03  0.00000000000E+00 0.  1.
<mgrwt>
<rscale>  0 0.14409455E+04</rscale>
<asrwt>0</asrwt>
<pdfrwt beam="1">  1        2 0.99318868E-01 0.14409455E+04</pdfrwt>
<pdfrwt beam="2">  1       -1 0.12370198E+00 0.14409455E+04</pdfrwt>
<totfact> 0.28883302E+01</totfact>
</mgrwt>
</event>
<event>
12    6  0.1530720E-007  0.2576576E+04  0.7818608E-02  0.8376201E-01
         -1   -1    0    0    0  501 -0.00000000000E+00  0.00000000000E+00  0.50979157558E+03  0.50979157558E+03  0.00000000000E+00 0.  1.
          2   -1    0    0  501    0  0.00000000000E+00 -0.00000000000E+00 -0.32556178548E+04  0.32556178548E+04  0.00000000000E+00 0. -1.
         24    2    1    2    0    0  0.37379578266E+03 -0.22416214949E+02  0.34876024700E+03  0.51811402437E+03  0.81133584510E+02 0.  0.
        254    2    1    2    0    0 -0.37379578266E+03  0.22416214949E+02 -0.30945865262E+04  0.32472954060E+04  0.91007467369E+03 0.  0.
         23    2    4    4    0    0  0.39704781860E+02  0.20151960743E+03 -0.24224681932E+04  0.24329196751E+04  0.92516898695E+02 0.  0.
         23    2    4    4    0    0 -0.41350056452E+03 -0.17910339248E+03 -0.67211833294E+03  0.81437573082E+03  0.91673526225E+02 0.  0.
          2    1    3    3  502    0  0.15739182234E+02 -0.32023664624E+01  0.46320179594E+02  0.49025871191E+02  0.00000000000E+00 0. -1.
         -1    1    3    3    0  502  0.35805660042E+03 -0.19213848487E+02  0.30244006741E+03  0.46908815318E+03  0.00000000000E+00 0.  1.
         11    1    5    5    0    0 -0.24109114778E+02  0.11635473756E+03 -0.12950012792E+04  0.13004414587E+04  0.00000000000E+00 0. -1.
        -11    1    5    5    0    0  0.63813896638E+02  0.85164869874E+02 -0.11274669140E+04  0.11324782164E+04  0.00000000000E+00 0.  1.
          3    1    6    6  503    0 -0.18317386192E+03 -0.64942635603E+02 -0.36799889501E+03  0.41616510707E+03  0.00000000000E+00 0. -1.
         -3    1    6    6    0  503 -0.23032670259E+03 -0.11416075688E+03 -0.30411943793E+03  0.39821062375E+03  0.00000000000E+00 0.  1.
<mgrwt>
<rscale>  0 0.25765765E+04</rscale>
<asrwt>0</asrwt>
<pdfrwt beam="1">  1        2 0.50086430E+00 0.25765765E+04</pdfrwt>
<pdfrwt beam="2">  1       -1 0.78429472E-01 0.25765765E+04</pdfrwt>
<totfact> 0.19552762E+00</totfact>
</mgrwt>
</event>
<event>
12    6  0.1530720E-007  0.1529732E+04  0.7818608E-02  0.8864919E-01
          2   -1    0    0  501    0  0.00000000000E+00  0.00000000000E+00  0.30661926877E+04  0.30661926877E+04  0.00000000000E+00 0. -1.
         -1   -1    0    0    0  501 -0.00000000000E+00 -0.00000000000E+00 -0.19079676607E+03  0.19079676607E+03  0.00000000000E+00 0.  1.
         24    2    1    2    0    0 -0.31528902033E+03  0.11401758121E+02  0.17424910641E+04  0.17740359240E+04  0.10672949323E+03 0.  0.
        254    2    1    2    0    0  0.31528902033E+03 -0.11401758121E+02  0.11329048575E+04  0.14829535298E+04  0.90340499712E+03 0.  0.
         23    2    4    4    0    0  0.52282332213E+03 -0.28409633506E+03  0.74014966604E+03  0.95397845744E+03  0.90545101291E+02 0.  0.
         23    2    4    4    0    0 -0.20753430180E+03  0.27269457694E+03  0.39275519148E+03  0.52897507232E+03  0.90139713729E+02 0.  0.
          4    1    3    3  502    0 -0.19381334484E+03 -0.17856368247E+02  0.12903880326E+04  0.13049841904E+04  0.00000000000E+00 0. -1.
         -3    1    3    3    0  502 -0.12147567550E+03  0.29258126367E+02  0.45210303157E+03  0.46905173366E+03  0.00000000000E+00 0.  1.
         11    1    5    5    0    0  0.45134374526E+02 -0.18377248496E+02  0.27907078165E+02  0.56157279473E+02  0.00000000000E+00 0.  1.
        -11    1    5    5    0    0  0.47768894761E+03 -0.26571908656E+03  0.71224258787E+03  0.89782117797E+03  0.00000000000E+00 0. -1.
          1    1    6    6  503    0 -0.76409110644E+02  0.17413151264E+03  0.21840180176E+03  0.28958501842E+03  0.00000000000E+00 0. -1.
         -1    1    6    6    0  503 -0.13112519115E+03  0.98563064295E+02  0.17435338972E+03  0.23939005390E+03  0.00000000000E+00 0.  1.
<mgrwt>
<rscale>  0 0.15297315E+04</rscale>
<asrwt>0</asrwt>
<pdfrwt beam="1">  1        2 0.47172191E+00 0.15297315E+04</pdfrwt>
<pdfrwt beam="2">  1       -1 0.29353351E-01 0.15297315E+04</pdfrwt>
<totfact> 0.18545692E+01</totfact>
</mgrwt>
</event>
<event>
12    6  0.1530720E-007  0.2225276E+04  0.7818608E-02  0.8507981E-01
          2   -1    0    0  501    0  0.00000000000E+00  0.00000000000E+00  0.13732893428E+04  0.13732893428E+04  0.00000000000E+00 0. -1.
         -1   -1    0    0    0  501 -0.00000000000E+00 -0.00000000000E+00 -0.90145836129E+03  0.90145836129E+03  0.00000000000E+00 0.  1.
         24    2    1    2    0    0 -0.82471762117E+03 -0.38644886681E+03  0.83053452887E+01  0.91479013176E+03  0.85265028466E+02 0.  0.
        254    2    1    2    0    0  0.82471762117E+03  0.38644886681E+03  0.46352563621E+03  0.13599575723E+04  0.89728852760E+03 0.  0.
         23    2    4    4    0    0  0.18412196200E+03 -0.27955529913E+03  0.88319621905E+02  0.35846830279E+03  0.92989818432E+02 0.  0.
         23    2    4    4    0    0  0.64059565917E+03  0.66600416594E+03  0.37520601430E+03  0.10014892695E+04  0.90977229131E+02 0.  0.
          2    1    3    3  502    0 -0.43434259983E+03 -0.18870639787E+03  0.44747732742E+02  0.47567421436E+03  0.00000000000E+00 0. -1.
         -1    1    3    3    0  502 -0.39037502134E+03 -0.19774246894E+03 -0.36442387453E+02  0.43911591740E+03  0.00000000000E+00 0.  1.
         11    1    5    5    0    0  0.94599676293E+02 -0.19816771460E+03  0.90381665685E+02  0.23746239146E+03  0.00000000000E+00 0. -1.
        -11    1    5    5    0    0  0.89522285703E+02 -0.81387584524E+02 -0.20620437804E+01  0.12100591133E+03  0.00000000000E+00 0.  1.
          1    1    6    6  503    0  0.41764196328E+03  0.37160312176E+03  0.21521888988E+03  0.59902659386E+03  0.00000000000E+00 0. -1.
         -1    1    6    6    0  503  0.22295369589E+03  0.29440104418E+03  0.15998712443E+03  0.40246267567E+03  0.00000000000E+00 0.  1.
<mgrwt>
<rscale>  0 0.22252759E+04</rscale>
<asrwt>0</asrwt>
<pdfrwt beam="1">  1        2 0.21127528E+00 0.22252759E+04</pdfrwt>
<pdfrwt beam="2">  1       -1 0.13868590E+00 0.22252759E+04</pdfrwt>
<totfact> 0.66946331E+00</totfact>
</mgrwt>
</event>
<event>
12    6  0.1530720E-007  0.1706978E+04  0.7818608E-02  0.8757395E-01
          2   -1    0    0  501    0  0.00000000000E+00  0.00000000000E+00  0.10466819689E+04  0.10466819689E+04  0.00000000000E+00 0. -1.
         -1   -1    0    0    0  501 -0.00000000000E+00 -0.00000000000E+00 -0.69595464007E+03  0.69595464007E+03  0.00000000000E+00 0.  1.
         24    2    1    2    0    0 -0.43277065127E+03  0.27178017841E+03 -0.22232884943E+03  0.56303743330E+03  0.80163158847E+02 0.  0.
        254    2    1    2    0    0  0.43277065127E+03 -0.27178017841E+03  0.57305617829E+03  0.11795991757E+04  0.89549200435E+03 0.  0.
         23    2    4    4    0    0  0.59978573844E+02 -0.27625532090E+03  0.71102162928E+03  0.77056264613E+03  0.91107643268E+02 0.  0.
         23    2    4    4    0    0  0.37279207743E+03  0.44751424888E+01 -0.13796545099E+03  0.40903652957E+03  0.96345508256E+02 0.  0.
          2    1    3    3  502    0 -0.29823959410E+02  0.33586285120E+02 -0.18846590940E+00  0.44917063823E+02  0.00000000000E+00 0. -1.
         -1    1    3    3    0  502 -0.40294669186E+03  0.23819389329E+03 -0.22214038352E+03  0.51812036948E+03  0.00000000000E+00 0.  1.
         11    1    5    5    0    0  0.60710895420E+02 -0.26082581638E+03  0.58242920986E+03  0.64104578917E+03  0.00000000000E+00 0. -1.
        -11    1    5    5    0    0 -0.73232157587E+00 -0.15429504516E+02  0.12859241942E+03  0.12951685696E+03  0.00000000000E+00 0.  1.
          2    1    6    6  503    0  0.26878651748E+03  0.22483710462E+02 -0.13909279489E+03  0.30347737116E+03  0.00000000000E+00 0. -1.
         -2    1    6    6    0  503  0.10400555995E+03 -0.18008567973E+02  0.11273438923E+01  0.10555915841E+03  0.00000000000E+00 0.  1.
<mgrwt>
<rscale>  0 0.17069776E+04</rscale>
<asrwt>0</asrwt>
<pdfrwt beam="1">  1        2 0.16102799E+00 0.17069776E+04</pdfrwt>
<pdfrwt beam="2">  1       -1 0.10706995E+00 0.17069776E+04</pdfrwt>
<totfact> 0.20758505E+01</totfact>
</mgrwt>
</event>
<event>
12    6  0.1530720E-007  0.2116776E+04  0.7818608E-02  0.8553889E-01
         -1   -1    0    0    0  501 -0.00000000000E+00  0.00000000000E+00  0.72424192501E+03  0.72424192501E+03  0.00000000000E+00 0.  1.
          2   -1    0    0  501    0  0.00000000000E+00 -0.00000000000E+00 -0.15467000409E+04  0.15467000409E+04  0.00000000000E+00 0. -1.
         24    2    1    2    0    0 -0.24197607283E+03 -0.57377217459E+03  0.32159782832E+03  0.70536266802E+03  0.79651755157E+02 0.  0.
        254    2    1    2    0    0  0.24197607283E+03  0.57377217459E+03 -0.11440559442E+04  0.15655792979E+04  0.86856640873E+03 0.  0.
         23    2    4    4    0    0 -0.92891298913E+02 -0.17959827548E+03 -0.35880524955E+03  0.42277662629E+03  0.95470072076E+02 0.  0.
         23    2    4    4    0    0  0.33486737174E+03  0.75337045007E+03 -0.78525069468E+03  0.11428026716E+04  0.98367174788E+02 0.  0.
          4    1    3    3  502    0 -0.33520932950E+02 -0.29584557666E+02  0.28924480577E+02  0.53249643894E+02  0.00000000000E+00 0. -1.
         -3    1    3    3    0  502 -0.20845513988E+03 -0.54418761692E+03  0.29267334775E+03  0.65211302413E+03  0.00000000000E+00 0.  1.
         11    1    5    5    0    0 -0.66144911625E+02 -0.54741127836E+02 -0.20892260383E+03  0.22587694615E+03  0.00000000000E+00 0. -1.
        -11    1    5    5    0    0 -0.26746387289E+02 -0.12485714765E+03 -0.14988264572E+03  0.19689968014E+03  0.00000000000E+00 0.  1.
          1    1    6    6  503    0  0.60836124105E+02  0.65747638558E+02 -0.97430382884E+02  0.13234978459E+03  0.00000000000E+00 0. -1.
         -1    1    6    6    0  503  0.27403124764E+03  0.68762281151E+03 -0.68782031180E+03  0.10104528870E+04  0.00000000000E+00 0.  1.
<mgrwt>
<rscale>  0 0.21167759E+04</rscale>
<asrwt>0</asrwt>
<pdfrwt beam="1">  1        2 0.23795385E+00 0.21167759E+04</pdfrwt>
<pdfrwt beam="2">  1       -1 0.11142184E+00 0.21167759E+04</pdfrwt>
<totfact> 0.92720189E+00</totfact>
</mgrwt>
</event>
<event>
12    6  0.1530720E-007  0.2961668E+04  0.7818608E-02  0.8254762E-01
         -1   -1    0    0    0  501 -0.00000000000E+00  0.00000000000E+00  0.73008357757E+03  0.73008357757E+03  0.00000000000E+00 0.  1.
          2   -1    0    0  501    0  0.00000000000E+00 -0.00000000000E+00 -0.30035871159E+04  0.30035871159E+04  0.00000000000E+00 0. -1.
         24    2    1    2    0    0  0.22742033056E+03  0.11581698228E+04 -0.18483913986E+04  0.21948267152E+04  0.87385366637E+02 0.  0.
        254    2    1    2    0    0 -0.22742033056E+03 -0.11581698228E+04 -0.42511213972E+03  0.15388439783E+04  0.89120318277E+03 0.  0.
         23    2    4    4    0    0 -0.32565276030E+03 -0.39862015009E+03 -0.54816680808E+03  0.75768721853E+03  0.93034011475E+02 0.  0.
         23    2    4    4    0    0  0.98232429739E+02 -0.75954967266E+03  0.12305466836E+03  0.78115675972E+03  0.92185228542E+02 0.  0.
          4    1    3    3  502    0  0.16878294964E+03  0.83064629819E+03 -0.12529696570E+04  0.15127438376E+04  0.00000000000E+00 0. -1.
         -3    1    3    3    0  502  0.58637380923E+02  0.32752352456E+03 -0.59542174159E+03  0.68208287762E+03  0.00000000000E+00 0.  1.
         11    1    5    5    0    0 -0.26663978302E+02 -0.21062298407E+02 -0.75929036118E+02  0.83185375390E+02  0.00000000000E+00 0. -1.
        -11    1    5    5    0    0 -0.29898878200E+03 -0.37755785168E+03 -0.47223777196E+03  0.67450184314E+03  0.00000000000E+00 0.  1.
          1    1    6    6  503    0  0.32076888759E+02 -0.13545574339E+03  0.55813382599E+02  0.14997439411E+03  0.00000000000E+00 0. -1.
         -1    1    6    6    0  503  0.66155540981E+02 -0.62409392927E+03  0.67241285760E+02  0.63118236562E+03  0.00000000000E+00 0.  1.
<mgrwt>
<rscale>  0 0.29616682E+04</rscale>
<asrwt>0</asrwt>
<pdfrwt beam="1">  1        2 0.46209032E+00 0.29616682E+04</pdfrwt>
<pdfrwt beam="2">  1       -1 0.11232055E+00 0.29616682E+04</pdfrwt>
<totfact> 0.12267000E+00</totfact>
</mgrwt>
</event>
<event>
12    6  0.1530720E-007  0.1681574E+04  0.7818608E-02  0.8771944E-01
          2   -1    0    0  501    0  0.00000000000E+00  0.00000000000E+00  0.60863997968E+03  0.60863997968E+03  0.00000000000E+00 0. -1.
         -1   -1    0    0    0  501 -0.00000000000E+00 -0.00000000000E+00 -0.11614794674E+04  0.11614794674E+04  0.00000000000E+00 0.  1.
         24    2    1    2    0    0  0.46171447005E+03  0.21600333449E+03 -0.53375063064E+03  0.74240615371E+03  0.80246302050E+02 0.  0.
        254    2    1    2    0    0 -0.46171447005E+03 -0.21600333449E+03 -0.19088857042E+02  0.10277132933E+04  0.89218413820E+03 0.  0.
         23    2    4    4    0    0 -0.70038633804E+03 -0.14990785757E+03 -0.14215751520E+03  0.73592248144E+03  0.91431675558E+02 0.  0.
         23    2    4    4    0    0  0.23867186799E+03 -0.66095476924E+02  0.12306865816E+03  0.29179081189E+03  0.93075832737E+02 0.  0.
          4    1    3    3  502    0  0.34146026766E+03  0.14058685908E+03 -0.33797635300E+03  0.50058744943E+03  0.00000000000E+00 0. -1.
         -3    1    3    3    0  502  0.12025420239E+03  0.75416475413E+02 -0.19577427764E+03  0.24181870428E+03  0.00000000000E+00 0.  1.
         11    1    5    5    0    0 -0.43096016655E+03 -0.11169589267E+03 -0.47140023729E+02  0.44768830611E+03  0.00000000000E+00 0. -1.
        -11    1    5    5    0    0 -0.26942617149E+03 -0.38211964903E+02 -0.95017491471E+02  0.28823417534E+03  0.00000000000E+00 0.  1.
          1    1    6    6  503    0  0.13927220650E+03 -0.52610640836E+02  0.23988983441E+02  0.15079820410E+03  0.00000000000E+00 0. -1.
         -1    1    6    6    0  503  0.99399661494E+02 -0.13484836088E+02  0.99079674717E+02  0.14099260779E+03  0.00000000000E+00 0.  1.
<mgrwt>
<rscale>  0 0.16815741E+04</rscale>
<asrwt>0</asrwt>
<pdfrwt beam="1">  1        2 0.93636920E-01 0.16815741E+04</pdfrwt>
<pdfrwt beam="2">  1       -1 0.17868915E+00 0.16815741E+04</pdfrwt>
<totfact> 0.11284114E+01</totfact>
</mgrwt>
</event>
<event>
12    6  0.1530720E-007  0.1014220E+04  0.7818608E-02  0.9293084E-01
          2   -1    0    0  501    0  0.00000000000E+00  0.00000000000E+00  0.54572739907E+03  0.54572739907E+03  0.00000000000E+00 0. -1.
         -3   -1    0    0    0  501 -0.00000000000E+00 -0.00000000000E+00 -0.47122544861E+03  0.47122544861E+03  0.00000000000E+00 0.  1.
         24    2    1    2    0    0 -0.21889765800E+02 -0.49156023321E+02  0.57055916792E+02  0.11233576814E+03  0.80426803292E+02 0.  0.
        254    2    1    2    0    0  0.21889765800E+02  0.49156023321E+02  0.17446033671E+02  0.90461707954E+03  0.90284673119E+03 0.  0.
         23    2    4    4    0    0  0.27085998335E+03  0.38117515333E+03 -0.23428554807E+02  0.47772970876E+03  0.94958671797E+02 0.  0.
         23    2    4    4    0    0 -0.24897021755E+03 -0.33201913001E+03  0.40874588478E+02  0.42688737078E+03  0.91319348601E+02 0.  0.
          4    1    3    3  502    0  0.67382403576E+01 -0.59108449449E+01  0.59735458355E+02  0.60404196509E+02  0.00000000000E+00 0. -1.
         -3    1    3    3    0  502 -0.28628006158E+02 -0.43245178376E+02 -0.26795415630E+01  0.51931571634E+02  0.00000000000E+00 0.  1.
         11    1    5    5    0    0  0.63001425600E+02  0.56199977455E+02 -0.35953882202E+02  0.91762185779E+02  0.00000000000E+00 0.  1.
        -11    1    5    5    0    0  0.20785855775E+03  0.32497517588E+03  0.12525327395E+02  0.38596752298E+03  0.00000000000E+00 0. -1.
          3    1    6    6  503    0 -0.23166858157E+03 -0.33495391047E+03  0.41134589936E+02  0.40933666866E+03  0.00000000000E+00 0. -1.
         -3    1    6    6    0  503 -0.17301635983E+02  0.29347804584E+01 -0.26000145799E+00  0.17550702117E+02  0.00000000000E+00 0.  1.
<mgrwt>
<rscale>  0 0.10142202E+04</rscale>
<asrwt>0</asrwt>
<pdfrwt beam="1">  1        2 0.83958061E-01 0.10142202E+04</pdfrwt>
<pdfrwt beam="2">  1       -3 0.72496223E-01 0.10142202E+04</pdfrwt>
<totfact> 0.63297992E+01</totfact>
</mgrwt>
</event>
<event>
12    6  0.1530720E-007  0.2826712E+04  0.7818608E-02  0.8295023E-01
         -1   -1    0    0    0  501 -0.00000000000E+00  0.00000000000E+00  0.17764927479E+04  0.17764927479E+04  0.00000000000E+00 0.  1.
          2   -1    0    0  501    0  0.00000000000E+00 -0.00000000000E+00 -0.11244488373E+04  0.11244488373E+04  0.00000000000E+00 0. -1.
         24    2    1    2    0    0  0.11508310014E+04 -0.23959783308E+03  0.77808338927E+03  0.14118999454E+04  0.78921351889E+02 0.  0.
        254    2    1    2    0    0 -0.11508310014E+04  0.23959783308E+03 -0.12603947871E+03  0.14890416398E+04  0.90528445232E+03 0.  0.
         23    2    4    4    0    0 -0.41422078111E+03  0.18007867631E+03  0.37278536057E+03  0.59280247437E+03  0.91862197848E+02 0.  0.
         23    2    4    4    0    0 -0.73661022025E+03  0.59519156771E+02 -0.49882483928E+03  0.89623916545E+03  0.91001509904E+02 0.  0.
          4    1    3    3  502    0  0.44653830287E+02 -0.22357779631E+02  0.22334813875E+02  0.54705381638E+02  0.00000000000E+00 0. -1.
         -3    1    3    3    0  502  0.11061771711E+04 -0.21724005345E+03  0.75574857540E+03  0.13571945637E+04  0.00000000000E+00 0.  1.
         11    1    5    5    0    0 -0.63652738277E+02  0.25370895934E+02  0.10476330206E+03  0.12518267815E+03  0.00000000000E+00 0.  1.
        -11    1    5    5    0    0 -0.35056804283E+03  0.15470778038E+03  0.26802205852E+03  0.46761979622E+03  0.00000000000E+00 0. -1.
          1    1    6    6  503    0 -0.62940737798E+03  0.20025886300E+02 -0.43513830193E+03  0.76544106592E+03  0.00000000000E+00 0. -1.
         -1    1    6    6    0  503 -0.10720284227E+03  0.39493270471E+02 -0.63686537352E+02  0.13079809954E+03  0.00000000000E+00 0.  1.
<mgrwt>
<rscale>  0 0.28267120E+04</rscale>
<asrwt>0</asrwt>
<pdfrwt beam="1">  1        2 0.17299213E+00 0.28267120E+04</pdfrwt>
<pdfrwt beam="2">  1       -1 0.27330658E+00 0.28267120E+04</pdfrwt>
<totfact> 0.10239432E+00</totfact>
</mgrwt>
</event>
<event>
12    6  0.1530720E-007  0.2265008E+04  0.7818608E-02  0.8491847E-01
          2   -1    0    0  501    0  0.00000000000E+00  0.00000000000E+00  0.78676249238E+03  0.78676249238E+03  0.00000000000E+00 0. -1.
         -1   -1    0    0    0  501 -0.00000000000E+00 -0.00000000000E+00 -0.16301812876E+04  0.16301812876E+04  0.00000000000E+00 0.  1.
         24    2    1    2    0    0  0.24306139593E+02 -0.86860585139E+03  0.58188450600E+02  0.87458067894E+03  0.80240605098E+02 0.  0.
        254    2    1    2    0    0 -0.24306139593E+02  0.86860585139E+03 -0.90160724581E+03  0.15423631010E+04  0.90051174130E+03 0.  0.
         23    2    4    4    0    0  0.17157900667E+03  0.56264584414E+03 -0.99206705148E+03  0.11570750646E+04  0.92822243804E+02 0.  0.
         23    2    4    4    0    0 -0.19588514626E+03  0.30596000724E+03  0.90459805663E+02  0.38528803646E+03  0.91002077146E+02 0.  0.
          2    1    3    3  502    0 -0.24140520832E+02 -0.16034374662E+03  0.23197984718E+02  0.16380179584E+03  0.00000000000E+00 0. -1.
         -1    1    3    3    0  502  0.48446660424E+02 -0.70826210476E+03  0.34990465882E+02  0.71077888310E+03  0.00000000000E+00 0.  1.
         11    1    5    5    0    0 -0.19513540664E+00 -0.20391069912E+01  0.64680924933E+00  0.21481148372E+01  0.00000000000E+00 0. -1.
        -11    1    5    5    0    0  0.17177414208E+03  0.56468495113E+03 -0.99271386072E+03  0.11549269497E+04  0.00000000000E+00 0.  1.
          4    1    6    6  503    0 -0.20452998608E+01  0.27495523636E+02  0.29838985593E+02  0.40626987740E+02  0.00000000000E+00 0. -1.
         -4    1    6    6    0  503 -0.19383984640E+03  0.27846448361E+03  0.60620820070E+02  0.34466104873E+03  0.00000000000E+00 0.  1.
<mgrwt>
<rscale>  0 0.22650082E+04</rscale>
<asrwt>0</asrwt>
<pdfrwt beam="1">  1        2 0.12104038E+00 0.22650082E+04</pdfrwt>
<pdfrwt beam="2">  1       -1 0.25079712E+00 0.22650082E+04</pdfrwt>
<totfact> 0.25165439E+00</totfact>
</mgrwt>
</event>
<event>
12    6  0.1530720E-007  0.1355159E+04  0.7818608E-02  0.8986932E-01
         -1   -1    0    0    0  501 -0.00000000000E+00  0.00000000000E+00  0.41532999455E+03  0.41532999455E+03  0.00000000000E+00 0.  1.
          2   -1    0    0  501    0  0.00000000000E+00 -0.00000000000E+00 -0.11054197144E+04  0.11054197144E+04  0.00000000000E+00 0. -1.
         24    2    1    2    0    0  0.15174789649E+03 -0.26048134141E+03  0.45595158894E+02  0.31397967465E+03  0.75009094596E+02 0.  0.
        254    2    1    2    0    0 -0.15174789649E+03  0.26048134141E+03 -0.73568487871E+03  0.12067700343E+04  0.90784564851E+03 0.  0.
         23    2    4    4    0    0 -0.26165376942E+03 -0.27121869841E+03 -0.42430027263E+03  0.57421935543E+03  0.87606331853E+02 0.  0.
         23    2    4    4    0    0  0.10990587293E+03  0.53170003982E+03 -0.31138460608E+03  0.63255067883E+03  0.91519151765E+02 0.  0.
          2    1    3    3  502    0  0.39053820716E+02 -0.78344518999E+02 -0.20355071632E+02  0.89874320642E+02  0.00000000000E+00 0. -1.
         -1    1    3    3    0  502  0.11269407577E+03 -0.18213682241E+03  0.65950230525E+02  0.22410535401E+03  0.00000000000E+00 0.  1.
         11    1    5    5    0    0 -0.22596431201E+03 -0.26441243151E+03 -0.36141016016E+03  0.50158858451E+03  0.00000000000E+00 0.  1.
        -11    1    5    5    0    0 -0.35689457406E+02 -0.68062669020E+01 -0.62890112462E+02  0.72630770921E+02  0.00000000000E+00 0. -1.
          4    1    6    6  503    0  0.44620606366E+02  0.30323658387E+03 -0.12690892129E+03  0.33173679117E+03  0.00000000000E+00 0. -1.
         -4    1    6    6    0  503  0.65285266564E+02  0.22846345594E+03 -0.18447568479E+03  0.30081388766E+03  0.00000000000E+00 0.  1.
<mgrwt>
<rscale>  0 0.13551590E+04</rscale>
<asrwt>0</asrwt>
<pdfrwt beam="1">  1        2 0.17006457E+00 0.13551590E+04</pdfrwt>
<pdfrwt beam="2">  1       -1 0.63896923E-01 0.13551590E+04</pdfrwt>
<totfact> 0.59802537E+01</totfact>
</mgrwt>
</event>
<event>
12    6  0.1530720E-007  0.1419261E+04  0.7818608E-02  0.8939993E-01
          2   -1    0    0  501    0  0.00000000000E+00  0.00000000000E+00  0.27151306354E+04  0.27151306354E+04  0.00000000000E+00 0. -1.
         -1   -1    0    0    0  501 -0.00000000000E+00 -0.00000000000E+00 -0.18547000752E+03  0.18547000752E+03  0.00000000000E+00 0.  1.
         24    2    1    2    0    0 -0.28890427023E+03 -0.18168810768E+03  0.26419823372E+03  0.43993482223E+03  0.85239047871E+02 0.  0.
        254    2    1    2    0    0  0.28890427023E+03  0.18168810768E+03  0.22654623941E+04  0.24606658207E+04  0.89781967894E+03 0.  0.
         23    2    4    4    0    0  0.45875033879E+03 -0.29506162984E+02  0.55504290158E+03  0.72660221395E+03  0.92496852528E+02 0.  0.
         23    2    4    4    0    0 -0.16984606857E+03  0.21119427066E+03  0.17104194926E+04  0.17340636067E+04  0.89392643030E+02 0.  0.
          2    1    3    3  502    0 -0.33827219479E+02 -0.58176489815E+02  0.37683887890E+02  0.77128854207E+02  0.00000000000E+00 0. -1.
         -1    1    3    3    0  502 -0.25507705075E+03 -0.12351161787E+03  0.22651434583E+03  0.36280596802E+03  0.00000000000E+00 0.  1.
         11    1    5    5    0    0  0.35711134155E+03  0.13638299752E+02  0.44468989151E+03  0.57049418323E+03  0.00000000000E+00 0. -1.
        -11    1    5    5    0    0  0.10163899724E+03 -0.43144462735E+02  0.11035301007E+03  0.15610803073E+03  0.00000000000E+00 0.  1.
          3    1    6    6  503    0 -0.17225363144E+03  0.21124100159E+03  0.17100390556E+04  0.17316257234E+04  0.00000000000E+00 0. -1.
         -3    1    6    6    0  503  0.24075628716E+01 -0.46730926035E-01  0.38043696992E+00  0.24378833130E+01  0.00000000000E+00 0.  1.
<mgrwt>
<rscale>  0 0.14192608E+04</rscale>
<asrwt>0</asrwt>
<pdfrwt beam="1">  1        2 0.41771238E+00 0.14192608E+04</pdfrwt>
<pdfrwt beam="2">  1       -1 0.28533849E-01 0.14192608E+04</pdfrwt>
<totfact> 0.32248155E+01</totfact>
</mgrwt>
</event>
<event>
12    6  0.1530720E-007  0.2050964E+04  0.7818608E-02  0.8583157E-01
         -1   -1    0    0    0  501 -0.00000000000E+00  0.00000000000E+00  0.75581509317E+03  0.75581509317E+03  0.00000000000E+00 0.  1.
          2   -1    0    0  501    0  0.00000000000E+00 -0.00000000000E+00 -0.13913626866E+04  0.13913626866E+04  0.00000000000E+00 0. -1.
         24    2    1    2    0    0 -0.40308520996E+03  0.31291858572E+03  0.42186503168E+03  0.66626075310E+03  0.74414772603E+02 0.  0.
        254    2    1    2    0    0  0.40308520996E+03 -0.31291858572E+03 -0.10574126251E+04  0.14809170267E+04  0.90255085862E+03 0.  0.
         23    2    4    4    0    0  0.69790763548E+02 -0.52022215332E+03 -0.27182510178E+03  0.59790756210E+03  0.90015150843E+02 0.  0.
         23    2    4    4    0    0  0.33329444641E+03  0.20730356759E+03 -0.78558752334E+03  0.88300946459E+03  0.92184600543E+02 0.  0.
          4    1    3    3  502    0  0.23845376829E+01  0.61708869241E+00 -0.69893028864E+00  0.25603362990E+01  0.00000000000E+00 0. -1.
         -3    1    3    3    0  502 -0.40546974764E+03  0.31230149703E+03  0.42256396197E+03  0.66370041680E+03  0.00000000000E+00 0.  1.
         11    1    5    5    0    0  0.24304455481E+02 -0.93257429640E+02 -0.14867278287E+02  0.97512515622E+02  0.00000000000E+00 0. -1.
        -11    1    5    5    0    0  0.45486308067E+02 -0.42696472368E+03 -0.25695782349E+03  0.50039504648E+03  0.00000000000E+00 0.  1.
          2    1    6    6  503    0  0.10651661777E+02 -0.94860646060E+01 -0.33477209294E+02  0.36389103622E+02  0.00000000000E+00 0. -1.
         -2    1    6    6    0  503  0.32264278463E+03  0.21678963220E+03 -0.75211031405E+03  0.84662036096E+03  0.00000000000E+00 0.  1.
<mgrwt>
<rscale>  0 0.20509636E+04</rscale>
<asrwt>0</asrwt>
<pdfrwt beam="1">  1        2 0.21405579E+00 0.20509636E+04</pdfrwt>
<pdfrwt beam="2">  1       -1 0.11627925E+00 0.20509636E+04</pdfrwt>
<totfact> 0.10315373E+01</totfact>
</mgrwt>
</event>
<event>
12    6  0.1530720E-007  0.3078737E+04  0.7818608E-02  0.8221598E-01
          2   -1    0    0  501    0  0.00000000000E+00  0.00000000000E+00  0.10992280883E+04  0.10992280883E+04  0.00000000000E+00 0. -1.
         -1   -1    0    0    0  501 -0.00000000000E+00 -0.00000000000E+00 -0.21557448914E+04  0.21557448914E+04  0.00000000000E+00 0.  1.
         24    2    1    2    0    0 -0.76725363112E+03 -0.11465208053E+04 -0.78838337642E+03  0.15909843165E+04  0.80589426225E+02 0.  0.
        254    2    1    2    0    0  0.76725363112E+03  0.11465208053E+04 -0.26813342667E+03  0.16639886632E+04  0.89094031521E+03 0.  0.
         23    2    4    4    0    0  0.22323240844E+03  0.52452135029E+03 -0.53862767621E+03  0.79003171837E+03  0.95262728085E+02 0.  0.
         23    2    4    4    0    0  0.54402122268E+03  0.62199945504E+03  0.27049424954E+03  0.87395694484E+03  0.88267715524E+02 0.  0.
          2    1    3    3  502    0 -0.70389824706E+02 -0.12753692389E+03 -0.10870343691E+03  0.18176036854E+03  0.00000000000E+00 0. -1.
         -3    1    3    3    0  502 -0.69686380641E+03 -0.10189838814E+04 -0.67967993951E+03  0.14092239480E+04  0.00000000000E+00 0.  1.
         11    1    5    5    0    0  0.49581166528E+02  0.15318355674E+03 -0.21008661381E+03  0.26468826841E+03  0.00000000000E+00 0. -1.
        -11    1    5    5    0    0  0.17365124192E+03  0.37133779355E+03 -0.32854106240E+03  0.52534344996E+03  0.00000000000E+00 0.  1.
          3    1    6    6  503    0  0.13513984694E+03  0.20300360943E+03  0.54076074309E+02  0.24979484679E+03  0.00000000000E+00 0. -1.
         -3    1    6    6    0  503  0.40888137574E+03  0.41899584561E+03  0.21641817523E+03  0.62416209804E+03  0.00000000000E+00 0.  1.
<mgrwt>
<rscale>  0 0.30787370E+04</rscale>
<asrwt>0</asrwt>
<pdfrwt beam="1">  1        2 0.16911202E+00 0.30787370E+04</pdfrwt>
<pdfrwt beam="2">  1       -1 0.33165306E+00 0.30787370E+04</pdfrwt>
<totfact> 0.43385646E-01</totfact>
</mgrwt>
</event>
<event>
12    6  0.1530720E-007  0.1857623E+04  0.7818608E-02  0.8676243E-01
          2   -1    0    0  501    0  0.00000000000E+00  0.00000000000E+00  0.30128640678E+04  0.30128640678E+04  0.00000000000E+00 0. -1.
         -1   -1    0    0    0  501 -0.00000000000E+00 -0.00000000000E+00 -0.28633568783E+03  0.28633568783E+03  0.00000000000E+00 0.  1.
         24    2    1    2    0    0  0.21021565523E+03 -0.67940986536E+03  0.12394977471E+04  0.14313366474E+04  0.81126730372E+02 0.  0.
        254    2    1    2    0    0 -0.21021565523E+03  0.67940986536E+03  0.14870306329E+04  0.18678631083E+04  0.87855796682E+03 0.  0.
         23    2    4    4    0    0 -0.18106761138E+03 -0.17666791221E+03  0.33986366676E+03  0.43336909768E+03  0.91128654905E+02 0.  0.
         23    2    4    4    0    0 -0.29148043845E+02  0.85607777756E+03  0.11471669662E+04  0.14344940106E+04  0.89790023992E+02 0.  0.
          2    1    3    3  502    0  0.21637199358E+03 -0.67268299593E+03  0.12256262166E+04  0.14147363272E+04  0.00000000000E+00 0. -1.
         -1    1    3    3    0  502 -0.61563383540E+01 -0.67268694247E+01  0.13871530460E+02  0.16600320223E+02  0.00000000000E+00 0.  1.
         11    1    5    5    0    0 -0.11428521825E+03 -0.48612624418E+02  0.14745221271E+03  0.19278603009E+03  0.00000000000E+00 0.  1.
        -11    1    5    5    0    0 -0.66782393133E+02 -0.12805528779E+03  0.19241145405E+03  0.24058306759E+03  0.00000000000E+00 0. -1.
          3    1    6    6  503    0 -0.52379911691E+02  0.38517347067E+03  0.55413520388E+03  0.67688114306E+03  0.00000000000E+00 0. -1.
         -3    1    6    6    0  503  0.23231867846E+02  0.47090430690E+03  0.59303176230E+03  0.75761286753E+03  0.00000000000E+00 0.  1.
<mgrwt>
<rscale>  0 0.18576227E+04</rscale>
<asrwt>0</asrwt>
<pdfrwt beam="1">  1        2 0.46351753E+00 0.18576227E+04</pdfrwt>
<pdfrwt beam="2">  1       -1 0.44051646E-01 0.18576227E+04</pdfrwt>
<totfact> 0.93497134E+00</totfact>
</mgrwt>
</event>
<event>
12    6  0.1530720E-007  0.3586978E+04  0.7818608E-02  0.8093481E-01
          2   -1    0    0  501    0  0.00000000000E+00  0.00000000000E+00  0.74839991219E+03  0.74839991219E+03  0.00000000000E+00 0. -1.
         -1   -1    0    0    0  501 -0.00000000000E+00 -0.00000000000E+00 -0.42979729662E+04  0.42979729662E+04  0.00000000000E+00 0.  1.
         24    2    1    2    0    0 -0.60836887847E+03 -0.13226210404E+04 -0.48968938018E+03  0.15380372472E+04  0.79522173028E+02 0.  0.
        254    2    1    2    0    0  0.60836887847E+03  0.13226210404E+04 -0.30598836738E+04  0.35083356311E+04  0.90889586561E+03 0.  0.
         23    2    4    4    0    0 -0.23019904762E+03  0.33967357663E+03 -0.80154998782E+03  0.90495400909E+03  0.89942400570E+02 0.  0.
         23    2    4    4    0    0  0.83856792609E+03  0.98294746379E+03 -0.22583336860E+04  0.26033816220E+04  0.90238292353E+02 0.  0.
          2    1    3    3  502    0 -0.31485203055E+02 -0.86186611424E+02 -0.12500732916E+02  0.92605174389E+02  0.00000000000E+00 0. -1.
         -1    1    3    3    0  502 -0.57688367541E+03 -0.12364344290E+04 -0.47718864726E+03  0.14454320729E+04  0.00000000000E+00 0.  1.
         11    1    5    5    0    0 -0.26123148931E+02  0.91894450054E+01 -0.91641267536E+02  0.95733937166E+02  0.00000000000E+00 0.  1.
        -11    1    5    5    0    0 -0.20407589869E+03  0.33048413162E+03 -0.70990872028E+03  0.80922007193E+03  0.00000000000E+00 0. -1.
          3    1    6    6  503    0  0.23918602450E+03  0.30249399008E+03 -0.75362233628E+03  0.84655725978E+03  0.00000000000E+00 0. -1.
         -3    1    6    6    0  503  0.59938190159E+03  0.68045347371E+03 -0.15047113497E+04  0.17568243622E+04  0.00000000000E+00 0.  1.
<mgrwt>
<rscale>  0 0.35869779E+04</rscale>
<asrwt>0</asrwt>
<pdfrwt beam="1">  1        2 0.11513845E+00 0.35869779E+04</pdfrwt>
<pdfrwt beam="2">  1       -1 0.66122661E+00 0.35869779E+04</pdfrwt>
<totfact> 0.93689708E-03</totfact>
</mgrwt>
</event>
<event>
12    6  0.1530720E-007  0.1921451E+04  0.7818608E-02  0.8644252E-01
          2   -1    0    0  501    0  0.00000000000E+00  0.00000000000E+00  0.18522517677E+04  0.18522517677E+04  0.00000000000E+00 0. -1.
         -1   -1    0    0    0  501 -0.00000000000E+00 -0.00000000000E+00 -0.49830898019E+03  0.49830898019E+03  0.00000000000E+00 0.  1.
         24    2    1    2    0    0 -0.43768993478E+03  0.37269308332E+03  0.11133955083E+04  0.12555571439E+04  0.79382430894E+02 0.  0.
        254    2    1    2    0    0  0.43768993478E+03 -0.37269308332E+03  0.24054727922E+03  0.10950036040E+04  0.90038729771E+03 0.  0.
         23    2    4    4    0    0  0.58355832580E+03 -0.22654845232E+03 -0.14501317447E+03  0.64815622114E+03  0.84930238275E+02 0.  0.
         23    2    4    4    0    0 -0.14586839102E+03 -0.14614463100E+03  0.38556045370E+03  0.44684738286E+03  0.91541681488E+02 0.  0.
          2    1    3    3  502    0 -0.31519746426E+03  0.24803278402E+03  0.70054454705E+03  0.80723749035E+03  0.00000000000E+00 0. -1.
         -1    1    3    3    0  502 -0.12249247052E+03  0.12466029930E+03  0.41285096121E+03  0.44831965351E+03  0.00000000000E+00 0.  1.
         11    1    5    5    0    0  0.26598360061E+03 -0.14318515336E+03 -0.90397272962E+02  0.31531084805E+03  0.00000000000E+00 0. -1.
        -11    1    5    5    0    0  0.31757472519E+03 -0.83363298960E+02 -0.54615901511E+02  0.33284537309E+03  0.00000000000E+00 0.  1.
          2    1    6    6  503    0 -0.15323609436E+03 -0.15238082089E+03  0.37172397868E+03  0.42997666392E+03  0.00000000000E+00 0. -1.
         -2    1    6    6    0  503  0.73677033337E+01  0.62361898968E+01  0.13836475015E+02  0.16870718944E+02  0.00000000000E+00 0.  1.
<mgrwt>
<rscale>  0 0.19214512E+04</rscale>
<asrwt>0</asrwt>
<pdfrwt beam="1">  1        2 0.28496181E+00 0.19214512E+04</pdfrwt>
<pdfrwt beam="2">  1       -1 0.76662921E-01 0.19214512E+04</pdfrwt>
<totfact> 0.14672044E+01</totfact>
</mgrwt>
</event>
<event>
12    6  0.1530720E-007  0.2247666E+04  0.7818608E-02  0.8498846E-01
          2   -1    0    0  501    0  0.00000000000E+00  0.00000000000E+00  0.13729026322E+04  0.13729026322E+04  0.00000000000E+00 0. -1.
         -1   -1    0    0    0  501 -0.00000000000E+00 -0.00000000000E+00 -0.91994900842E+03  0.91994900842E+03  0.00000000000E+00 0.  1.
         24    2    1    2    0    0  0.85169739330E+03  0.37795456860E+03  0.26425153041E+03  0.97173568938E+03  0.78760859654E+02 0.  0.
        254    2    1    2    0    0 -0.85169739330E+03 -0.37795456860E+03  0.18870209339E+03  0.13211159513E+04  0.91733351128E+03 0.  0.
         23    2    4    4    0    0 -0.35623177503E+03 -0.63195826672E+03  0.19354707433E+03  0.75634224745E+03  0.91218402044E+02 0.  0.
         23    2    4    4    0    0 -0.49546561827E+03  0.25400369812E+03 -0.48449809465E+01  0.56477370380E+03  0.94561118444E+02 0.  0.
          4    1    3    3  502    0  0.69665182601E+03  0.31080380795E+03  0.24731036717E+03  0.80192592640E+03  0.00000000000E+00 0. -1.
         -3    1    3    3    0  502  0.15504556729E+03  0.67150760651E+02  0.16941163234E+02  0.16980976298E+03  0.00000000000E+00 0.  1.
         11    1    5    5    0    0 -0.32940006007E+03 -0.57640798050E+03  0.20231092198E+03  0.69403189315E+03  0.00000000000E+00 0. -1.
        -11    1    5    5    0    0 -0.26831714961E+02 -0.55550286224E+02 -0.87638476453E+01  0.62310354299E+02  0.00000000000E+00 0.  1.
          4    1    6    6  503    0 -0.31381347128E+03  0.20260772427E+03 -0.27961399177E+02  0.37458059818E+03  0.00000000000E+00 0. -1.
         -4    1    6    6    0  503 -0.18165214699E+03  0.51395973850E+02  0.23116418230E+02  0.19019310562E+03  0.00000000000E+00 0.  1.
<mgrwt>
<rscale>  0 0.22476658E+04</rscale>
<asrwt>0</asrwt>
<pdfrwt beam="1">  1        2 0.21121579E+00 0.22476658E+04</pdfrwt>
<pdfrwt beam="2">  1       -1 0.14153062E+00 0.22476658E+04</pdfrwt>
<totfact> 0.63393851E+00</totfact>
</mgrwt>
</event>
<event>
12    6  0.1530720E-007  0.1217627E+04  0.7818608E-02  0.9097566E-01
          2   -1    0    0  501    0  0.00000000000E+00  0.00000000000E+00  0.12562809152E+04  0.12562809152E+04  0.00000000000E+00 0. -1.
         -1   -1    0    0    0  501 -0.00000000000E+00 -0.00000000000E+00 -0.29504077908E+03  0.29504077908E+03  0.00000000000E+00 0.  1.
         24    2    1    2    0    0  0.79450327678E+02 -0.18869039343E+03  0.43395442028E+03  0.48642871832E+03  0.79875152523E+02 0.  0.
        254    2    1    2    0    0 -0.79450327678E+02  0.18869039343E+03  0.52728571582E+03  0.10648929759E+04  0.90224741892E+03 0.  0.
         23    2    4    4    0    0 -0.36370970422E+03  0.42812287143E+02 -0.67566422132E+02  0.38344653747E+03  0.91369496132E+02 0.  0.
         23    2    4    4    0    0  0.28425937654E+03  0.14587810629E+03  0.59485213795E+03  0.68144643846E+03  0.91849700149E+02 0.  0.
          4    1    3    3  502    0  0.69563262163E+02 -0.18130954276E+03  0.43238310273E+03  0.47399087044E+03  0.00000000000E+00 0. -1.
         -3    1    3    3    0  502  0.98870655151E+01 -0.73808506666E+01  0.15713175514E+01  0.12437847881E+02  0.00000000000E+00 0.  1.
         11    1    5    5    0    0 -0.36043722971E+02 -0.16693009782E+02 -0.26841630412E+02  0.47940376139E+02  0.00000000000E+00 0.  1.
        -11    1    5    5    0    0 -0.32766598125E+03  0.59505296924E+02 -0.40724791719E+02  0.33550616133E+03  0.00000000000E+00 0. -1.
          2    1    6    6  503    0  0.19458466615E+03  0.57262780199E+02  0.31713530813E+03  0.37645321351E+03  0.00000000000E+00 0. -1.
         -2    1    6    6    0  503  0.89674710397E+02  0.88615326088E+02  0.27771682982E+03  0.30499322495E+03  0.00000000000E+00 0.  1.
<mgrwt>
<rscale>  0 0.12176274E+04</rscale>
<asrwt>0</asrwt>
<pdfrwt beam="1">  1        2 0.19327398E+00 0.12176274E+04</pdfrwt>
<pdfrwt beam="2">  1       -1 0.45390890E-01 0.12176274E+04</pdfrwt>
<totfact> 0.94902909E+01</totfact>
</mgrwt>
</event>
<event>
12    6  0.1530720E-007  0.1110222E+04  0.7818608E-02  0.9195285E-01
          2   -1    0    0  501    0  0.00000000000E+00  0.00000000000E+00  0.39834688660E+03  0.39834688660E+03  0.00000000000E+00 0. -1.
         -1   -1    0    0    0  501 -0.00000000000E+00 -0.00000000000E+00 -0.77356800187E+03  0.77356800187E+03  0.00000000000E+00 0.  1.
         24    2    1    2    0    0  0.14643076225E+03  0.71320921197E+02 -0.17679387275E+03  0.25289812495E+03  0.78566826507E+02 0.  0.
        254    2    1    2    0    0 -0.14643076225E+03 -0.71320921197E+02 -0.19842724252E+03  0.91901676351E+03  0.88243401969E+03 0.  0.
         23    2    4    4    0    0 -0.41234198628E+02 -0.41528913342E+03  0.10401128218E+03  0.44007481540E+03  0.93178178023E+02 0.  0.
         23    2    4    4    0    0 -0.10519656362E+03  0.34396821222E+03 -0.30243852470E+03  0.47894194811E+03  0.92389828562E+02 0.  0.
          4    1    3    3  502    0  0.87335826887E+01 -0.10074864996E+02 -0.40872813315E+02  0.42992618431E+02  0.00000000000E+00 0. -1.
         -3    1    3    3    0  502  0.13769717956E+03  0.81395786192E+02 -0.13592105944E+03  0.20990550652E+03  0.00000000000E+00 0.  1.
         11    1    5    5    0    0 -0.71506251921E+02 -0.29411152888E+03  0.75826049283E+02  0.31203257079E+03  0.00000000000E+00 0.  1.
        -11    1    5    5    0    0  0.30272053293E+02 -0.12117760453E+03  0.28185232902E+02  0.12804224461E+03  0.00000000000E+00 0. -1.
          3    1    6    6  503    0 -0.77689666951E+02  0.10493716592E+03 -0.11386977767E+03  0.17324496936E+03  0.00000000000E+00 0. -1.
         -3    1    6    6    0  503 -0.27506896667E+02  0.23903104630E+03 -0.18856874704E+03  0.30569697876E+03  0.00000000000E+00 0.  1.
<mgrwt>
<rscale>  0 0.11102223E+04</rscale>
<asrwt>0</asrwt>
<pdfrwt beam="1">  1        2 0.61284137E-01 0.11102223E+04</pdfrwt>
<pdfrwt beam="2">  1       -1 0.11901046E+00 0.11102223E+04</pdfrwt>
<totfact> 0.57350190E+01</totfact>
</mgrwt>
</event>
<event>
12    6  0.1530720E-007  0.1416504E+04  0.7818608E-02  0.8941958E-01
         -1   -1    0    0    0  501 -0.00000000000E+00  0.00000000000E+00  0.71422199080E+03  0.71422199080E+03  0.00000000000E+00 0.  1.
          2   -1    0    0  501    0  0.00000000000E+00 -0.00000000000E+00 -0.70233195222E+03  0.70233195222E+03  0.00000000000E+00 0. -1.
         24    2    1    2    0    0  0.18282166805E+02  0.11080283379E+03  0.40929155562E+03  0.43244827779E+03  0.82948356602E+02 0.  0.
        254    2    1    2    0    0 -0.18282166805E+02 -0.11080283379E+03 -0.39740151704E+03  0.98410566523E+03  0.89326619156E+03 0.  0.
         23    2    4    4    0    0 -0.12786899911E+02 -0.60130423999E+02 -0.67682643430E+03  0.68581945798E+03  0.92060491469E+02 0.  0.
         23    2    4    4    0    0 -0.54952668940E+01 -0.50672409789E+02  0.27942491725E+03  0.29828620724E+03  0.91096026126E+02 0.  0.
          2    1    3    3  502    0 -0.44321702491E+01  0.28754311582E+02  0.23570269707E+02  0.37443453123E+02  0.00000000000E+00 0. -1.
         -1    1    3    3    0  502  0.22714337054E+02  0.82048522206E+02  0.38572128591E+03  0.39500482467E+03  0.00000000000E+00 0.  1.
         11    1    5    5    0    0 -0.14904028128E+02  0.63197538331E+01 -0.20437951678E+02  0.26072575856E+02  0.00000000000E+00 0.  1.
        -11    1    5    5    0    0  0.21171282179E+01 -0.66450177832E+02 -0.65638848262E+03  0.65974688213E+03  0.00000000000E+00 0. -1.
          1    1    6    6  503    0  0.15309338263E+02 -0.13295390823E+01  0.21022846913E+03  0.21078935633E+03  0.00000000000E+00 0. -1.
         -1    1    6    6    0  503 -0.20804605157E+02 -0.49342870707E+02  0.69196448127E+02  0.87496850908E+02  0.00000000000E+00 0.  1.
<mgrwt>
<rscale>  0 0.14165040E+04</rscale>
<asrwt>0</asrwt>
<pdfrwt beam="1">  1        2 0.10805107E+00 0.14165040E+04</pdfrwt>
<pdfrwt beam="2">  1       -1 0.10988031E+00 0.14165040E+04</pdfrwt>
<totfact> 0.34678621E+01</totfact>
</mgrwt>
</event>
<event>
12    6  0.1530720E-007  0.1125224E+04  0.7818608E-02  0.9180950E-01
          2   -1    0    0  501    0  0.00000000000E+00  0.00000000000E+00  0.21290900870E+04  0.21290900870E+04  0.00000000000E+00 0. -1.
         -1   -1    0    0    0  501 -0.00000000000E+00 -0.00000000000E+00 -0.14867023413E+03  0.14867023413E+03  0.00000000000E+00 0.  1.
         24    2    1    2    0    0  0.66021434429E+02  0.55223874927E+02  0.73157883383E+03  0.74159628427E+03  0.85726032057E+02 0.  0.
        254    2    1    2    0    0 -0.66021434429E+02 -0.55223874927E+02  0.12488410191E+04  0.15361640369E+04  0.89038618090E+03 0.  0.
         23    2    4    4    0    0 -0.25349605695E+03 -0.10457948469E+03  0.12859188000E+04  0.13179863868E+04  0.91125386289E+02 0.  0.
         23    2    4    4    0    0  0.18747462252E+03  0.49355609762E+02 -0.37077780959E+02  0.21817765008E+03  0.92973194250E+02 0.  0.
          2    1    3    3  502    0  0.40417858141E+02  0.38009963453E+02  0.67393746716E+03  0.67621747257E+03  0.00000000000E+00 0. -1.
         -1    1    3    3    0  502  0.25603576287E+02  0.17213911474E+02  0.57641366672E+02  0.65378811696E+02  0.00000000000E+00 0.  1.
         11    1    5    5    0    0 -0.51632842936E+02 -0.54120119445E+02  0.47209701235E+03  0.47798590656E+03  0.00000000000E+00 0. -1.
        -11    1    5    5    0    0 -0.20186321401E+03 -0.50459365244E+02  0.81382178769E+03  0.84000048026E+03  0.00000000000E+00 0.  1.
          4    1    6    6  503    0  0.10889799577E+03  0.73270665948E+02 -0.35737481339E+02  0.13603136235E+03  0.00000000000E+00 0. -1.
         -4    1    6    6    0  503  0.78576626755E+02 -0.23915056187E+02 -0.13402996196E+01  0.82146287729E+02  0.00000000000E+00 0.  1.
<mgrwt>
<rscale>  0 0.11252241E+04</rscale>
<asrwt>0</asrwt>
<pdfrwt beam="1">  1        2 0.32755230E+00 0.11252241E+04</pdfrwt>
<pdfrwt beam="2">  1       -1 0.22872345E-01 0.11252241E+04</pdfrwt>
<totfact> 0.10455991E+02</totfact>
</mgrwt>
</event>
<event>
12    6  0.1530720E-007  0.1189055E+04  0.7818608E-02  0.9122491E-01
          2   -1    0    0  501    0  0.00000000000E+00  0.00000000000E+00  0.33089544001E+04  0.33089544001E+04  0.00000000000E+00 0. -1.
         -1   -1    0    0    0  501 -0.00000000000E+00 -0.00000000000E+00 -0.10682006295E+03  0.10682006295E+03  0.00000000000E+00 0.  1.
         24    2    1    2    0    0  0.38355592671E+02 -0.17105761060E+03  0.20416821936E+03  0.28036364744E+03  0.78659108668E+02 0.  0.
        254    2    1    2    0    0 -0.38355592671E+02  0.17105761060E+03  0.29979661178E+04  0.31354108156E+04  0.90125927547E+03 0.  0.
         23    2    4    4    0    0 -0.25723445487E+03  0.13041685150E+03  0.28160087461E+04  0.28322406950E+04  0.92217006625E+02 0.  0.
         23    2    4    4    0    0  0.21887886220E+03  0.40640759101E+02  0.18195737171E+03  0.30317012064E+03  0.96145771158E+02 0.  0.
          2    1    3    3  502    0  0.20733086406E+02 -0.14763535316E+03  0.20188245804E+03  0.25096331453E+03  0.00000000000E+00 0. -1.
         -1    1    3    3    0  502  0.17622506265E+02 -0.23422257434E+02  0.22857613199E+01  0.29400332909E+02  0.00000000000E+00 0.  1.
         11    1    5    5    0    0 -0.18585243217E+03  0.51811098655E+02  0.15959214854E+04  0.16075418825E+04  0.00000000000E+00 0.  1.
        -11    1    5    5    0    0 -0.71382022699E+02  0.78605752842E+02  0.12200872607E+04  0.12246988125E+04  0.00000000000E+00 0. -1.
          1    1    6    6  503    0  0.98759860149E+02 -0.20733851771E+01  0.26796075031E+02  0.10235154390E+03  0.00000000000E+00 0. -1.
         -1    1    6    6    0  503  0.12011900205E+03  0.42714144278E+02  0.15516129668E+03  0.20081857674E+03  0.00000000000E+00 0.  1.
<mgrwt>
<rscale>  0 0.11890546E+04</rscale>
<asrwt>0</asrwt>
<pdfrwt beam="1">  1        2 0.50906983E+00 0.11890546E+04</pdfrwt>
<pdfrwt beam="2">  1       -1 0.16433858E-01 0.11890546E+04</pdfrwt>
<totfact> 0.35776696E+01</totfact>
</mgrwt>
</event>
<event>
12    6  0.1530720E-007  0.1828845E+04  0.7818608E-02  0.8691109E-01
          2   -1    0    0  501    0  0.00000000000E+00  0.00000000000E+00  0.16234998138E+04  0.16234998138E+04  0.00000000000E+00 0. -1.
         -1   -1    0    0    0  501 -0.00000000000E+00 -0.00000000000E+00 -0.51504080244E+03  0.51504080244E+03  0.00000000000E+00 0.  1.
         24    2    1    2    0    0 -0.43137557213E+02  0.17031821065E+03 -0.35748592984E+03  0.40617250258E+03  0.79440355574E+02 0.  0.
        254    2    1    2    0    0  0.43137557213E+02 -0.17031821065E+03  0.14659449412E+04  0.17323681136E+04  0.90622048577E+03 0.  0.
         23    2    4    4    0    0  0.19568937437E+03 -0.46417182206E+03  0.11769367971E+04  0.12833999265E+04  0.90472843545E+02 0.  0.
         23    2    4    4    0    0 -0.15255181716E+03  0.29385361141E+03  0.28900814409E+03  0.44896818711E+03  0.91786294317E+02 0.  0.
          4    1    3    3  502    0  0.19961146067E+02  0.34033716392E+02 -0.47711446745E+02  0.61912222979E+02  0.00000000000E+00 0. -1.
         -3    1    3    3    0  502 -0.63098703280E+02  0.13628449426E+03 -0.30977448310E+03  0.34426027960E+03  0.00000000000E+00 0.  1.
         11    1    5    5    0    0  0.19073625060E+03 -0.45979345218E+03  0.11145088089E+04  0.12206228824E+04  0.00000000000E+00 0.  1.
        -11    1    5    5    0    0  0.49531237785E+01 -0.43783698791E+01  0.62427988149E+02  0.62777044071E+02  0.00000000000E+00 0. -1.
          4    1    6    6  503    0  0.15873862760E+01  0.76532514523E+02  0.75792523991E+02  0.10772303499E+03  0.00000000000E+00 0. -1.
         -4    1    6    6    0  503 -0.15413920344E+03  0.21732109689E+03  0.21321562010E+03  0.34124515212E+03  0.00000000000E+00 0.  1.
<mgrwt>
<rscale>  0 0.18288452E+04</rscale>
<asrwt>0</asrwt>
<pdfrwt beam="1">  1        2 0.24976920E+00 0.18288452E+04</pdfrwt>
<pdfrwt beam="2">  1       -1 0.79237047E-01 0.18288452E+04</pdfrwt>
<totfact> 0.18482169E+01</totfact>
</mgrwt>
</event>
<event>
12    6  0.1530720E-007  0.1423220E+04  0.7818608E-02  0.8937180E-01
          2   -1    0    0  501    0  0.00000000000E+00  0.00000000000E+00  0.16005939607E+04  0.16005939607E+04  0.00000000000E+00 0. -1.
         -1   -1    0    0    0  501 -0.00000000000E+00 -0.00000000000E+00 -0.31637535762E+03  0.31637535762E+03  0.00000000000E+00 0.  1.
         24    2    1    2    0    0 -0.22875553577E+03 -0.34579157842E+03  0.29034568729E+03  0.51220738292E+03  0.78453005885E+02 0.  0.
        254    2    1    2    0    0  0.22875553577E+03  0.34579157842E+03  0.99387291582E+03  0.14047619354E+04  0.90203758878E+03 0.  0.
         23    2    4    4    0    0  0.43510271466E+03  0.49595667942E+03  0.89611762368E+03  0.11164339303E+04  0.90058454363E+02 0.  0.
         23    2    4    4    0    0 -0.20634717889E+03 -0.15016510100E+03  0.97755292143E+02  0.28832800508E+03  0.91914229475E+02 0.  0.
          4    1    3    3  502    0 -0.55315153903E+02 -0.72812381639E+02  0.27607720265E+02  0.95517513522E+02  0.00000000000E+00 0. -1.
         -3    1    3    3    0  502 -0.17344038187E+03 -0.27297919678E+03  0.26273796703E+03  0.41668986939E+03  0.00000000000E+00 0.  1.
         11    1    5    5    0    0  0.34956089034E+03  0.43005110487E+03  0.70304396507E+03  0.89521370950E+03  0.00000000000E+00 0. -1.
        -11    1    5    5    0    0  0.85541824319E+02  0.65905574555E+02  0.19307365860E+03  0.22122022085E+03  0.00000000000E+00 0.  1.
          1    1    6    6  503    0 -0.96391657311E+02 -0.12004369324E+03  0.33847253611E+02  0.15763082332E+03  0.00000000000E+00 0. -1.
         -1    1    6    6    0  503 -0.10995552157E+03 -0.30121407766E+02  0.63908038533E+02  0.13069718176E+03  0.00000000000E+00 0.  1.
<mgrwt>
<rscale>  0 0.14232196E+04</rscale>
<asrwt>0</asrwt>
<pdfrwt beam="1">  1        2 0.24624522E+00 0.14232196E+04</pdfrwt>
<pdfrwt beam="2">  1       -1 0.48673133E-01 0.14232196E+04</pdfrwt>
<totfact> 0.52111714E+01</totfact>
</mgrwt>
</event>
<event>
12    6  0.1530720E-007  0.1232434E+04  0.7818608E-02  0.9084931E-01
         -1   -1    0    0    0  501 -0.00000000000E+00  0.00000000000E+00  0.25227431000E+03  0.25227431000E+03  0.00000000000E+00 0.  1.
          2   -1    0    0  501    0  0.00000000000E+00 -0.00000000000E+00 -0.15052006605E+04  0.15052006605E+04  0.00000000000E+00 0. -1.
         24    2    1    2    0    0 -0.49256969099E+02 -0.23899269450E+03 -0.11196407514E+03  0.28149643836E+03  0.84619936511E+02 0.  0.
        254    2    1    2    0    0  0.49256969099E+02  0.23899269450E+03 -0.11409622754E+04  0.14759785321E+04  0.90397674556E+03 0.  0.
         23    2    4    4    0    0 -0.56908471859E+02  0.56554151657E+03 -0.62852441975E+03  0.85235448020E+03  0.91593845625E+02 0.  0.
         23    2    4    4    0    0  0.10616544096E+03 -0.32654882207E+03 -0.51243785561E+03  0.62362405195E+03  0.91701517192E+02 0.  0.
          2    1    3    3  502    0 -0.10553152366E+02 -0.96795626774E+01  0.11346452953E+02  0.18270329857E+02  0.00000000000E+00 0. -1.
         -1    1    3    3    0  502 -0.38703816733E+02 -0.22931313182E+03 -0.12331052810E+03  0.26322610850E+03  0.00000000000E+00 0.  1.
         11    1    5    5    0    0  0.96810293033E+01  0.32456794914E+02 -0.67905319514E+02  0.75883451970E+02  0.00000000000E+00 0. -1.
        -11    1    5    5    0    0 -0.66589501162E+02  0.53308472165E+03 -0.56061910024E+03  0.77647102823E+03  0.00000000000E+00 0.  1.
          3    1    6    6  503    0  0.21028420253E+01 -0.15731420181E+02 -0.76940149218E+02  0.78560079476E+02  0.00000000000E+00 0. -1.
         -3    1    6    6    0  503  0.10406259893E+03 -0.31081740189E+03 -0.43549770639E+03  0.54506397247E+03  0.00000000000E+00 0.  1.
<mgrwt>
<rscale>  0 0.12324341E+04</rscale>
<asrwt>0</asrwt>
<pdfrwt beam="1">  1        2 0.23156934E+00 0.12324341E+04</pdfrwt>
<pdfrwt beam="2">  1       -1 0.38811431E-01 0.12324341E+04</pdfrwt>
<totfact> 0.91007619E+01</totfact>
</mgrwt>
</event>
<event>
12    6  0.1530720E-007  0.1399940E+04  0.7818608E-02  0.8953862E-01
         -1   -1    0    0    0  501 -0.00000000000E+00  0.00000000000E+00  0.31210485669E+03  0.31210485669E+03  0.00000000000E+00 0.  1.
          2   -1    0    0  501    0  0.00000000000E+00 -0.00000000000E+00 -0.15698498517E+04  0.15698498517E+04  0.00000000000E+00 0. -1.
         24    2    1    2    0    0  0.29897472839E+03 -0.80712296260E+02 -0.33886027338E+02  0.32139261264E+03  0.79022690573E+02 0.  0.
        254    2    1    2    0    0 -0.29897472839E+03  0.80712296260E+02 -0.12238589677E+04  0.15605620958E+04  0.91740008663E+03 0.  0.
         23    2    4    4    0    0 -0.47393754824E+02 -0.39759605950E+03 -0.41611935707E+03  0.58490245290E+03  0.92880383066E+02 0.  0.
         23    2    4    4    0    0 -0.25158097357E+03  0.47830835576E+03 -0.80773961062E+03  0.97565964286E+03  0.86003434199E+02 0.  0.
          4    1    3    3  502    0  0.16284129065E+02  0.13991121834E+02 -0.23196968627E+01  0.21594104360E+02  0.00000000000E+00 0. -1.
         -1    1    3    3    0  502  0.28269059933E+03 -0.94703418094E+02 -0.31566330475E+02  0.29979850828E+03  0.00000000000E+00 0.  1.
         11    1    5    5    0    0 -0.16485402491E+02 -0.17935577158E+03 -0.25357933979E+03  0.31103495441E+03  0.00000000000E+00 0.  1.
        -11    1    5    5    0    0 -0.30908352333E+02 -0.21824028792E+03 -0.16254001728E+03  0.27386749850E+03  0.00000000000E+00 0. -1.
          1    1    6    6  503    0 -0.71450983096E+01  0.74647450839E+02 -0.12308506320E+03  0.14412920290E+03  0.00000000000E+00 0. -1.
         -1    1    6    6    0  503 -0.24443587526E+03  0.40366090492E+03 -0.68465454742E+03  0.83153043996E+03  0.00000000000E+00 0.  1.
<mgrwt>
<rscale>  0 0.13999397E+04</rscale>
<asrwt>0</asrwt>
<pdfrwt beam="1">  1        2 0.24151536E+00 0.13999397E+04</pdfrwt>
<pdfrwt beam="2">  1       -1 0.48016132E-01 0.13999397E+04</pdfrwt>
<totfact> 0.55729831E+01</totfact>
</mgrwt>
</event>
<event>
12    6  0.1530720E-007  0.1727294E+04  0.7818608E-02  0.8745949E-01
         -1   -1    0    0    0  501 -0.00000000000E+00  0.00000000000E+00  0.47605412611E+03  0.47605412611E+03  0.00000000000E+00 0.  1.
          2   -1    0    0  501    0  0.00000000000E+00 -0.00000000000E+00 -0.15668099192E+04  0.15668099192E+04  0.00000000000E+00 0. -1.
         24    2    1    2    0    0  0.91786759992E+01 -0.12578224273E+03 -0.11275075315E+04  0.11372158588E+04  0.77982403137E+02 0.  0.
        254    2    1    2    0    0 -0.91786759992E+01  0.12578224273E+03  0.36751738461E+02  0.90564818648E+03  0.89607060365E+03 0.  0.
         23    2    4    4    0    0  0.16045333275E+03 -0.33653377737E+03 -0.76538729615E+02  0.39231489760E+03  0.95144870834E+02 0.  0.
         23    2    4    4    0    0 -0.16963200875E+03  0.46231602010E+03  0.11329046808E+03  0.51333328888E+03  0.90361576357E+02 0.  0.
          2    1    3    3  502    0  0.27432229611E+01 -0.13067536923E+03 -0.11126550189E+04  0.11203056585E+04  0.00000000000E+00 0. -1.
         -1    1    3    3    0  502  0.64354530381E+01  0.48931265033E+01 -0.14852512573E+02  0.16910200251E+02  0.00000000000E+00 0.  1.
         11    1    5    5    0    0  0.57520385542E+02 -0.22798373079E+03 -0.43556373771E+02  0.23912827929E+03  0.00000000000E+00 0.  1.
        -11    1    5    5    0    0  0.10293294721E+03 -0.10855004658E+03 -0.32982355845E+02  0.15318661831E+03  0.00000000000E+00 0. -1.
          3    1    6    6  503    0 -0.29714278666E+02  0.79281077217E+02  0.56067307146E+02  0.10154787291E+03  0.00000000000E+00 0. -1.
         -3    1    6    6    0  503 -0.13991773008E+03  0.38303494288E+03  0.57223160930E+02  0.41178541597E+03  0.00000000000E+00 0.  1.
<mgrwt>
<rscale>  0 0.17272942E+04</rscale>
<asrwt>0</asrwt>
<pdfrwt beam="1">  1        2 0.24104768E+00 0.17272942E+04</pdfrwt>
<pdfrwt beam="2">  1       -1 0.73239095E-01 0.17272942E+04</pdfrwt>
<totfact> 0.23659488E+01</totfact>
</mgrwt>
</event>
<event>
12    6  0.1530720E-007  0.1133172E+04  0.7818608E-02  0.9173450E-01
         -1   -1    0    0    0  501 -0.00000000000E+00  0.00000000000E+00  0.65870717080E+03  0.65870717080E+03  0.00000000000E+00 0.  1.
          2   -1    0    0  501    0  0.00000000000E+00 -0.00000000000E+00 -0.48734817046E+03  0.48734817046E+03  0.00000000000E+00 0. -1.
         24    2    1    2    0    0  0.68724056647E+02  0.51904569920E+02 -0.16799587677E+03  0.20540792362E+03  0.80948873585E+02 0.  0.
        254    2    1    2    0    0 -0.68724056647E+02 -0.51904569920E+02  0.33935487711E+03  0.94064741764E+03  0.87306285647E+03 0.  0.
         23    2    4    4    0    0 -0.52683599383E+02 -0.30831060369E+03  0.51976172119E+03  0.61353012499E+03  0.91847577336E+02 0.  0.
         23    2    4    4    0    0 -0.16040457264E+02  0.25640603377E+03 -0.18040684409E+03  0.32711729264E+03  0.91965990066E+02 0.  0.
          2    1    3    3  502    0  0.40604996588E+01  0.15989301445E+02 -0.11049288227E+03  0.11171760134E+03  0.00000000000E+00 0. -1.
         -1    1    3    3    0  502  0.64663556988E+02  0.35915268476E+02 -0.57502994504E+02  0.93690322280E+02  0.00000000000E+00 0.  1.
         11    1    5    5    0    0 -0.21044543291E+02 -0.20389939862E+03  0.25502018603E+03  0.32718975052E+03  0.00000000000E+00 0. -1.
        -11    1    5    5    0    0 -0.31639056092E+02 -0.10441120507E+03  0.26474153516E+03  0.28634037447E+03  0.00000000000E+00 0.  1.
          3    1    6    6  503    0 -0.48843415803E+02  0.15984809699E+03 -0.85207889526E+02  0.18760990863E+03  0.00000000000E+00 0. -1.
         -3    1    6    6    0  503  0.32802958539E+02  0.96557936779E+02 -0.95198954562E+02  0.13950738401E+03  0.00000000000E+00 0.  1.
<mgrwt>
<rscale>  0 0.11331721E+04</rscale>
<asrwt>0</asrwt>
<pdfrwt beam="1">  1        2 0.74976641E-01 0.11331721E+04</pdfrwt>
<pdfrwt beam="2">  1       -1 0.10133957E+00 0.11331721E+04</pdfrwt>
<totfact> 0.66501385E+01</totfact>
</mgrwt>
</event>
<event>
12    6  0.1530720E-007  0.1413841E+04  0.7818608E-02  0.8943860E-01
         -1   -1    0    0    0  501 -0.00000000000E+00  0.00000000000E+00  0.51782799904E+03  0.51782799904E+03  0.00000000000E+00 0.  1.
          2   -1    0    0  501    0  0.00000000000E+00 -0.00000000000E+00 -0.96506274036E+03  0.96506274036E+03  0.00000000000E+00 0. -1.
         24    2    1    2    0    0 -0.12261503143E+03 -0.82201869383E+02 -0.58668536068E+03  0.61021063988E+03  0.79785458043E+02 0.  0.
        254    2    1    2    0    0  0.12261503143E+03  0.82201869383E+02  0.13945061937E+03  0.87268009952E+03  0.84872403501E+03 0.  0.
         23    2    4    4    0    0  0.21439606454E+03  0.43047246896E+03  0.87039110365E+02  0.49753597567E+03  0.93241735980E+02 0.  0.
         23    2    4    4    0    0 -0.91781033111E+02 -0.34827059957E+03  0.52411509003E+02  0.37514412386E+03  0.90939423916E+02 0.  0.
          2    1    3    3  502    0 -0.12966276001E+03 -0.88922263492E+02 -0.53535460346E+03  0.55796429252E+03  0.00000000000E+00 0. -1.
         -1    1    3    3    0  502  0.70477285834E+01  0.67203941092E+01 -0.51330757225E+02  0.52246347360E+02  0.00000000000E+00 0.  1.
         11    1    5    5    0    0  0.19178792322E+03  0.41320711683E+03  0.99812203281E+02  0.46635309028E+03  0.00000000000E+00 0. -1.
        -11    1    5    5    0    0  0.22608141326E+02  0.17265352123E+02 -0.12773092916E+02  0.31182885383E+02  0.00000000000E+00 0.  1.
          3    1    6    6  503    0 -0.29169855808E+02 -0.15233273502E+03 -0.21471260316E+02  0.15657955699E+03  0.00000000000E+00 0. -1.
         -3    1    6    6    0  503 -0.62611177303E+02 -0.19593786455E+03  0.73882769319E+02  0.21856456687E+03  0.00000000000E+00 0.  1.
<mgrwt>
<rscale>  0 0.14138409E+04</rscale>
<asrwt>0</asrwt>
<pdfrwt beam="1">  1        2 0.14847119E+00 0.14138409E+04</pdfrwt>
<pdfrwt beam="2">  1       -1 0.79665847E-01 0.14138409E+04</pdfrwt>
<totfact> 0.46352520E+01</totfact>
</mgrwt>
</event>
<event>
12    6  0.1530720E-007  0.1347327E+04  0.7818608E-02  0.8992854E-01
          2   -1    0    0  501    0  0.00000000000E+00  0.00000000000E+00  0.34577826863E+04  0.34577826863E+04  0.00000000000E+00 0. -1.
         -1   -1    0    0    0  501 -0.00000000000E+00 -0.00000000000E+00 -0.13124662091E+03  0.13124662091E+03  0.00000000000E+00 0.  1.
         24    2    1    2    0    0 -0.18877727117E+03  0.10658635888E+03  0.17795943911E+04  0.17956936217E+04  0.10277098805E+03 0.  0.
        254    2    1    2    0    0  0.18877727117E+03 -0.10658635888E+03  0.15469416742E+04  0.17933356855E+04  0.88092384882E+03 0.  0.
         23    2    4    4    0    0 -0.24879682675E+03  0.19867372321E+03  0.36101804149E+03  0.48954698462E+03  0.89169022476E+02 0.  0.
         23    2    4    4    0    0  0.43757409792E+03 -0.30526008209E+03  0.11859236327E+04  0.13037887009E+04  0.93783287314E+02 0.  0.
          2    1    3    3  502    0 -0.81937146481E+02  0.62860561018E+02  0.12172049267E+04  0.12215780695E+04  0.00000000000E+00 0. -1.
         -1    1    3    3    0  502 -0.10684012469E+03  0.43725797861E+02  0.56238946439E+03  0.57411555222E+03  0.00000000000E+00 0.  1.
         11    1    5    5    0    0 -0.17788107653E+02  0.27907705112E+01 -0.38498042069E+00  0.18009813543E+02  0.00000000000E+00 0. -1.
        -11    1    5    5    0    0 -0.23100871910E+03  0.19588295270E+03  0.36140302191E+03  0.47153717107E+03  0.00000000000E+00 0.  1.
          2    1    6    6  503    0  0.53213341082E+02 -0.36604718534E+02  0.23212520880E+03  0.24094330795E+03  0.00000000000E+00 0. -1.
         -2    1    6    6    0  503  0.38436075684E+03 -0.26865536356E+03  0.95379842395E+03  0.10628453929E+04  0.00000000000E+00 0.  1.
<mgrwt>
<rscale>  0 0.13473267E+04</rscale>
<asrwt>0</asrwt>
<pdfrwt beam="1">  1        2 0.53196650E+00 0.13473267E+04</pdfrwt>
<pdfrwt beam="2">  1       -1 0.20191790E-01 0.13473267E+04</pdfrwt>
<totfact> 0.19842567E+01</totfact>
</mgrwt>
</event>
<event>
12    6  0.1530720E-007  0.1861475E+04  0.7818608E-02  0.8674274E-01
         -1   -1    0    0    0  501 -0.00000000000E+00  0.00000000000E+00  0.51882842371E+03  0.51882842371E+03  0.00000000000E+00 0.  1.
          2   -1    0    0  501    0  0.00000000000E+00 -0.00000000000E+00 -0.16696704310E+04  0.16696704310E+04  0.00000000000E+00 0. -1.
         24    2    1    2    0    0 -0.28554371763E+03 -0.30761873206E+03 -0.11031098746E+04  0.11829279603E+04  0.79389324560E+02 0.  0.
        254    2    1    2    0    0  0.28554371763E+03  0.30761873206E+03 -0.47732132656E+02  0.10055708944E+04  0.91254039258E+03 0.  0.
         23    2    4    4    0    0  0.78982648423E+02 -0.12831517125E+03  0.33734228144E+03  0.38174393887E+03  0.96049872914E+02 0.  0.
         23    2    4    4    0    0  0.20656106921E+03  0.43593390331E+03 -0.38507441410E+03  0.62382695549E+03  0.90398687101E+02 0.  0.
          4    1    3    3  502    0 -0.17725469541E+03 -0.13600302273E+03 -0.61451007861E+03  0.65386442475E+03  0.00000000000E+00 0. -1.
         -3    1    3    3    0  502 -0.10828902222E+03 -0.17161570933E+03 -0.48859979603E+03  0.52906353560E+03  0.00000000000E+00 0.  1.
         11    1    5    5    0    0  0.54676007784E+02 -0.40309973127E+02  0.63142025152E+02  0.92743059583E+02  0.00000000000E+00 0.  1.
        -11    1    5    5    0    0  0.24306640640E+02 -0.88005198126E+02  0.27420025629E+03  0.28900087928E+03  0.00000000000E+00 0. -1.
          1    1    6    6  503    0  0.36538014472E+02  0.14385336325E+03 -0.15732730027E+03  0.21628845561E+03  0.00000000000E+00 0. -1.
         -1    1    6    6    0  503  0.17002305474E+03  0.29208054007E+03 -0.22774711383E+03  0.40753849988E+03  0.00000000000E+00 0.  1.
<mgrwt>
<rscale>  0 0.18614752E+04</rscale>
<asrwt>0</asrwt>
<pdfrwt beam="1">  1        2 0.25687237E+00 0.18614752E+04</pdfrwt>
<pdfrwt beam="2">  1       -1 0.79819758E-01 0.18614752E+04</pdfrwt>
<totfact> 0.17101420E+01</totfact>
</mgrwt>
</event>
<event>
12    6  0.1530720E-007  0.1322594E+04  0.7818608E-02  0.9011837E-01
         -1   -1    0    0    0  501 -0.00000000000E+00  0.00000000000E+00  0.59236460901E+03  0.59236460901E+03  0.00000000000E+00 0.  1.
          2   -1    0    0  501    0  0.00000000000E+00 -0.00000000000E+00 -0.73825141084E+03  0.73825141084E+03  0.00000000000E+00 0. -1.
         24    2    1    2    0    0  0.14741175024E+02 -0.27785593635E+02  0.33076894519E+03  0.34184283601E+03  0.80368451362E+02 0.  0.
        254    2    1    2    0    0 -0.14741175024E+02  0.27785593635E+02 -0.47665574702E+03  0.98877318384E+03  0.86572649633E+03 0.  0.
         23    2    4    4    0    0 -0.21166192694E+03  0.32785533477E+03 -0.21436047344E+02  0.40141393475E+03  0.91562825606E+02 0.  0.
         23    2    4    4    0    0  0.19692075191E+03 -0.30006974114E+03 -0.45521969968E+03  0.58735924908E+03  0.94584779042E+02 0.  0.
          4    1    3    3  502    0  0.49945383119E+01  0.51731439007E+01 -0.18724640833E+01  0.74305418718E+01  0.00000000000E+00 0. -1.
         -3    1    3    3    0  502  0.97466367118E+01 -0.32958737536E+02  0.33264140928E+03  0.33441229414E+03  0.00000000000E+00 0.  1.
         11    1    5    5    0    0 -0.12772992223E+03  0.24212622575E+03 -0.49522179697E+02  0.27819505479E+03  0.00000000000E+00 0. -1.
        -11    1    5    5    0    0 -0.83932004706E+02  0.85729109027E+02  0.28086132353E+02  0.12321887996E+03  0.00000000000E+00 0.  1.
          3    1    6    6  503    0  0.72928916596E+02 -0.14471430386E+03 -0.13720038437E+03  0.21233182071E+03  0.00000000000E+00 0. -1.
         -3    1    6    6    0  503  0.12399183532E+03 -0.15535543728E+03 -0.31801931531E+03  0.37502742837E+03  0.00000000000E+00 0.  1.
<mgrwt>
<rscale>  0 0.13225944E+04</rscale>
<asrwt>0</asrwt>
<pdfrwt beam="1">  1        2 0.11357714E+00 0.13225944E+04</pdfrwt>
<pdfrwt beam="2">  1       -1 0.91133017E-01 0.13225944E+04</pdfrwt>
<totfact> 0.50284742E+01</totfact>
</mgrwt>
</event>
<event>
12    6  0.1530720E-007  0.1655169E+04  0.7818608E-02  0.8787354E-01
         -1   -1    0    0    0  501 -0.00000000000E+00  0.00000000000E+00  0.14821636524E+03  0.14821636524E+03  0.00000000000E+00 0.  1.
          2   -1    0    0  501    0  0.00000000000E+00 -0.00000000000E+00 -0.46209215540E+04  0.46209215540E+04  0.00000000000E+00 0. -1.
         24    2    1    2    0    0 -0.45400624237E+03 -0.51271893634E+02 -0.26120871243E+04  0.26529858930E+04  0.81145106882E+02 0.  0.
        254    2    1    2    0    0  0.45400624237E+03  0.51271893634E+02 -0.18606180645E+04  0.21161520263E+04  0.89858185000E+03 0.  0.
         23    2    4    4    0    0  0.57341654403E+03 -0.21022659373E+03 -0.78307206907E+03  0.99719505542E+03  0.90522701606E+02 0.  0.
         23    2    4    4    0    0 -0.11941030166E+03  0.26149848737E+03 -0.10775459955E+04  0.11189569709E+04  0.91208833522E+02 0.  0.
          2    1    3    3  502    0 -0.23134266944E+03 -0.48520774595E+02 -0.15380085434E+04  0.15560668288E+04  0.00000000000E+00 0. -1.
         -1    1    3    3    0  502 -0.22266357293E+03 -0.27511190393E+01 -0.10740785809E+04  0.10969190641E+04  0.00000000000E+00 0.  1.
         11    1    5    5    0    0  0.43377961169E+03 -0.12511376410E+03 -0.61240063375E+03  0.76082372577E+03  0.00000000000E+00 0. -1.
        -11    1    5    5    0    0  0.13963693234E+03 -0.85112829633E+02 -0.17067143532E+03  0.23637132964E+03  0.00000000000E+00 0.  1.
          1    1    6    6  503    0 -0.11067981711E+03  0.26793036418E+03 -0.10518621179E+04  0.10910777319E+04  0.00000000000E+00 0. -1.
         -1    1    6    6    0  503 -0.87304845520E+01 -0.64318768108E+01 -0.25683877525E+02  0.27879238952E+02  0.00000000000E+00 0.  1.
<mgrwt>
<rscale>  0 0.16551691E+04</rscale>
<asrwt>0</asrwt>
<pdfrwt beam="1">  1        2 0.71091104E+00 0.16551691E+04</pdfrwt>
<pdfrwt beam="2">  1       -1 0.22802517E-01 0.16551691E+04</pdfrwt>
<totfact> 0.17096846E+00</totfact>
</mgrwt>
</event>
<event>
12    6  0.1530720E-007  0.2505696E+04  0.7818608E-02  0.8400959E-01
          2   -1    0    0  501    0  0.00000000000E+00  0.00000000000E+00  0.10375222647E+04  0.10375222647E+04  0.00000000000E+00 0. -1.
         -1   -1    0    0    0  501 -0.00000000000E+00 -0.00000000000E+00 -0.15128625474E+04  0.15128625474E+04  0.00000000000E+00 0.  1.
         24    2    1    2    0    0  0.64831935926E+03 -0.28625201624E+03 -0.10248049418E+04  0.12487631305E+04  0.83222466672E+02 0.  0.
        254    2    1    2    0    0 -0.64831935926E+03  0.28625201624E+03  0.54946465905E+03  0.13016216817E+04  0.94342428546E+03 0.  0.
         23    2    4    4    0    0 -0.66443849979E+03 -0.17107694154E+03  0.44743856203E+03  0.82428166017E+03  0.92158280000E+02 0.  0.
         23    2    4    4    0    0  0.16119140525E+02  0.45732895778E+03  0.10202609702E+03  0.47734002156E+03  0.89635759575E+02 0.  0.
          2    1    3    3  502    0  0.52572091880E+02 -0.30613202187E+01 -0.96988499108E+02  0.11036288092E+03  0.00000000000E+00 0. -1.
         -1    1    3    3    0  502  0.59574726738E+03 -0.28319069602E+03 -0.92781644265E+03  0.11384002495E+04  0.00000000000E+00 0.  1.
         11    1    5    5    0    0 -0.36300733463E+03 -0.69356723314E+02  0.19310899550E+03  0.41698412945E+03  0.00000000000E+00 0. -1.
        -11    1    5    5    0    0 -0.30143116515E+03 -0.10172021823E+03  0.25432956652E+03  0.40729753072E+03  0.00000000000E+00 0.  1.
          3    1    6    6  503    0  0.40266562311E+02  0.36751530254E+03  0.10484764017E+03  0.38429405576E+03  0.00000000000E+00 0. -1.
         -3    1    6    6    0  503 -0.24147421786E+02  0.89813655238E+02 -0.28215431484E+01  0.93045965801E+02  0.00000000000E+00 0.  1.
<mgrwt>
<rscale>  0 0.25056964E+04</rscale>
<asrwt>0</asrwt>
<pdfrwt beam="1">  1        2 0.15961881E+00 0.25056964E+04</pdfrwt>
<pdfrwt beam="2">  1       -1 0.23274808E+00 0.25056964E+04</pdfrwt>
<totfact> 0.21926539E+00</totfact>
</mgrwt>
</event>
<event>
12    6  0.1530720E-007  0.1470147E+04  0.7818608E-02  0.8904551E-01
          2   -1    0    0  501    0  0.00000000000E+00  0.00000000000E+00  0.12502089124E+04  0.12502089124E+04  0.00000000000E+00 0. -1.
         -1   -1    0    0    0  501 -0.00000000000E+00 -0.00000000000E+00 -0.43219394503E+03  0.43219394503E+03  0.00000000000E+00 0.  1.
         24    2    1    2    0    0 -0.29098321134E+03  0.26586097955E+02  0.65444662375E+03  0.72137104476E+03  0.81839788569E+02 0.  0.
        254    2    1    2    0    0  0.29098321134E+03 -0.26586097955E+02  0.16356834361E+03  0.96103181266E+03  0.90080491341E+03 0.  0.
         23    2    4    4    0    0 -0.17162207496E+03 -0.12877119125E+03  0.36933390475E+03  0.43675155398E+03  0.91149494764E+02 0.  0.
         23    2    4    4    0    0  0.46260528631E+03  0.10218509329E+03 -0.20576556114E+03  0.52428025868E+03  0.89915956769E+02 0.  0.
          2    1    3    3  502    0 -0.25271332340E+03  0.25882181581E+02  0.61941379877E+03  0.66948290886E+03  0.00000000000E+00 0. -1.
         -1    1    3    3    0  502 -0.38269887944E+02  0.70391637391E+00  0.35032824987E+02  0.51888135909E+02  0.00000000000E+00 0.  1.
         11    1    5    5    0    0 -0.72747940340E+02 -0.52413842592E+02  0.74613917189E+02  0.11664780477E+03  0.00000000000E+00 0. -1.
        -11    1    5    5    0    0 -0.98874134624E+02 -0.76357348654E+02  0.29471998756E+03  0.32010374921E+03  0.00000000000E+00 0.  1.
          4    1    6    6  503    0  0.14137625590E+03  0.69660058962E+02 -0.46871043112E+02  0.16442829510E+03  0.00000000000E+00 0. -1.
         -4    1    6    6    0  503  0.32122903041E+03  0.32525034329E+02 -0.15889451803E+03  0.35985196359E+03  0.00000000000E+00 0.  1.
<mgrwt>
<rscale>  0 0.14701466E+04</rscale>
<asrwt>0</asrwt>
<pdfrwt beam="1">  1        2 0.19233983E+00 0.14701466E+04</pdfrwt>
<pdfrwt beam="2">  1       -1 0.66491377E-01 0.14701466E+04</pdfrwt>
<totfact> 0.44743299E+01</totfact>
</mgrwt>
</event>
<event>
12    6  0.1530720E-007  0.1439035E+04  0.7818608E-02  0.8926038E-01
          2   -1    0    0  501    0  0.00000000000E+00  0.00000000000E+00  0.10272417667E+04  0.10272417667E+04  0.00000000000E+00 0. -1.
         -1   -1    0    0    0  501 -0.00000000000E+00 -0.00000000000E+00 -0.50397596898E+03  0.50397596898E+03  0.00000000000E+00 0.  1.
         24    2    1    2    0    0 -0.23006499723E+03 -0.37964080177E+02  0.55426762379E+03  0.60739467410E+03  0.85700157630E+02 0.  0.
        254    2    1    2    0    0  0.23006499723E+03  0.37964080177E+02 -0.31001826103E+02  0.92382306155E+03  0.89337380837E+03 0.  0.
         23    2    4    4    0    0  0.29978582581E+03  0.39031548768E+03 -0.16773891850E+03  0.52785628140E+03  0.90984546774E+02 0.  0.
         23    2    4    4    0    0 -0.69720828578E+02 -0.35235140751E+03  0.13673709240E+03  0.39596678015E+03  0.95289822302E+02 0.  0.
          4    1    3    3  502    0 -0.51540065913E+02 -0.39989022021E+01  0.52267471386E+02  0.73513659807E+02  0.00000000000E+00 0. -1.
         -1    1    3    3    0  502 -0.17852493132E+03 -0.33965177974E+02  0.50200015240E+03  0.53388101430E+03  0.00000000000E+00 0.  1.
         11    1    5    5    0    0  0.23986677863E+03  0.30800682016E+03 -0.17052782015E+03  0.42600940154E+03  0.00000000000E+00 0. -1.
        -11    1    5    5    0    0  0.59919047180E+02  0.82308667525E+02  0.27889016533E+01  0.10184687986E+03  0.00000000000E+00 0.  1.
          3    1    6    6  503    0 -0.15123033967E+02 -0.28187710984E+03  0.98668974845E+02  0.29903006171E+03  0.00000000000E+00 0. -1.
         -3    1    6    6    0  503 -0.54597794611E+02 -0.70474297665E+02  0.38068117551E+02  0.96936718438E+02  0.00000000000E+00 0.  1.
<mgrwt>
<rscale>  0 0.14390346E+04</rscale>
<asrwt>0</asrwt>
<pdfrwt beam="1">  1        2 0.15803719E+00 0.14390346E+04</pdfrwt>
<pdfrwt beam="2">  1       -1 0.77534765E-01 0.14390346E+04</pdfrwt>
<totfact> 0.44674693E+01</totfact>
</mgrwt>
</event>
<event>
12    6  0.1530720E-007  0.1722534E+04  0.7818608E-02  0.8748616E-01
         -1   -1    0    0    0  501 -0.00000000000E+00  0.00000000000E+00  0.42262799069E+03  0.42262799069E+03  0.00000000000E+00 0.  1.
          2   -1    0    0  501    0  0.00000000000E+00 -0.00000000000E+00 -0.17551616740E+04  0.17551616740E+04  0.00000000000E+00 0. -1.
         24    2    1    2    0    0  0.39969595799E+03  0.33797678651E+02  0.11886639176E+03  0.42598515015E+03  0.80218371587E+02 0.  0.
        254    2    1    2    0    0 -0.39969595799E+03 -0.33797678651E+02 -0.14514000751E+04  0.17518045146E+04  0.89518586750E+03 0.  0.
         23    2    4    4    0    0 -0.58682038849E+02 -0.41409192017E+03 -0.43539515402E+03  0.61086940309E+03  0.93149275130E+02 0.  0.
         23    2    4    4    0    0 -0.34101391914E+03  0.38029424152E+03 -0.10160049211E+04  0.11409351115E+04  0.92480948212E+02 0.  0.
          2    1    3    3  502    0  0.61307697092E+02 -0.10232016398E+02 -0.63875942195E+01  0.62483031634E+02  0.00000000000E+00 0. -1.
         -1    1    3    3    0  502  0.33838826090E+03  0.44029695049E+02  0.12525398598E+03  0.36350211851E+03  0.00000000000E+00 0.  1.
         11    1    5    5    0    0 -0.34326983300E+02 -0.73986963984E+02 -0.47390037907E+02  0.94330420941E+02  0.00000000000E+00 0.  1.
        -11    1    5    5    0    0 -0.24355055550E+02 -0.34010495618E+03 -0.38800511611E+03  0.51653898215E+03  0.00000000000E+00 0. -1.
          4    1    6    6  503    0 -0.31264919847E+03  0.31109446402E+03 -0.81895434969E+03  0.93016961556E+03  0.00000000000E+00 0. -1.
         -4    1    6    6    0  503 -0.28364720671E+02  0.69199777499E+02 -0.19705057140E+03  0.21076549593E+03  0.00000000000E+00 0.  1.
<mgrwt>
<rscale>  0 0.17225335E+04</rscale>
<asrwt>0</asrwt>
<pdfrwt beam="1">  1        2 0.27002486E+00 0.17225335E+04</pdfrwt>
<pdfrwt beam="2">  1       -1 0.65019693E-01 0.17225335E+04</pdfrwt>
<totfact> 0.23710949E+01</totfact>
</mgrwt>
</event>
<event>
12    6  0.1530720E-007  0.2432881E+04  0.7818608E-02  0.8427295E-01
         -1   -1    0    0    0  501 -0.00000000000E+00  0.00000000000E+00  0.12580079450E+04  0.12580079450E+04  0.00000000000E+00 0.  1.
          2   -1    0    0  501    0  0.00000000000E+00 -0.00000000000E+00 -0.11762462847E+04  0.11762462847E+04  0.00000000000E+00 0. -1.
         24    2    1    2    0    0  0.53763853411E+03 -0.61927582151E+03 -0.62071294629E+03  0.10306541542E+04  0.66375352072E+02 0.  0.
        254    2    1    2    0    0 -0.53763853411E+03  0.61927582151E+03  0.70247460662E+03  0.14036000755E+04  0.89669663913E+03 0.  0.
         23    2    4    4    0    0  0.13196972677E+03 -0.67644644320E+02  0.32680342534E+03  0.36928942071E+03  0.87076924270E+02 0.  0.
         23    2    4    4    0    0 -0.66960826088E+03  0.68692046583E+03  0.37567118128E+03  0.10343106548E+04  0.91840866945E+02 0.  0.
          4    1    3    3  502    0  0.26911715869E+03 -0.30509397296E+03 -0.34930032744E+03  0.53620620677E+03  0.00000000000E+00 0. -1.
         -3    1    3    3    0  502  0.26852137542E+03 -0.31418184855E+03 -0.27141261886E+03  0.49444794740E+03  0.00000000000E+00 0.  1.
         11    1    5    5    0    0  0.30821414238E+02 -0.43108834281E+02  0.47287533757E+02  0.71024235424E+02  0.00000000000E+00 0.  1.
        -11    1    5    5    0    0  0.10114831253E+03 -0.24535810040E+02  0.27951589159E+03  0.29826518528E+03  0.00000000000E+00 0. -1.
          2    1    6    6  503    0 -0.37716572817E+03  0.45055393179E+03  0.23523363204E+03  0.63291997409E+03  0.00000000000E+00 0. -1.
         -2    1    6    6    0  503 -0.29244253271E+03  0.23636653404E+03  0.14043754923E+03  0.40139068074E+03  0.00000000000E+00 0.  1.
<mgrwt>
<rscale>  0 0.24328807E+04</rscale>
<asrwt>0</asrwt>
<pdfrwt beam="1">  1        2 0.18096097E+00 0.24328807E+04</pdfrwt>
<pdfrwt beam="2">  1       -1 0.19353968E+00 0.24328807E+04</pdfrwt>
<totfact> 0.33391134E+00</totfact>
</mgrwt>
</event>
<event>
12    6  0.1530720E-007  0.1145282E+04  0.7818608E-02  0.9162147E-01
          2   -1    0    0  501    0  0.00000000000E+00  0.00000000000E+00  0.16686130061E+04  0.16686130061E+04  0.00000000000E+00 0. -1.
         -1   -1    0    0    0  501 -0.00000000000E+00 -0.00000000000E+00 -0.19652121988E+03  0.19652121988E+03  0.00000000000E+00 0.  1.
         24    2    1    2    0    0 -0.12573383642E+03  0.18394008152E+02  0.44062527420E+03  0.46701597492E+03  0.88351295468E+02 0.  0.
        254    2    1    2    0    0  0.12573383642E+03 -0.18394008152E+02  0.10314665120E+04  0.13981182511E+04  0.93523480547E+03 0.  0.
         23    2    4    4    0    0  0.21171158475E+03 -0.30973974943E+03  0.79435648050E+02  0.39408478999E+03  0.90731979056E+02 0.  0.
         23    2    4    4    0    0 -0.85977748329E+02  0.29134574128E+03  0.95203086398E+03  0.10040334611E+04  0.97190075705E+02 0.  0.
          2    1    3    3  502    0 -0.11778655745E+03  0.43680618824E+02  0.39197009681E+03  0.41160931278E+03  0.00000000000E+00 0. -1.
         -1    1    3    3    0  502 -0.79472789647E+01 -0.25286610672E+02  0.48655177389E+02  0.55406662136E+02  0.00000000000E+00 0.  1.
         11    1    5    5    0    0  0.18022978649E+03 -0.28994197665E+03  0.46761245372E+02  0.34458052735E+03  0.00000000000E+00 0. -1.
        -11    1    5    5    0    0  0.31481798261E+02 -0.19797772785E+02  0.32674402678E+02  0.49504262638E+02  0.00000000000E+00 0.  1.
          2    1    6    6  503    0  0.10550933398E+02  0.83353357275E+02  0.34651008037E+03  0.35655061374E+03  0.00000000000E+00 0. -1.
         -2    1    6    6    0  503 -0.96528681727E+02  0.20799238401E+03  0.60552078361E+03  0.64748284733E+03  0.00000000000E+00 0.  1.
<mgrwt>
<rscale>  0 0.11452823E+04</rscale>
<asrwt>0</asrwt>
<pdfrwt beam="1">  1        2 0.25670968E+00 0.11452823E+04</pdfrwt>
<pdfrwt beam="2">  1       -1 0.30234035E-01 0.11452823E+04</pdfrwt>
<totfact> 0.11590460E+02</totfact>
</mgrwt>
</event>
<event>
12    6  0.1530720E-007  0.2539387E+04  0.7818608E-02  0.8389087E-01
         -1   -1    0    0    0  501 -0.00000000000E+00  0.00000000000E+00  0.83873186465E+03  0.83873186465E+03  0.00000000000E+00 0.  1.
          2   -1    0    0  501    0  0.00000000000E+00 -0.00000000000E+00 -0.19220934004E+04  0.19220934004E+04  0.00000000000E+00 0. -1.
         24    2    1    2    0    0 -0.91841636482E+01  0.15620277240E+03 -0.16667364384E+04  0.16759004700E+04  0.78411576226E+02 0.  0.
        254    2    1    2    0    0  0.91841636482E+01 -0.15620277240E+03  0.58337490262E+03  0.10849247951E+04  0.90125017560E+03 0.  0.
         23    2    4    4    0    0  0.59731041903E+02  0.35634693958E+03  0.35231255384E+03  0.51266594621E+03  0.90284539631E+02 0.  0.
         23    2    4    4    0    0 -0.50546878255E+02 -0.51254971198E+03  0.23106234878E+03  0.57225884888E+03  0.93958432006E+02 0.  0.
          4    1    3    3  502    0  0.26378130536E+02  0.68620545022E+02 -0.96985865928E+03  0.97264094297E+03  0.00000000000E+00 0. -1.
         -3    1    3    3    0  502 -0.35562294185E+02  0.87582227379E+02 -0.69687777913E+03  0.70325952704E+03  0.00000000000E+00 0.  1.
         11    1    5    5    0    0 -0.22522554243E+02  0.12107149401E+03  0.12004376785E+03  0.17197697029E+03  0.00000000000E+00 0. -1.
        -11    1    5    5    0    0  0.82253596146E+02  0.23527544556E+03  0.23226878600E+03  0.34068897592E+03  0.00000000000E+00 0.  1.
          4    1    6    6  503    0 -0.15316137489E+02 -0.38271549669E+03  0.13176746036E+03  0.40505357557E+03  0.00000000000E+00 0. -1.
         -4    1    6    6    0  503 -0.35230740766E+02 -0.12983421528E+03  0.99294888422E+02  0.16720527330E+03  0.00000000000E+00 0.  1.
<mgrwt>
<rscale>  0 0.25393865E+04</rscale>
<asrwt>0</asrwt>
<pdfrwt beam="1">  1        2 0.29570668E+00 0.25393865E+04</pdfrwt>
<pdfrwt beam="2">  1       -1 0.12903567E+00 0.25393865E+04</pdfrwt>
<totfact> 0.38591819E+00</totfact>
</mgrwt>
</event>
<event>
12    6  0.1530720E-007  0.1430254E+04  0.7818608E-02  0.8932206E-01
         -1   -1    0    0    0  501 -0.00000000000E+00  0.00000000000E+00  0.30143147642E+03  0.30143147642E+03  0.00000000000E+00 0.  1.
          2   -1    0    0  501    0  0.00000000000E+00 -0.00000000000E+00 -0.16965928739E+04  0.16965928739E+04  0.00000000000E+00 0. -1.
         24    2    1    2    0    0 -0.28224536427E+03 -0.13245378265E+03 -0.57134195876E+03  0.65607528571E+03  0.82442079539E+02 0.  0.
        254    2    1    2    0    0  0.28224536427E+03  0.13245378265E+03 -0.82381943868E+03  0.13419490646E+04  0.10123943768E+04 0.  0.
         23    2    4    4    0    0 -0.12574002218E+03 -0.74187561657E+02  0.17202720345E+03  0.24202994922E+03  0.87583046927E+02 0.  0.
         23    2    4    4    0    0  0.40798538645E+03  0.20664134431E+03 -0.99584664213E+03  0.10999191153E+04  0.94650963688E+02 0.  0.
          2    1    3    3  502    0 -0.47270531574E+02 -0.43029110515E+02 -0.67353251173E+02  0.92857245009E+02  0.00000000000E+00 0. -1.
         -1    1    3    3    0  502 -0.23497483270E+03 -0.89424672139E+02 -0.50398870759E+03  0.56321804070E+03  0.00000000000E+00 0.  1.
         11    1    5    5    0    0 -0.44215773009E+02 -0.66760653973E+02  0.47803712700E+02  0.93258857218E+02  0.00000000000E+00 0.  1.
        -11    1    5    5    0    0 -0.81524249173E+02 -0.74269076843E+01  0.12422349075E+03  0.14877109200E+03  0.00000000000E+00 0. -1.
          4    1    6    6  503    0  0.23519428897E+03  0.69622455822E+02 -0.56387398956E+03  0.61491260844E+03  0.00000000000E+00 0. -1.
         -4    1    6    6    0  503  0.17279109748E+03  0.13701888849E+03 -0.43197265258E+03  0.48500650691E+03  0.00000000000E+00 0.  1.
<mgrwt>
<rscale>  0 0.14302538E+04</rscale>
<asrwt>0</asrwt>
<pdfrwt beam="1">  1        2 0.26101429E+00 0.14302538E+04</pdfrwt>
<pdfrwt beam="2">  1       -1 0.46374074E-01 0.14302538E+04</pdfrwt>
<totfact> 0.50443419E+01</totfact>
</mgrwt>
</event>
<event>
12    6  0.1530720E-007  0.2924814E+04  0.7818608E-02  0.8265533E-01
         -1   -1    0    0    0  501 -0.00000000000E+00  0.00000000000E+00  0.82937916563E+03  0.82937916563E+03  0.00000000000E+00 0.  1.
          2   -1    0    0  501    0  0.00000000000E+00 -0.00000000000E+00 -0.25785971446E+04  0.25785971446E+04  0.00000000000E+00 0. -1.
         24    2    1    2    0    0  0.71678904897E+03  0.95586039463E+03 -0.14579253504E+04  0.18866014601E+04  0.79139795656E+02 0.  0.
        254    2    1    2    0    0 -0.71678904897E+03 -0.95586039463E+03 -0.29129262866E+03  0.15213748502E+04  0.89569771940E+03 0.  0.
         23    2    4    4    0    0 -0.60123202804E+03 -0.93505982184E+03  0.84435653316E+02  0.11186186525E+04  0.91441173577E+02 0.  0.
         23    2    4    4    0    0 -0.11555702092E+03 -0.20800572788E+02 -0.37572828198E+03  0.40275619768E+03  0.85174667464E+02 0.  0.
          4    1    3    3  502    0  0.68779597044E+03  0.92365591253E+03 -0.14250807829E+04  0.18322278187E+04  0.00000000000E+00 0. -1.
         -3    1    3    3    0  502  0.28993078530E+02  0.32204482101E+02 -0.32844567443E+02  0.54373641413E+02  0.00000000000E+00 0.  1.
         11    1    5    5    0    0 -0.29757010912E+03 -0.52363260776E+03  0.14039866134E+02  0.60244186076E+03  0.00000000000E+00 0. -1.
        -11    1    5    5    0    0 -0.30366191893E+03 -0.41142721408E+03  0.70395787182E+02  0.51617679175E+03  0.00000000000E+00 0.  1.
          1    1    6    6  503    0 -0.62428473160E+02 -0.49961326101E+02 -0.26142696201E+03  0.27338161027E+03  0.00000000000E+00 0. -1.
         -1    1    6    6    0  503 -0.53128547765E+02  0.29160753314E+02 -0.11430131997E+03  0.12937458741E+03  0.00000000000E+00 0.  1.
<mgrwt>
<rscale>  0 0.29248144E+04</rscale>
<asrwt>0</asrwt>
<pdfrwt beam="1">  1        2 0.39670725E+00 0.29248144E+04</pdfrwt>
<pdfrwt beam="2">  1       -1 0.12759680E+00 0.29248144E+04</pdfrwt>
<totfact> 0.16296721E+00</totfact>
</mgrwt>
</event>
<event>
12    6  0.1530720E-007  0.1128442E+04  0.7818608E-02  0.9177905E-01
          2   -1    0    0  501    0  0.00000000000E+00  0.00000000000E+00  0.56583604045E+03  0.56583604045E+03  0.00000000000E+00 0. -1.
         -1   -1    0    0    0  501 -0.00000000000E+00 -0.00000000000E+00 -0.56261069596E+03  0.56261069596E+03  0.00000000000E+00 0.  1.
         24    2    1    2    0    0 -0.10569940405E+02 -0.17716863915E+02 -0.18071414602E+03  0.19849459960E+03  0.79478881405E+02 0.  0.
        254    2    1    2    0    0  0.10569940405E+02  0.17716863915E+02  0.18393949051E+03  0.92995213682E+03  0.91134605376E+03 0.  0.
         23    2    4    4    0    0 -0.63581829425E+02 -0.32460241383E+03  0.38676746814E+03  0.51523519848E+03  0.80429218819E+02 0.  0.
         23    2    4    4    0    0  0.74151769830E+02  0.34231927775E+03 -0.20282797763E+03  0.41471693834E+03  0.90387928123E+02 0.  0.
          2    1    3    3  502    0 -0.21062000947E+02 -0.45698043938E+02 -0.91702773316E+02  0.10460075400E+03  0.00000000000E+00 0. -1.
         -1    1    3    3    0  502  0.10492060542E+02  0.27981180023E+02 -0.89011372705E+02  0.93893845595E+02  0.00000000000E+00 0.  1.
         11    1    5    5    0    0 -0.11296593971E+02 -0.12842010821E+03  0.20804339117E+03  0.24474760435E+03  0.00000000000E+00 0.  1.
        -11    1    5    5    0    0 -0.52285235455E+02 -0.19618230562E+03  0.17872407697E+03  0.27048759412E+03  0.00000000000E+00 0. -1.
          2    1    6    6  503    0  0.13617498141E+02  0.22134875716E+03 -0.93014975938E+02  0.24048387535E+03  0.00000000000E+00 0. -1.
         -2    1    6    6    0  503  0.60534271689E+02  0.12097052058E+03 -0.10981300169E+03  0.17423306299E+03  0.00000000000E+00 0.  1.
<mgrwt>
<rscale>  0 0.11284421E+04</rscale>
<asrwt>0</asrwt>
<pdfrwt beam="1">  1        2 0.87051699E-01 0.11284421E+04</pdfrwt>
<pdfrwt beam="2">  1       -1 0.86555492E-01 0.11284421E+04</pdfrwt>
<totfact> 0.79405046E+01</totfact>
</mgrwt>
</event>
<event>
12    6  0.1530720E-007  0.1809569E+04  0.7818608E-02  0.8701227E-01
         -1   -1    0    0    0  501 -0.00000000000E+00  0.00000000000E+00  0.47468526193E+03  0.47468526193E+03  0.00000000000E+00 0.  1.
          2   -1    0    0  501    0  0.00000000000E+00 -0.00000000000E+00 -0.17245855230E+04  0.17245855230E+04  0.00000000000E+00 0. -1.
         24    2    1    2    0    0 -0.68640482508E+03 -0.15961184190E+01 -0.46620034874E+03  0.83340806797E+03  0.77923751870E+02 0.  0.
        254    2    1    2    0    0  0.68640482508E+03  0.15961184190E+01 -0.78369991232E+03  0.13658627169E+04  0.88331267256E+03 0.  0.
         23    2    4    4    0    0  0.29402915276E+03 -0.42887460142E+03 -0.37041013022E+03  0.64674502523E+03  0.10338712045E+03 0.  0.
         23    2    4    4    0    0  0.39237567231E+03  0.43047071984E+03 -0.41328978210E+03  0.71911769172E+03  0.84012509156E+02 0.  0.
          4    1    3    3  502    0 -0.54358602472E+03  0.10111657201E+02 -0.33170539138E+03  0.63688027019E+03  0.00000000000E+00 0. -1.
         -3    1    3    3    0  502 -0.14281880036E+03 -0.11707775620E+02 -0.13449495736E+03  0.19652779778E+03  0.00000000000E+00 0.  1.
         11    1    5    5    0    0  0.28018278149E+03 -0.35266887321E+03 -0.33628130949E+03  0.56210572341E+03  0.00000000000E+00 0. -1.
        -11    1    5    5    0    0  0.13846371276E+02 -0.76205728205E+02 -0.34128820729E+02  0.84639301823E+02  0.00000000000E+00 0.  1.
          3    1    6    6  503    0  0.30199820064E+03  0.35454058201E+03 -0.29107105187E+03  0.54920332730E+03  0.00000000000E+00 0. -1.
         -3    1    6    6    0  503  0.90377471676E+02  0.75930137826E+02 -0.12221873023E+03  0.16991436442E+03  0.00000000000E+00 0.  1.
<mgrwt>
<rscale>  0 0.18095694E+04</rscale>
<asrwt>0</asrwt>
<pdfrwt beam="1">  1        2 0.26532085E+00 0.18095694E+04</pdfrwt>
<pdfrwt beam="2">  1       -1 0.73028502E-01 0.18095694E+04</pdfrwt>
<totfact> 0.19299383E+01</totfact>
</mgrwt>
</event>
<event>
12    6  0.1530720E-007  0.1842400E+04  0.7818608E-02  0.8684071E-01
         -1   -1    0    0    0  501 -0.00000000000E+00  0.00000000000E+00  0.61860938698E+03  0.61860938698E+03  0.00000000000E+00 0.  1.
          2   -1    0    0  501    0  0.00000000000E+00 -0.00000000000E+00 -0.13718011844E+04  0.13718011844E+04  0.00000000000E+00 0. -1.
         24    2    1    2    0    0 -0.33486864788E+03 -0.50479197907E+03 -0.66789088801E+03  0.90517497456E+03  0.79445218969E+02 0.  0.
        254    2    1    2    0    0  0.33486864788E+03  0.50479197907E+03 -0.85300909364E+02  0.10852355968E+04  0.89638613437E+03 0.  0.
         23    2    4    4    0    0  0.46475347087E+03  0.42320579818E+02 -0.28944076077E+03  0.55646279787E+03  0.89933704763E+02 0.  0.
         23    2    4    4    0    0 -0.12988482299E+03  0.46247139925E+03  0.20413985141E+03  0.52877279890E+03  0.84721494090E+02 0.  0.
          4    1    3    3  502    0 -0.32062656427E+03 -0.45055325649E+03 -0.62538240662E+03  0.83480703468E+03  0.00000000000E+00 0. -1.
         -3    1    3    3    0  502 -0.14242083618E+02 -0.54238722573E+02 -0.42508481391E+02  0.70367939876E+02  0.00000000000E+00 0.  1.
         11    1    5    5    0    0  0.10410622306E+03 -0.28355778394E+01 -0.10870804153E+03  0.15054429407E+03  0.00000000000E+00 0.  1.
        -11    1    5    5    0    0  0.36064724780E+03  0.45156157657E+02 -0.18073271924E+03  0.40591850380E+03  0.00000000000E+00 0. -1.
          1    1    6    6  503    0 -0.39868425021E+02  0.12271510001E+03  0.15741794150E+02  0.12998573448E+03  0.00000000000E+00 0. -1.
         -1    1    6    6    0  503 -0.90016397965E+02  0.33975629924E+03  0.18839805726E+03  0.39878706442E+03  0.00000000000E+00 0.  1.
<mgrwt>
<rscale>  0 0.18423996E+04</rscale>
<asrwt>0</asrwt>
<pdfrwt beam="1">  1        2 0.21104633E+00 0.18423996E+04</pdfrwt>
<pdfrwt beam="2">  1       -1 0.95170675E-01 0.18423996E+04</pdfrwt>
<totfact> 0.17178646E+01</totfact>
</mgrwt>
</event>
<event>
12    6  0.1530720E-007  0.3707496E+04  0.7818608E-02  0.8066303E-01
         -1   -1    0    0    0  501 -0.00000000000E+00  0.00000000000E+00  0.18613929442E+04  0.18613929442E+04  0.00000000000E+00 0.  1.
          2   -1    0    0  501    0  0.00000000000E+00 -0.00000000000E+00 -0.18461345907E+04  0.18461345907E+04  0.00000000000E+00 0. -1.
         24    2    1    2    0    0 -0.26417591375E+03  0.92615973321E+03 -0.14496158657E+04  0.17423046738E+04  0.81723029795E+02 0.  0.
        254    2    1    2    0    0  0.26417591375E+03 -0.92615973321E+03  0.14648742191E+04  0.19652228611E+04  0.88807862883E+03 0.  0.
         23    2    4    4    0    0  0.39112102891E+03 -0.77998368996E+02  0.26770052718E+03  0.48916006692E+03  0.92491048188E+02 0.  0.
         23    2    4    4    0    0 -0.12694511516E+03 -0.84816136422E+03  0.11971736919E+04  0.14760627941E+04  0.10021856900E+03 0.  0.
          2    1    3    3  502    0 -0.78750157230E+02  0.28183090077E+03 -0.51021041731E+03  0.58817082027E+03  0.00000000000E+00 0. -1.
         -1    1    3    3    0  502 -0.18542575652E+03  0.64432883245E+03 -0.93940544836E+03  0.11541338535E+04  0.00000000000E+00 0.  1.
         11    1    5    5    0    0  0.80576791254E+02  0.90385237200E+01  0.22868331714E+02  0.84245325065E+02  0.00000000000E+00 0. -1.
        -11    1    5    5    0    0  0.31054423766E+03 -0.87036892716E+02  0.24483219547E+03  0.40491474186E+03  0.00000000000E+00 0.  1.
          3    1    6    6  503    0 -0.10026543134E+02 -0.11529741178E+03  0.22479586897E+03  0.25283830294E+03  0.00000000000E+00 0. -1.
         -3    1    6    6    0  503 -0.11691857203E+03 -0.73286395244E+03  0.97237782297E+03  0.12232244912E+04  0.00000000000E+00 0.  1.
<mgrwt>
<rscale>  0 0.37074961E+04</rscale>
<asrwt>0</asrwt>
<pdfrwt beam="1">  1        2 0.28402071E+00 0.37074961E+04</pdfrwt>
<pdfrwt beam="2">  1       -1 0.28636815E+00 0.37074961E+04</pdfrwt>
<totfact> 0.30267206E-01</totfact>
</mgrwt>
</event>
<event>
12    6  0.1530720E-007  0.1926976E+04  0.7818608E-02  0.8641544E-01
          2   -1    0    0  501    0  0.00000000000E+00  0.00000000000E+00  0.10902766397E+04  0.10902766397E+04  0.00000000000E+00 0. -1.
         -1   -1    0    0    0  501 -0.00000000000E+00 -0.00000000000E+00 -0.85144370030E+03  0.85144370030E+03  0.00000000000E+00 0.  1.
         24    2    1    2    0    0 -0.24939105857E+03  0.64827044200E+03 -0.19698459391E+03  0.72527303990E+03  0.69047708953E+02 0.  0.
        254    2    1    2    0    0  0.24939105857E+03 -0.64827044200E+03  0.43581753333E+03  0.12164473001E+04  0.89853026969E+03 0.  0.
         23    2    4    4    0    0  0.53352638449E+03 -0.31843575441E+03  0.44732741496E+03  0.77102160313E+03  0.91218220145E+02 0.  0.
         23    2    4    4    0    0 -0.28413532592E+03 -0.32983468759E+03 -0.11509881624E+02  0.44542569699E+03  0.93529511900E+02 0.  0.
          4    1    3    3  502    0 -0.53807822274E+02  0.20138622160E+03 -0.82687842227E+02  0.22425202617E+03  0.00000000000E+00 0. -1.
         -3    1    3    3    0  502 -0.19558323629E+03  0.44688422040E+03 -0.11429675168E+03  0.50102101374E+03  0.00000000000E+00 0.  1.
         11    1    5    5    0    0  0.33160910972E+03 -0.15675660456E+03  0.22798670233E+03  0.43187402233E+03  0.00000000000E+00 0.  1.
        -11    1    5    5    0    0  0.20191727476E+03 -0.16167914985E+03  0.21934071263E+03  0.33914758080E+03  0.00000000000E+00 0. -1.
          3    1    6    6  503    0 -0.15166894284E+03 -0.19804353286E+03 -0.50581937601E+02  0.25452552238E+03  0.00000000000E+00 0. -1.
         -3    1    6    6    0  503 -0.13246638307E+03 -0.13179115473E+03  0.39072055977E+02  0.19090017461E+03  0.00000000000E+00 0.  1.
<mgrwt>
<rscale>  0 0.19269761E+04</rscale>
<asrwt>0</asrwt>
<pdfrwt beam="1">  1        2 0.16773487E+00 0.19269761E+04</pdfrwt>
<pdfrwt beam="2">  1       -1 0.13099134E+00 0.19269761E+04</pdfrwt>
<totfact> 0.11714253E+01</totfact>
</mgrwt>
</event>
<event>
12    6  0.1530720E-007  0.1517971E+04  0.7818608E-02  0.8872590E-01
         -1   -1    0    0    0  501 -0.00000000000E+00  0.00000000000E+00  0.12055550592E+04  0.12055550592E+04  0.00000000000E+00 0.  1.
          2   -1    0    0  501    0  0.00000000000E+00 -0.00000000000E+00 -0.47783693456E+03  0.47783693456E+03  0.00000000000E+00 0. -1.
         24    2    1    2    0    0  0.33998013449E+03 -0.23681477968E+03  0.52971924953E+03  0.67726137445E+03  0.80079674575E+02 0.  0.
        254    2    1    2    0    0 -0.33998013449E+03  0.23681477968E+03  0.19799887512E+03  0.10061306193E+04  0.89522485268E+03 0.  0.
         23    2    4    4    0    0 -0.36064260086E+03  0.30628232407E+03  0.49277289824E+03  0.68899262506E+03  0.89519609912E+02 0.  0.
         23    2    4    4    0    0  0.20662466374E+02 -0.69467544390E+02 -0.29477402311E+03  0.31713799426E+03  0.91826496499E+02 0.  0.
          4    1    3    3  502    0  0.10980314613E+03 -0.37637649145E+02  0.17289168291E+03  0.20824230490E+03  0.00000000000E+00 0. -1.
         -3    1    3    3    0  502  0.23017698836E+03 -0.19917713053E+03  0.35682756662E+03  0.46901906955E+03  0.00000000000E+00 0.  1.
         11    1    5    5    0    0 -0.30120867576E+03  0.28005828131E+03  0.38624838931E+03  0.56422258509E+03  0.00000000000E+00 0.  1.
        -11    1    5    5    0    0 -0.59433925108E+02  0.26224042756E+02  0.10652450893E+03  0.12477003997E+03  0.00000000000E+00 0. -1.
          1    1    6    6  503    0 -0.41388845413E+01  0.14328268649E+02 -0.71656019354E+01  0.16546162661E+02  0.00000000000E+00 0. -1.
         -1    1    6    6    0  503  0.24801350915E+02 -0.83795813039E+02 -0.28760842118E+03  0.30059183160E+03  0.00000000000E+00 0.  1.
<mgrwt>
<rscale>  0 0.15179707E+04</rscale>
<asrwt>0</asrwt>
<pdfrwt beam="1">  1        2 0.73513375E-01 0.15179707E+04</pdfrwt>
<pdfrwt beam="2">  1       -1 0.18547001E+00 0.15179707E+04</pdfrwt>
<totfact> 0.13618133E+01</totfact>
</mgrwt>
</event>
<event>
12    6  0.1530720E-007  0.1729253E+04  0.7818608E-02  0.8744854E-01
         -1   -1    0    0    0  501 -0.00000000000E+00  0.00000000000E+00  0.31763100778E+03  0.31763100778E+03  0.00000000000E+00 0.  1.
          2   -1    0    0  501    0  0.00000000000E+00 -0.00000000000E+00 -0.23536070355E+04  0.23536070355E+04  0.00000000000E+00 0. -1.
         24    2    1    2    0    0 -0.17702461599E+03  0.49381159587E+03 -0.12851112415E+04  0.13903776657E+04  0.80321500735E+02 0.  0.
        254    2    1    2    0    0  0.17702461599E+03 -0.49381159587E+03 -0.75086478628E+03  0.12808603776E+04  0.89533109673E+03 0.  0.
         23    2    4    4    0    0 -0.35710602378E+03 -0.22236009321E+03 -0.28026294609E+03  0.51385881744E+03  0.92384208821E+02 0.  0.
         23    2    4    4    0    0  0.53413063977E+03 -0.27145150266E+03 -0.47060184019E+03  0.76700156016E+03  0.88565471022E+02 0.  0.
          4    1    3    3  502    0 -0.86059600945E+02  0.34943618868E+03 -0.88835705309E+03  0.95848325945E+03  0.00000000000E+00 0. -1.
         -3    1    3    3    0  502 -0.90965015044E+02  0.14437540719E+03 -0.39675418836E+03  0.43189440624E+03  0.00000000000E+00 0.  1.
         11    1    5    5    0    0 -0.12542775695E+03 -0.28855025426E+02 -0.77859720689E+02  0.15042230823E+03  0.00000000000E+00 0. -1.
        -11    1    5    5    0    0 -0.23167826683E+03 -0.19350506778E+03 -0.20240322540E+03  0.36343650922E+03  0.00000000000E+00 0.  1.
          4    1    6    6  503    0  0.23090726266E+03 -0.15374522641E+03 -0.25470301777E+03  0.37660242412E+03  0.00000000000E+00 0. -1.
         -4    1    6    6    0  503  0.30322337712E+03 -0.11770627624E+03 -0.21589882242E+03  0.39039913604E+03  0.00000000000E+00 0.  1.
<mgrwt>
<rscale>  0 0.17292525E+04</rscale>
<asrwt>0</asrwt>
<pdfrwt beam="1">  1        2 0.36209337E+00 0.17292525E+04</pdfrwt>
<pdfrwt beam="2">  1       -1 0.48866311E-01 0.17292525E+04</pdfrwt>
<totfact> 0.19173496E+01</totfact>
</mgrwt>
</event>
<event>
12    6  0.1530720E-007  0.2091600E+04  0.7818608E-02  0.8564953E-01
         -1   -1    0    0    0  501 -0.00000000000E+00  0.00000000000E+00  0.56108357400E+03  0.56108357400E+03  0.00000000000E+00 0.  1.
          2   -1    0    0  501    0  0.00000000000E+00 -0.00000000000E+00 -0.19492605553E+04  0.19492605553E+04  0.00000000000E+00 0. -1.
         24    2    1    2    0    0 -0.55192665016E+03  0.17553322165E+03  0.17781430515E+03  0.61115114694E+03  0.80329684656E+02 0.  0.
        254    2    1    2    0    0  0.55192665016E+03 -0.17553322165E+03 -0.15659912865E+04  0.18991929824E+04  0.90508029257E+03 0.  0.
         23    2    4    4    0    0  0.72779037588E+03 -0.22678824176E+03 -0.80965935363E+03  0.11156218699E+04  0.89174827297E+02 0.  0.
         23    2    4    4    0    0 -0.17586372573E+03  0.51255020110E+02 -0.75633193286E+03  0.78357111252E+03  0.91600046922E+02 0.  0.
          2    1    3    3  502    0 -0.26831553562E+02 -0.48827143041E+01 -0.24851881193E+01  0.27385202674E+02  0.00000000000E+00 0. -1.
         -1    1    3    3    0  502 -0.52509509660E+03  0.18041593596E+03  0.18029949327E+03  0.58376594427E+03  0.00000000000E+00 0.  1.
         11    1    5    5    0    0  0.99655181573E+02 -0.11414737100E+02 -0.74367924846E+02  0.12486808913E+03  0.00000000000E+00 0.  1.
        -11    1    5    5    0    0  0.62813519431E+03 -0.21537350466E+03 -0.73529142879E+03  0.99075378076E+03  0.00000000000E+00 0. -1.
          2    1    6    6  503    0 -0.17274274414E+03  0.47323714907E+02 -0.75752560052E+03  0.77841160390E+03  0.00000000000E+00 0. -1.
         -2    1    6    6    0  503 -0.31209815894E+01  0.39313052022E+01  0.11936676610E+01  0.51595086160E+01  0.00000000000E+00 0.  1.
<mgrwt>
<rscale>  0 0.20916004E+04</rscale>
<asrwt>0</asrwt>
<pdfrwt beam="1">  1        2 0.29988624E+00 0.20916004E+04</pdfrwt>
<pdfrwt beam="2">  1       -1 0.86320548E-01 0.20916004E+04</pdfrwt>
<totfact> 0.99093417E+00</totfact>
</mgrwt>
</event>
<event>
12    6  0.1530720E-007  0.2617416E+04  0.7818608E-02  0.8362309E-01
          2   -1    0    0  501    0  0.00000000000E+00  0.00000000000E+00  0.46765780366E+04  0.46765780366E+04  0.00000000000E+00 0. -1.
         -1   -1    0    0    0  501 -0.00000000000E+00 -0.00000000000E+00 -0.36623299099E+03  0.36623299099E+03  0.00000000000E+00 0.  1.
         24    2    1    2    0    0  0.11122357506E+04 -0.25923410740E+03  0.16278560750E+04  0.19901659267E+04  0.81082227419E+02 0.  0.
        254    2    1    2    0    0 -0.11122357506E+04  0.25923410740E+03  0.26824889706E+04  0.30526451009E+04  0.90477861776E+03 0.  0.
         23    2    4    4    0    0 -0.92285029981E+02 -0.26680835975E+03  0.68830855135E+03  0.75002211385E+03  0.95190765409E+02 0.  0.
         23    2    4    4    0    0 -0.10199507206E+04  0.52604246716E+03  0.19941804193E+04  0.23026229870E+04  0.91087464022E+02 0.  0.
          4    1    3    3  502    0  0.11053343736E+04 -0.25987452232E+03  0.16255636885E+04  0.19828656410E+04  0.00000000000E+00 0. -1.
         -3    1    3    3    0  502  0.69013769303E+01  0.64041491620E+00  0.22923864158E+01  0.73002856300E+01  0.00000000000E+00 0.  1.
         11    1    5    5    0    0 -0.12514371777E+02 -0.91660849643E+02  0.33680733877E+03  0.34928141134E+03  0.00000000000E+00 0. -1.
        -11    1    5    5    0    0 -0.79770658204E+02 -0.17514751011E+03  0.35150121258E+03  0.40074070252E+03  0.00000000000E+00 0.  1.
          3    1    6    6  503    0 -0.88317826347E+03  0.41901041447E+03  0.16889701457E+04  0.19514593836E+04  0.00000000000E+00 0. -1.
         -3    1    6    6    0  503 -0.13677245712E+03  0.10703205268E+03  0.30521027356E+03  0.35116360349E+03  0.00000000000E+00 0.  1.
<mgrwt>
<rscale>  0 0.26174164E+04</rscale>
<asrwt>0</asrwt>
<pdfrwt beam="1">  1        2 0.71947350E+00 0.26174164E+04</pdfrwt>
<pdfrwt beam="2">  1       -1 0.56343540E-01 0.26174164E+04</pdfrwt>
<totfact> 0.26154193E-01</totfact>
</mgrwt>
</event>
<event>
12    6  0.1530720E-007  0.1693492E+04  0.7818608E-02  0.8765085E-01
          2   -1    0    0  501    0  0.00000000000E+00  0.00000000000E+00  0.36594254203E+04  0.36594254203E+04  0.00000000000E+00 0. -1.
         -1   -1    0    0    0  501 -0.00000000000E+00 -0.00000000000E+00 -0.19592660641E+03  0.19592660641E+03  0.00000000000E+00 0.  1.
         24    2    1    2    0    0 -0.19263148858E+03 -0.13212904603E+03 -0.22679770755E+02  0.24808321779E+03  0.80411042476E+02 0.  0.
        254    2    1    2    0    0  0.19263148858E+03  0.13212904603E+03  0.34861785846E+04  0.36072688089E+04  0.89687354772E+03 0.  0.
         23    2    4    4    0    0  0.52641951608E+03  0.52695102623E+02  0.25269651469E+04  0.25834653064E+04  0.94052403200E+02 0.  0.
         23    2    4    4    0    0 -0.33378802750E+03  0.79433943406E+02  0.95921343765E+03  0.10238035025E+04  0.10177914386E+03 0.  0.
          4    1    3    3  502    0 -0.77846870996E+02 -0.71172717899E+02  0.27109602204E+02  0.10890648111E+03  0.00000000000E+00 0. -1.
         -3    1    3    3    0  502 -0.11478461758E+03 -0.60956328130E+02 -0.49789372959E+02  0.13917673668E+03  0.00000000000E+00 0.  1.
         11    1    5    5    0    0  0.17420422177E+03 -0.37867532417E+01  0.65279270234E+03  0.67564766159E+03  0.00000000000E+00 0. -1.
        -11    1    5    5    0    0  0.35221529431E+03  0.56481855865E+02  0.18741724446E+04  0.19078176448E+04  0.00000000000E+00 0.  1.
          1    1    6    6  503    0 -0.85921297186E+02  0.30376989831E+01  0.37287444881E+03  0.38265787787E+03  0.00000000000E+00 0. -1.
         -1    1    6    6    0  503 -0.24786673031E+03  0.76396244423E+02  0.58633898884E+03  0.64114562464E+03  0.00000000000E+00 0.  1.
<mgrwt>
<rscale>  0 0.16934920E+04</rscale>
<asrwt>0</asrwt>
<pdfrwt beam="1">  1        2 0.56298848E+00 0.16934920E+04</pdfrwt>
<pdfrwt beam="2">  1       -1 0.30142557E-01 0.16934920E+04</pdfrwt>
<totfact> 0.69413494E+00</totfact>
</mgrwt>
</event>
<event>
12    6  0.1530720E-007  0.1877265E+04  0.7818608E-02  0.8666257E-01
         -1   -1    0    0    0  501 -0.00000000000E+00  0.00000000000E+00  0.22742281561E+03  0.22742281561E+03  0.00000000000E+00 0.  1.
          2   -1    0    0  501    0  0.00000000000E+00 -0.00000000000E+00 -0.38739766664E+04  0.38739766664E+04  0.00000000000E+00 0. -1.
         24    2    1    2    0    0  0.45906527542E+03 -0.52508172501E+03 -0.17970129020E+04  0.19291909907E+04  0.77915105827E+02 0.  0.
        254    2    1    2    0    0 -0.45906527542E+03  0.52508172501E+03 -0.18495409488E+04  0.21722084912E+04  0.90068655106E+03 0.  0.
         23    2    4    4    0    0  0.15226465360E+03  0.22293778361E+03 -0.11686265628E+03  0.30800212832E+03  0.91228561966E+02 0.  0.
         23    2    4    4    0    0 -0.61132992902E+03  0.30214394140E+03 -0.17326782925E+04  0.18642063629E+04  0.89866873247E+02 0.  0.
          2    1    3    3  502    0  0.41824860308E+03 -0.46728026352E+03 -0.15448065394E+04  0.16672462274E+04  0.00000000000E+00 0. -1.
         -1    1    3    3    0  502  0.40816672346E+02 -0.57801461495E+02 -0.25220636264E+03  0.26194476336E+03  0.00000000000E+00 0.  1.
         11    1    5    5    0    0 -0.45005621152E+00  0.50130401073E+02 -0.15348744983E+01  0.50155911935E+02  0.00000000000E+00 0. -1.
        -11    1    5    5    0    0  0.15271470981E+03  0.17280738254E+03 -0.11532778178E+03  0.25784621638E+03  0.00000000000E+00 0.  1.
          2    1    6    6  503    0 -0.23391977386E+02 -0.11593732485E+01 -0.34341043290E+02  0.41567246800E+02  0.00000000000E+00 0. -1.
         -2    1    6    6    0  503 -0.58793795163E+03  0.30330331465E+03 -0.16983372492E+04  0.18226391161E+04  0.00000000000E+00 0.  1.
<mgrwt>
<rscale>  0 0.18772647E+04</rscale>
<asrwt>0</asrwt>
<pdfrwt beam="1">  1        2 0.59599636E+00 0.18772647E+04</pdfrwt>
<pdfrwt beam="2">  1       -1 0.34988128E-01 0.18772647E+04</pdfrwt>
<totfact> 0.36129508E+00</totfact>
</mgrwt>
</event>
<event>
12    6  0.1530720E-007  0.1381955E+04  0.7818608E-02  0.8966985E-01
         -1   -1    0    0    0  501 -0.00000000000E+00  0.00000000000E+00  0.46352564548E+03  0.46352564548E+03  0.00000000000E+00 0.  1.
          2   -1    0    0  501    0  0.00000000000E+00 -0.00000000000E+00 -0.10300401215E+04  0.10300401215E+04  0.00000000000E+00 0. -1.
         24    2    1    2    0    0 -0.23769867977E+03  0.31249581892E+02  0.13274078293E+03  0.28403095362E+03  0.74674416129E+02 0.  0.
        254    2    1    2    0    0  0.23769867977E+03 -0.31249581892E+02 -0.69925525891E+03  0.12095348133E+04  0.95736061585E+03 0.  0.
         23    2    4    4    0    0  0.35246279541E+03  0.33399636171E+03 -0.64372677064E+03  0.81121044888E+03  0.88851816857E+02 0.  0.
         23    2    4    4    0    0 -0.11476411564E+03 -0.36524594360E+03 -0.55528488274E+02  0.39832436444E+03  0.94886694230E+02 0.  0.
          2    1    3    3  502    0 -0.12700313358E+03  0.54045424076E+02  0.69842568408E+02  0.15468900467E+03  0.00000000000E+00 0. -1.
         -1    1    3    3    0  502 -0.11069554619E+03 -0.22795842184E+02  0.62898214524E+02  0.12934194895E+03  0.00000000000E+00 0.  1.
         11    1    5    5    0    0  0.33893272742E+03  0.28508604377E+03 -0.57839121575E+03  0.72848187659E+03  0.00000000000E+00 0.  1.
        -11    1    5    5    0    0  0.13530067991E+02  0.48910317937E+02 -0.65335554888E+02  0.82728572290E+02  0.00000000000E+00 0. -1.
          4    1    6    6  503    0  0.13056475654E+02 -0.65201880236E+02 -0.23890039677E+02  0.70657559671E+02  0.00000000000E+00 0. -1.
         -4    1    6    6    0  503 -0.12782059129E+03 -0.30004406336E+03 -0.31638448597E+02  0.32766680477E+03  0.00000000000E+00 0.  1.
<mgrwt>
<rscale>  0 0.13819552E+04</rscale>
<asrwt>0</asrwt>
<pdfrwt beam="1">  1        2 0.15846771E+00 0.13819552E+04</pdfrwt>
<pdfrwt beam="2">  1       -1 0.71311638E-01 0.13819552E+04</pdfrwt>
<totfact> 0.53210706E+01</totfact>
</mgrwt>
</event>
<event>
12    6  0.1530720E-007  0.1956233E+04  0.7818608E-02  0.8627361E-01
         -1   -1    0    0    0  501 -0.00000000000E+00  0.00000000000E+00  0.10973808874E+04  0.10973808874E+04  0.00000000000E+00 0.  1.
          2   -1    0    0  501    0  0.00000000000E+00 -0.00000000000E+00 -0.87181361466E+03  0.87181361466E+03  0.00000000000E+00 0. -1.
         24    2    1    2    0    0  0.67599327282E+03  0.16379682251E+03 -0.24411443189E+03  0.74151886224E+03  0.80386959398E+02 0.  0.
        254    2    1    2    0    0 -0.67599327282E+03 -0.16379682251E+03  0.46968170467E+03  0.12276756399E+04  0.89598564109E+03 0.  0.
         23    2    4    4    0    0  0.58585771426E+02  0.66016768631E+02 -0.17733958118E+03  0.21789395784E+03  0.90763117271E+02 0.  0.
         23    2    4    4    0    0 -0.73457904425E+03 -0.22981359114E+03  0.64702128585E+03  0.10097816820E+04  0.92746116313E+02 0.  0.
          2    1    3    3  502    0  0.94087118566E+02  0.29459204869E+02 -0.66057249305E+01  0.98812277747E+02  0.00000000000E+00 0. -1.
         -1    1    3    3    0  502  0.58190615425E+03  0.13433761764E+03 -0.23750870696E+03  0.64270658450E+03  0.00000000000E+00 0.  1.
         11    1    5    5    0    0 -0.51712104243E+01 -0.11872634378E+02 -0.68224153547E+02  0.69442321329E+02  0.00000000000E+00 0.  1.
        -11    1    5    5    0    0  0.63756981850E+02  0.77889403009E+02 -0.10911542763E+03  0.14845163651E+03  0.00000000000E+00 0. -1.
          1    1    6    6  503    0 -0.72453829751E+03 -0.22063098400E+03  0.61726422479E+03  0.97706135880E+03  0.00000000000E+00 0. -1.
         -1    1    6    6    0  503 -0.10040746738E+02 -0.91826071431E+01  0.29757061058E+02  0.32720323223E+02  0.00000000000E+00 0.  1.
<mgrwt>
<rscale>  0 0.19562327E+04</rscale>
<asrwt>0</asrwt>
<pdfrwt beam="1">  1        2 0.13412517E+00 0.19562327E+04</pdfrwt>
<pdfrwt beam="2">  1       -1 0.16882783E+00 0.19562327E+04</pdfrwt>
<totfact> 0.81853431E+00</totfact>
</mgrwt>
</event>
<event>
12    6  0.1530720E-007  0.2378192E+04  0.7818608E-02  0.8447714E-01
         -1   -1    0    0    0  501 -0.00000000000E+00  0.00000000000E+00  0.19863342725E+04  0.19863342725E+04  0.00000000000E+00 0.  1.
          2   -1    0    0  501    0  0.00000000000E+00 -0.00000000000E+00 -0.71183831462E+03  0.71183831462E+03  0.00000000000E+00 0. -1.
         24    2    1    2    0    0 -0.50931310836E+03  0.13099320572E+03  0.15385708512E+04  0.16279359216E+04  0.80100177710E+02 0.  0.
        254    2    1    2    0    0  0.50931310836E+03 -0.13099320572E+03 -0.26407489335E+03  0.10702366655E+04  0.89393059491E+03 0.  0.
         23    2    4    4    0    0 -0.15003955811E+03 -0.20274932369E+02  0.18657420563E+03  0.25807156877E+03  0.94170369655E+02 0.  0.
         23    2    4    4    0    0  0.65935266647E+03 -0.11071827335E+03 -0.45064909899E+03  0.81216509669E+03  0.97586162082E+02 0.  0.
          2    1    3    3  502    0 -0.21124328513E+03  0.57432738811E+02  0.52280007651E+03  0.56678229066E+03  0.00000000000E+00 0. -1.
         -1    1    3    3    0  502 -0.29806982322E+03  0.73560466905E+02  0.10157707747E+04  0.10611536310E+04  0.00000000000E+00 0.  1.
         11    1    5    5    0    0 -0.72300619495E+02 -0.25195505274E+02  0.28227181051E+02  0.81602492703E+02  0.00000000000E+00 0. -1.
        -11    1    5    5    0    0 -0.77738938617E+02  0.49205729055E+01  0.15834702458E+03  0.17646907607E+03  0.00000000000E+00 0.  1.
          1    1    6    6  503    0  0.11185081024E+03 -0.32741773630E+02 -0.12262628896E+03  0.16917397624E+03  0.00000000000E+00 0. -1.
         -1    1    6    6    0  503  0.54750185623E+03 -0.77976499718E+02 -0.32802281003E+03  0.64299112045E+03  0.00000000000E+00 0.  1.
<mgrwt>
<rscale>  0 0.23781916E+04</rscale>
<asrwt>0</asrwt>
<pdfrwt beam="1">  1        2 0.10951359E+00 0.23781916E+04</pdfrwt>
<pdfrwt beam="2">  1       -1 0.30558989E+00 0.23781916E+04</pdfrwt>
<totfact> 0.12525534E+00</totfact>
</mgrwt>
</event>
<event>
12    6  0.1530720E-007  0.1948852E+04  0.7818608E-02  0.8630914E-01
          2   -1    0    0  501    0  0.00000000000E+00  0.00000000000E+00  0.21254554378E+04  0.21254554378E+04  0.00000000000E+00 0. -1.
         -1   -1    0    0    0  501 -0.00000000000E+00 -0.00000000000E+00 -0.44673076526E+03  0.44673076526E+03  0.00000000000E+00 0.  1.
         24    2    1    2    0    0 -0.60952471879E+03 -0.44611202470E+03  0.47570836958E+03  0.89628281647E+03  0.80548822574E+02 0.  0.
        254    2    1    2    0    0  0.60952471879E+03  0.44611202470E+03  0.12030163029E+04  0.16759033866E+04  0.88930737914E+03 0.  0.
         23    2    4    4    0    0  0.29170856608E+03  0.87320633010E+02  0.11407104215E+04  0.11843673390E+04  0.93738719642E+02 0.  0.
         23    2    4    4    0    0  0.31781615271E+03  0.35879139169E+03  0.62305881439E+02  0.49153604755E+03  0.89371659430E+02 0.  0.
          2    1    3    3  502    0 -0.14913866421E+03 -0.73309777305E+02  0.12397780849E+03  0.20733345511E+03  0.00000000000E+00 0. -1.
         -1    1    3    3    0  502 -0.46038605458E+03 -0.37280224739E+03  0.35173056109E+03  0.68894936136E+03  0.00000000000E+00 0.  1.
         11    1    5    5    0    0  0.25330031849E+03  0.10603272824E+03  0.10201262450E+04  0.10564381414E+04  0.00000000000E+00 0. -1.
        -11    1    5    5    0    0  0.38408247587E+02 -0.18712095226E+02  0.12058417648E+03  0.12792919763E+03  0.00000000000E+00 0.  1.
          3    1    6    6  503    0  0.31145029331E+03  0.31476623260E+03  0.51786166317E+02  0.44582605734E+03  0.00000000000E+00 0. -1.
         -3    1    6    6    0  503  0.63658594041E+01  0.44025159085E+02  0.10519715122E+02  0.45709990206E+02  0.00000000000E+00 0.  1.
<mgrwt>
<rscale>  0 0.19488523E+04</rscale>
<asrwt>0</asrwt>
<pdfrwt beam="1">  1        2 0.32699314E+00 0.19488523E+04</pdfrwt>
<pdfrwt beam="2">  1       -1 0.68727811E-01 0.19488523E+04</pdfrwt>
<totfact> 0.12939723E+01</totfact>
</mgrwt>
</event>
<event>
12    6  0.1530720E-007  0.2335548E+04  0.7818608E-02  0.8464035E-01
          2   -1    0    0  501    0  0.00000000000E+00  0.00000000000E+00  0.21450698329E+04  0.21450698329E+04  0.00000000000E+00 0. -1.
         -1   -1    0    0    0  501 -0.00000000000E+00 -0.00000000000E+00 -0.63573525163E+03  0.63573525163E+03  0.00000000000E+00 0.  1.
         24    2    1    2    0    0  0.79358868459E+03 -0.60046281094E+03  0.66533575457E+03  0.11997498938E+04  0.79934683543E+02 0.  0.
        254    2    1    2    0    0 -0.79358868459E+03  0.60046281094E+03  0.84399882672E+03  0.15810551908E+04  0.89278379757E+03 0.  0.
         23    2    4    4    0    0 -0.45708246471E+03 -0.35343779355E+02 -0.14384161300E+01  0.46737770015E+03  0.90919102893E+02 0.  0.
         23    2    4    4    0    0 -0.33650621988E+03  0.63580659030E+03  0.84543724285E+03  0.11136774906E+04  0.89593332845E+02 0.  0.
          4    1    3    3  502    0  0.68353205787E+03 -0.51242340424E+03  0.53632561428E+03  0.10086818051E+04  0.00000000000E+00 0. -1.
         -3    1    3    3    0  502  0.11005662672E+03 -0.88039406701E+02  0.12901014029E+03  0.19106808868E+03  0.00000000000E+00 0.  1.
         11    1    5    5    0    0 -0.25465982632E+03 -0.64910271664E+02 -0.16121610576E+01  0.26280709574E+03  0.00000000000E+00 0.  1.
        -11    1    5    5    0    0 -0.20242263839E+03  0.29566492309E+02  0.17374492754E+00  0.20457060441E+03  0.00000000000E+00 0. -1.
          2    1    6    6  503    0  0.16228704012E+01 -0.21801778252E+01  0.47690466992E+01  0.54891429301E+01  0.00000000000E+00 0. -1.
         -2    1    6    6    0  503 -0.33812909028E+03  0.63798676812E+03  0.84066819615E+03  0.11081883477E+04  0.00000000000E+00 0.  1.
<mgrwt>
<rscale>  0 0.23355483E+04</rscale>
<asrwt>0</asrwt>
<pdfrwt beam="1">  1        2 0.33001074E+00 0.23355483E+04</pdfrwt>
<pdfrwt beam="2">  1       -1 0.97805424E-01 0.23355483E+04</pdfrwt>
<totfact> 0.57171058E+00</totfact>
</mgrwt>
</event>
<event>
12    6  0.1530720E-007  0.1718451E+04  0.7818608E-02  0.8750910E-01
          2   -1    0    0  501    0  0.00000000000E+00  0.00000000000E+00  0.35146818346E+04  0.35146818346E+04  0.00000000000E+00 0. -1.
         -1   -1    0    0    0  501 -0.00000000000E+00 -0.00000000000E+00 -0.21005282013E+03  0.21005282013E+03  0.00000000000E+00 0.  1.
         24    2    1    2    0    0 -0.54591048549E+03 -0.12825537418E+03  0.68877559493E+03  0.89177686468E+03  0.79915311671E+02 0.  0.
        254    2    1    2    0    0  0.54591048549E+03  0.12825537418E+03  0.26158534195E+04  0.28329577900E+04  0.93192973367E+03 0.  0.
         23    2    4    4    0    0  0.21313519229E+03  0.39476025582E+03  0.52534163244E+03  0.69738864715E+03  0.95419204724E+02 0.  0.
         23    2    4    4    0    0  0.33277529319E+03 -0.26650488163E+03  0.20905117871E+04  0.21355691429E+04  0.93014968764E+02 0.  0.
          4    1    3    3  502    0 -0.13085687295E+03  0.58805591107E+00  0.18228424688E+03  0.22439120675E+03  0.00000000000E+00 0. -1.
         -3    1    3    3    0  502 -0.41505361253E+03 -0.12884343009E+03  0.50649134805E+03  0.66738565793E+03  0.00000000000E+00 0.  1.
         11    1    5    5    0    0  0.72562768645E+02  0.91526545472E+02  0.19596800879E+03  0.22813575868E+03  0.00000000000E+00 0.  1.
        -11    1    5    5    0    0  0.14057242365E+03  0.30323371034E+03  0.32937362365E+03  0.46925288847E+03  0.00000000000E+00 0. -1.
          1    1    6    6  503    0  0.14715319797E+03 -0.85812826678E+02  0.10223486507E+04  0.10364432780E+04  0.00000000000E+00 0. -1.
         -1    1    6    6    0  503  0.18562209523E+03 -0.18069205496E+03  0.10681631363E+04  0.10991258648E+04  0.00000000000E+00 0.  1.
<mgrwt>
<rscale>  0 0.17184514E+04</rscale>
<asrwt>0</asrwt>
<pdfrwt beam="1">  1        2 0.54072024E+00 0.17184514E+04</pdfrwt>
<pdfrwt beam="2">  1       -1 0.32315821E-01 0.17184514E+04</pdfrwt>
<totfact> 0.77604864E+00</totfact>
</mgrwt>
</event>
<event>
12    6  0.1530720E-007  0.1434779E+04  0.7818608E-02  0.8929022E-01
          2   -1    0    0  501    0  0.00000000000E+00  0.00000000000E+00  0.19224078904E+04  0.19224078904E+04  0.00000000000E+00 0. -1.
         -1   -1    0    0    0  501 -0.00000000000E+00 -0.00000000000E+00 -0.26770980309E+03  0.26770980309E+03  0.00000000000E+00 0.  1.
         24    2    1    2    0    0 -0.14083311081E+03  0.15194878733E+03 -0.63542164071E+02  0.23160211442E+03  0.81728414385E+02 0.  0.
        254    2    1    2    0    0  0.14083311081E+03 -0.15194878733E+03  0.17182402513E+04  0.19585155790E+04  0.91679404062E+03 0.  0.
         23    2    4    4    0    0 -0.36089564841E+03  0.59488429388E+02  0.55486027920E+03  0.67082743416E+03  0.91405550728E+02 0.  0.
         23    2    4    4    0    0  0.50172875922E+03 -0.21143721672E+03  0.11633799721E+04  0.12876881449E+04  0.90831461765E+02 0.  0.
          4    1    3    3  502    0 -0.62925089672E+02  0.23174630395E+02 -0.43098614347E+02  0.79712740279E+02  0.00000000000E+00 0. -1.
         -3    1    3    3    0  502 -0.77908021142E+02  0.12877415693E+03 -0.20443549724E+02  0.15188937414E+03  0.00000000000E+00 0.  1.
         11    1    5    5    0    0  0.37849991951E+01  0.35240579374E+01  0.90196779147E+00  0.52496427640E+01  0.00000000000E+00 0. -1.
        -11    1    5    5    0    0 -0.36468064760E+03  0.55964371451E+02  0.55395831141E+03  0.66557779139E+03  0.00000000000E+00 0.  1.
          3    1    6    6  503    0  0.82491529575E+02 -0.10742886046E+00  0.17201616942E+03  0.19077323328E+03  0.00000000000E+00 0. -1.
         -3    1    6    6    0  503  0.41923722965E+03 -0.21132978786E+03  0.99136380271E+03  0.10969149116E+04  0.00000000000E+00 0.  1.
<mgrwt>
<rscale>  0 0.14347786E+04</rscale>
<asrwt>0</asrwt>
<pdfrwt beam="1">  1        2 0.29575505E+00 0.14347786E+04</pdfrwt>
<pdfrwt beam="2">  1       -1 0.41186125E-01 0.14347786E+04</pdfrwt>
<totfact> 0.47121653E+01</totfact>
</mgrwt>
</event>
<event>
12    6  0.1530720E-007  0.2078836E+04  0.7818608E-02  0.8570624E-01
         -1   -1    0    0    0  501 -0.00000000000E+00  0.00000000000E+00  0.17230436034E+04  0.17230436034E+04  0.00000000000E+00 0.  1.
          2   -1    0    0  501    0  0.00000000000E+00 -0.00000000000E+00 -0.62702388586E+03  0.62702388586E+03  0.00000000000E+00 0. -1.
         24    2    1    2    0    0  0.41566600502E+03  0.63261770774E+03  0.31511062317E+02  0.76173217701E+03  0.79117447943E+02 0.  0.
        254    2    1    2    0    0 -0.41566600502E+03 -0.63261770774E+03  0.10645086553E+04  0.15883353123E+04  0.90368523020E+03 0.  0.
         23    2    4    4    0    0 -0.45439307779E+01  0.19050774474E+03  0.39244814068E+03  0.44532619407E+03  0.89364578492E+02 0.  0.
         23    2    4    4    0    0 -0.41112207424E+03 -0.82312545248E+03  0.67206051458E+03  0.11430091182E+04  0.90816510861E+02 0.  0.
          4    1    3    3  502    0  0.17276973656E+03  0.23668911861E+03 -0.23549860911E+02  0.29398251085E+03  0.00000000000E+00 0. -1.
         -3    1    3    3    0  502  0.24289626846E+03  0.39592858913E+03  0.55060923228E+02  0.46774966615E+03  0.00000000000E+00 0.  1.
         11    1    5    5    0    0 -0.17286371375E+02  0.17039914644E+03  0.26400544418E+03  0.31469598392E+03  0.00000000000E+00 0. -1.
        -11    1    5    5    0    0  0.12742440597E+02  0.20108598299E+02  0.12844269650E+03  0.13063021014E+03  0.00000000000E+00 0.  1.
          3    1    6    6  503    0 -0.41080625339E+03 -0.82103652531E+03  0.67491223385E+03  0.11394600814E+04  0.00000000000E+00 0. -1.
         -3    1    6    6    0  503 -0.31582084573E+00 -0.20889271697E+01 -0.28517192723E+01  0.35490368180E+01  0.00000000000E+00 0.  1.
<mgrwt>
<rscale>  0 0.20788357E+04</rscale>
<asrwt>0</asrwt>
<pdfrwt beam="1">  1        2 0.96465214E-01 0.20788357E+04</pdfrwt>
<pdfrwt beam="2">  1       -1 0.26508363E+00 0.20788357E+04</pdfrwt>
<totfact> 0.27550549E+00</totfact>
</mgrwt>
</event>
<event>
12    6  0.1530720E-007  0.2134765E+04  0.7818608E-02  0.8546082E-01
          2   -1    0    0  501    0  0.00000000000E+00  0.00000000000E+00  0.26121706065E+04  0.26121706065E+04  0.00000000000E+00 0. -1.
         -1   -1    0    0    0  501 -0.00000000000E+00 -0.00000000000E+00 -0.43615259395E+03  0.43615259395E+03  0.00000000000E+00 0.  1.
         24    2    1    2    0    0 -0.22245399739E+03  0.48581496609E+03  0.18965837389E+04  0.19719930595E+04  0.78897312981E+02 0.  0.
        254    2    1    2    0    0  0.22245399739E+03 -0.48581496609E+03  0.27943427365E+03  0.10763301409E+04  0.89157226107E+03 0.  0.
         23    2    4    4    0    0  0.43859742543E+03 -0.20514215868E+02 -0.62711488695E+02  0.45359047083E+03  0.94989735047E+02 0.  0.
         23    2    4    4    0    0 -0.21614342804E+03 -0.46530075022E+03  0.34214576234E+03  0.62273967008E+03  0.86707579618E+02 0.  0.
          2    1    3    3  502    0 -0.11007866085E+03  0.28561224290E+03  0.12064213082E+04  0.12446461496E+04  0.00000000000E+00 0. -1.
         -3    1    3    3    0  502 -0.11237533654E+03  0.20020272319E+03  0.69016243070E+03  0.72734690993E+03  0.00000000000E+00 0.  1.
         11    1    5    5    0    0  0.17050349234E+03 -0.51017295263E+02 -0.42716093278E+02  0.18302696507E+03  0.00000000000E+00 0. -1.
        -11    1    5    5    0    0  0.26809393309E+03  0.30503079395E+02 -0.19995395417E+02  0.27056350576E+03  0.00000000000E+00 0.  1.
          1    1    6    6  503    0 -0.54269993297E+02 -0.17346380668E+03  0.16213261689E+03  0.24356089558E+03  0.00000000000E+00 0. -1.
         -1    1    6    6    0  503 -0.16187343474E+03 -0.29183694355E+03  0.18001314546E+03  0.37917877450E+03  0.00000000000E+00 0.  1.
<mgrwt>
<rscale>  0 0.21347646E+04</rscale>
<asrwt>0</asrwt>
<pdfrwt beam="1">  1        2 0.40187239E+00 0.21347646E+04</pdfrwt>
<pdfrwt beam="2">  1       -1 0.67100401E-01 0.21347646E+04</pdfrwt>
<totfact> 0.70463931E+00</totfact>
</mgrwt>
</event>
<event>
12    6  0.1530720E-007  0.1228402E+04  0.7818608E-02  0.9088354E-01
          2   -1    0    0  501    0  0.00000000000E+00  0.00000000000E+00  0.13738447897E+04  0.13738447897E+04  0.00000000000E+00 0. -1.
         -1   -1    0    0    0  501 -0.00000000000E+00 -0.00000000000E+00 -0.27458899586E+03  0.27458899586E+03  0.00000000000E+00 0.  1.
         24    2    1    2    0    0  0.20691908474E+02 -0.29877114313E+02  0.62093630936E+03  0.62710143916E+03  0.79834313886E+02 0.  0.
        254    2    1    2    0    0 -0.20691908474E+02  0.29877114313E+02  0.47831948445E+03  0.10213323464E+04  0.90167035857E+03 0.  0.
         23    2    4    4    0    0  0.38410677441E+03 -0.18130445608E+03  0.19452193614E+03  0.47628757993E+03  0.92745647929E+02 0.  0.
         23    2    4    4    0    0 -0.40479868289E+03  0.21118157040E+03  0.28379754830E+03  0.54504476645E+03  0.89850540730E+02 0.  0.
          4    1    3    3  502    0  0.48824721009E+02 -0.22644498746E+02  0.49192584336E+03  0.49486125537E+03  0.00000000000E+00 0. -1.
         -3    1    3    3    0  502 -0.28132812535E+02 -0.72326155665E+01  0.12901046600E+03  0.13224018378E+03  0.00000000000E+00 0.  1.
         11    1    5    5    0    0  0.11865108121E+03 -0.10528319178E+03  0.71008940316E+02  0.17379556711E+03  0.00000000000E+00 0. -1.
        -11    1    5    5    0    0  0.26545569321E+03 -0.76021264307E+02  0.12351299583E+03  0.30249201282E+03  0.00000000000E+00 0.  1.
          3    1    6    6  503    0 -0.39999807356E+03  0.21622255080E+03  0.26804962500E+03  0.52782691461E+03  0.00000000000E+00 0. -1.
         -3    1    6    6    0  503 -0.48006093255E+01 -0.50409804093E+01  0.15747923307E+02  0.17217851836E+02  0.00000000000E+00 0.  1.
<mgrwt>
<rscale>  0 0.12284017E+04</rscale>
<asrwt>0</asrwt>
<pdfrwt beam="1">  1        2 0.21136073E+00 0.12284017E+04</pdfrwt>
<pdfrwt beam="2">  1       -1 0.42244462E-01 0.12284017E+04</pdfrwt>
<totfact> 0.92573381E+01</totfact>
</mgrwt>
</event>
<event>
12    6  0.1530720E-007  0.1563343E+04  0.7818608E-02  0.8843390E-01
         -1   -1    0    0    0  501 -0.00000000000E+00  0.00000000000E+00  0.63462995131E+03  0.63462995131E+03  0.00000000000E+00 0.  1.
          2   -1    0    0  501    0  0.00000000000E+00 -0.00000000000E+00 -0.96278174783E+03  0.96278174783E+03  0.00000000000E+00 0. -1.
         24    2    1    2    0    0  0.29875856844E+03 -0.30843541283E+03  0.20026969169E+03  0.48038301509E+03  0.79188418829E+02 0.  0.
        254    2    1    2    0    0 -0.29875856844E+03  0.30843541283E+03 -0.52842148821E+03  0.11170286841E+04  0.88551382016E+03 0.  0.
         23    2    4    4    0    0 -0.59762585844E+03  0.28992097514E+03 -0.33971814056E+03  0.75147894619E+03  0.90007516570E+02 0.  0.
         23    2    4    4    0    0  0.29886729000E+03  0.18514437695E+02 -0.18870334764E+03  0.36554973786E+03  0.91395929875E+02 0.  0.
          4    1    3    3  502    0  0.79282913366E+02 -0.13645048016E+03  0.72757373597E+02  0.17377614710E+03  0.00000000000E+00 0. -1.
         -3    1    3    3    0  502  0.21947565507E+03 -0.17198493267E+03  0.12751231810E+03  0.30660686799E+03  0.00000000000E+00 0.  1.
         11    1    5    5    0    0 -0.96749379702E+02  0.72851540886E+02 -0.91583109406E+02  0.15183957129E+03  0.00000000000E+00 0. -1.
        -11    1    5    5    0    0 -0.50087647874E+03  0.21706943425E+03 -0.24813503116E+03  0.59963937490E+03  0.00000000000E+00 0.  1.
          2    1    6    6  503    0  0.47200347913E+02  0.29236580469E+02 -0.63188344886E+02  0.84115500415E+02  0.00000000000E+00 0. -1.
         -2    1    6    6    0  503  0.25166694209E+03 -0.10722142774E+02 -0.12551500276E+03  0.28143423744E+03  0.00000000000E+00 0.  1.
<mgrwt>
<rscale>  0 0.15633427E+04</rscale>
<asrwt>0</asrwt>
<pdfrwt beam="1">  1        2 0.14812027E+00 0.15633427E+04</pdfrwt>
<pdfrwt beam="2">  1       -1 0.97635378E-01 0.15633427E+04</pdfrwt>
<totfact> 0.29418674E+01</totfact>
</mgrwt>
</event>
<event>
12    6  0.1530720E-007  0.3212283E+04  0.7818608E-02  0.8185581E-01
          2   -1    0    0  501    0  0.00000000000E+00  0.00000000000E+00  0.21844659797E+04  0.21844659797E+04  0.00000000000E+00 0. -1.
         -1   -1    0    0    0  501 -0.00000000000E+00 -0.00000000000E+00 -0.11809248424E+04  0.11809248424E+04  0.00000000000E+00 0.  1.
         24    2    1    2    0    0 -0.13036824067E+04 -0.38500200448E+03  0.10607223789E+04  0.17254271690E+04  0.64440590704E+02 0.  0.
        254    2    1    2    0    0  0.13036824067E+04  0.38500200448E+03 -0.57181241582E+02  0.16399636530E+04  0.91564006455E+03 0.  0.
         23    2    4    4    0    0  0.13608461013E+04  0.35293969505E+03 -0.23585967741E+03  0.14284671567E+04  0.91761051451E+02 0.  0.
         23    2    4    4    0    0 -0.57163694644E+02  0.32062309426E+02  0.17867843583E+03  0.21149649628E+03  0.92244809259E+02 0.  0.
          4    1    3    3  502    0 -0.12905401853E+04 -0.37598890131E+03  0.10539161576E+04  0.17080986186E+04  0.00000000000E+00 0. -1.
         -3    1    3    3    0  502 -0.13142221348E+02 -0.90131031632E+01  0.68062213181E+01  0.17328550407E+02  0.00000000000E+00 0.  1.
         11    1    5    5    0    0  0.10351279349E+04  0.23986467077E+03 -0.14942772164E+03  0.10730114379E+04  0.00000000000E+00 0.  1.
        -11    1    5    5    0    0  0.32571816642E+03  0.11307502428E+03 -0.86431955769E+02  0.35545571881E+03  0.00000000000E+00 0. -1.
          3    1    6    6  503    0  0.17190005188E+02  0.11386600074E+02  0.46693941960E+01  0.21141290920E+02  0.00000000000E+00 0. -1.
         -3    1    6    6    0  503 -0.74353699832E+02  0.20675709353E+02  0.17400904163E+03  0.19035520536E+03  0.00000000000E+00 0.  1.
<mgrwt>
<rscale>  0 0.32122828E+04</rscale>
<asrwt>0</asrwt>
<pdfrwt beam="1">  1        2 0.33607169E+00 0.32122828E+04</pdfrwt>
<pdfrwt beam="2">  1       -1 0.18168074E+00 0.32122828E+04</pdfrwt>
<totfact> 0.10200352E+00</totfact>
</mgrwt>
</event>
<event>
12    6  0.1530720E-007  0.1965742E+04  0.7818608E-02  0.8622807E-01
         -1   -1    0    0    0  501 -0.00000000000E+00  0.00000000000E+00  0.77335453216E+03  0.77335453216E+03  0.00000000000E+00 0.  1.
          2   -1    0    0  501    0  0.00000000000E+00 -0.00000000000E+00 -0.12491491110E+04  0.12491491110E+04  0.00000000000E+00 0. -1.
         24    2    1    2    0    0  0.46493404908E+03 -0.22551998603E+03 -0.77884848115E+03  0.93807368939E+03  0.79714214795E+02 0.  0.
        254    2    1    2    0    0 -0.46493404908E+03  0.22551998603E+03  0.30305390234E+03  0.10844299537E+04  0.90394896026E+03 0.  0.
         23    2    4    4    0    0 -0.22836489358E+03 -0.12507146143E+02  0.58688621796E+03  0.63689245492E+03  0.94284744114E+02 0.  0.
         23    2    4    4    0    0 -0.23656915550E+03  0.23802713218E+03 -0.28383231562E+03  0.44753749883E+03  0.84303905475E+02 0.  0.
          4    1    3    3  502    0  0.34260089601E+03 -0.19543873587E+03 -0.54949428200E+03  0.67639902379E+03  0.00000000000E+00 0. -1.
         -3    1    3    3    0  502  0.12233315307E+03 -0.30081250158E+02 -0.22935419915E+03  0.26167466560E+03  0.00000000000E+00 0.  1.
         11    1    5    5    0    0 -0.12684357767E+03  0.14839633333E+02  0.42572572670E+03  0.44446811167E+03  0.00000000000E+00 0.  1.
        -11    1    5    5    0    0 -0.10152131591E+03 -0.27346779477E+02  0.16116049126E+03  0.19242434325E+03  0.00000000000E+00 0. -1.
          4    1    6    6  503    0 -0.18259589039E+02  0.10308749035E+01 -0.38256460748E+02  0.42403208415E+02  0.00000000000E+00 0. -1.
         -4    1    6    6    0  503 -0.21830956646E+03  0.23699625727E+03 -0.24557585487E+03  0.40513429041E+03  0.00000000000E+00 0.  1.
<mgrwt>
<rscale>  0 0.19657417E+04</rscale>
<asrwt>0</asrwt>
<pdfrwt beam="1">  1        2 0.19217679E+00 0.19657417E+04</pdfrwt>
<pdfrwt beam="2">  1       -1 0.11897762E+00 0.19657417E+04</pdfrwt>
<totfact> 0.11891339E+01</totfact>
</mgrwt>
</event>
<event>
12    6  0.1530720E-007  0.1974792E+04  0.7818608E-02  0.8618498E-01
         -1   -1    0    0    0  501 -0.00000000000E+00  0.00000000000E+00  0.63486453737E+03  0.63486453737E+03  0.00000000000E+00 0.  1.
          2   -1    0    0  501    0  0.00000000000E+00 -0.00000000000E+00 -0.15356840154E+04  0.15356840154E+04  0.00000000000E+00 0. -1.
         24    2    1    2    0    0  0.54584067800E+03  0.52799122040E+03 -0.55076914168E+03  0.94154855682E+03  0.80313528410E+02 0.  0.
        254    2    1    2    0    0 -0.54584067800E+03 -0.52799122040E+03 -0.35005033631E+03  0.12289999959E+04  0.90066030079E+03 0.  0.
         23    2    4    4    0    0 -0.29057575961E+03 -0.47085008258E+03 -0.62354514492E+03  0.83975015033E+03  0.10118149483E+03 0.  0.
         23    2    4    4    0    0 -0.25526491839E+03 -0.57141137820E+02  0.27349480861E+03  0.38924984558E+03  0.91053521376E+02 0.  0.
          4    1    3    3  502    0  0.44798181001E+03  0.42032025375E+03 -0.48091630642E+03  0.78015210798E+03  0.00000000000E+00 0. -1.
         -3    1    3    3    0  502  0.97858867997E+02  0.10767096664E+03 -0.69852835268E+02  0.16139644884E+03  0.00000000000E+00 0.  1.
         11    1    5    5    0    0 -0.12338565680E+03 -0.17101073362E+03 -0.16964281932E+03  0.27064252708E+03  0.00000000000E+00 0. -1.
        -11    1    5    5    0    0 -0.16719010281E+03 -0.29983934896E+03 -0.45390232559E+03  0.56910762325E+03  0.00000000000E+00 0.  1.
          3    1    6    6  503    0 -0.63231995201E+02  0.24288151491E+02  0.78901552439E+02  0.10398872293E+03  0.00000000000E+00 0. -1.
         -3    1    6    6    0  503 -0.19203292319E+03 -0.81429289311E+02  0.19459325617E+03  0.28526112265E+03  0.00000000000E+00 0.  1.
<mgrwt>
<rscale>  0 0.19747925E+04</rscale>
<asrwt>0</asrwt>
<pdfrwt beam="1">  1        2 0.23625908E+00 0.19747925E+04</pdfrwt>
<pdfrwt beam="2">  1       -1 0.97671468E-01 0.19747925E+04</pdfrwt>
<totfact> 0.12927279E+01</totfact>
</mgrwt>
</event>
<event>
12    6  0.1530720E-007  0.1458367E+04  0.7818608E-02  0.8912620E-01
          2   -1    0    0  501    0  0.00000000000E+00  0.00000000000E+00  0.22273078838E+04  0.22273078838E+04  0.00000000000E+00 0. -1.
         -1   -1    0    0    0  501 -0.00000000000E+00 -0.00000000000E+00 -0.23872249454E+03  0.23872249454E+03  0.00000000000E+00 0.  1.
         24    2    1    2    0    0  0.39901103391E+03 -0.17136229693E+03  0.46336403080E+03  0.64004490948E+03  0.79852483479E+02 0.  0.
        254    2    1    2    0    0 -0.39901103391E+03  0.17136229693E+03  0.15252213585E+04  0.18259854689E+04  0.90517837920E+03 0.  0.
         23    2    4    4    0    0  0.24415482522E+03  0.35131960105E+02  0.80298707004E+03  0.84504539096E+03  0.92019806724E+02 0.  0.
         23    2    4    4    0    0 -0.64316585914E+03  0.13623033682E+03  0.72223428842E+03  0.98094007789E+03  0.91651743151E+02 0.  0.
          2    1    3    3  502    0  0.38010060302E+03 -0.17971307507E+03  0.43535348552E+03  0.60523211672E+03  0.00000000000E+00 0. -1.
         -1    1    3    3    0  502  0.18910430898E+02  0.83507781403E+01  0.28010545287E+02  0.34812792757E+02  0.00000000000E+00 0.  1.
         11    1    5    5    0    0  0.10599336294E+03  0.52386235492E+02  0.45814608792E+03  0.47315615661E+03  0.00000000000E+00 0.  1.
        -11    1    5    5    0    0  0.13816146228E+03 -0.17254275387E+02  0.34484098212E+03  0.37188923435E+03  0.00000000000E+00 0. -1.
          2    1    6    6  503    0 -0.28210232181E+02  0.26961746202E+02  0.37227636422E+02  0.53931900314E+02  0.00000000000E+00 0. -1.
         -2    1    6    6    0  503 -0.61495562696E+03  0.10926859062E+03  0.68500665200E+03  0.92700817758E+03  0.00000000000E+00 0.  1.
<mgrwt>
<rscale>  0 0.14583669E+04</rscale>
<asrwt>0</asrwt>
<pdfrwt beam="1">  1        2 0.34266274E+00 0.14583669E+04</pdfrwt>
<pdfrwt beam="2">  1       -1 0.36726539E-01 0.14583669E+04</pdfrwt>
<totfact> 0.39200093E+01</totfact>
</mgrwt>
</event>
<event>
12    6  0.1530720E-007  0.1599749E+04  0.7818608E-02  0.8820702E-01
         -1   -1    0    0    0  501 -0.00000000000E+00  0.00000000000E+00  0.63778825717E+03  0.63778825717E+03  0.00000000000E+00 0.  1.
          2   -1    0    0  501    0  0.00000000000E+00 -0.00000000000E+00 -0.10031533090E+04  0.10031533090E+04  0.00000000000E+00 0. -1.
         24    2    1    2    0    0  0.52749978887E+03  0.11497456517E+03 -0.17189548348E+03  0.57232065461E+03  0.80794161697E+02 0.  0.
        254    2    1    2    0    0 -0.52749978887E+03 -0.11497456517E+03 -0.19346956835E+03  0.10686209116E+04  0.90169008026E+03 0.  0.
         23    2    4    4    0    0 -0.12752551639E+03  0.29358403435E+03  0.18113767397E+03  0.37889911738E+03  0.91100722623E+02 0.  0.
         23    2    4    4    0    0 -0.39997427247E+03 -0.40855859952E+03 -0.37460724232E+03  0.68972179418E+03  0.92119593357E+02 0.  0.
          2    1    3    3  502    0  0.24794985692E+03  0.31076004794E+02 -0.11445339718E+03  0.27485346959E+03  0.00000000000E+00 0. -1.
         -1    1    3    3    0  502  0.27954993194E+03  0.83898560378E+02 -0.57442086292E+02  0.29746718502E+03  0.00000000000E+00 0.  1.
         11    1    5    5    0    0 -0.52556730600E+02  0.22540378293E+03  0.12453376278E+03  0.26282643201E+03  0.00000000000E+00 0. -1.
        -11    1    5    5    0    0 -0.74968785791E+02  0.68180251420E+02  0.56603911190E+02  0.11607268537E+03  0.00000000000E+00 0.  1.
          1    1    6    6  503    0 -0.28803801735E+03 -0.23355419983E+03 -0.22550442542E+03  0.43401118601E+03  0.00000000000E+00 0. -1.
         -1    1    6    6    0  503 -0.11193625513E+03 -0.17500439969E+03 -0.14910281690E+03  0.25571060817E+03  0.00000000000E+00 0.  1.
<mgrwt>
<rscale>  0 0.15997492E+04</rscale>
<asrwt>0</asrwt>
<pdfrwt beam="1">  1        2 0.15433128E+00 0.15997492E+04</pdfrwt>
<pdfrwt beam="2">  1       -1 0.98121270E-01 0.15997492E+04</pdfrwt>
<totfact> 0.27306218E+01</totfact>
</mgrwt>
</event>
<event>
12    6  0.1530720E-007  0.1600966E+04  0.7818608E-02  0.8819955E-01
         -1   -1    0    0    0  501 -0.00000000000E+00  0.00000000000E+00  0.49499672854E+03  0.49499672854E+03  0.00000000000E+00 0.  1.
          2   -1    0    0  501    0  0.00000000000E+00 -0.00000000000E+00 -0.12944990580E+04  0.12944990580E+04  0.00000000000E+00 0. -1.
         24    2    1    2    0    0 -0.21715130226E+03  0.25120901053E+03 -0.75541240877E+03  0.82977928618E+03  0.87321826672E+02 0.  0.
        254    2    1    2    0    0  0.21715130226E+03 -0.25120901053E+03 -0.44089920656E+02  0.95971650031E+03  0.89936154289E+03 0.  0.
         23    2    4    4    0    0  0.50115174962E+03 -0.19083016820E+03  0.18900045882E+03  0.57598366638E+03  0.92015114244E+02 0.  0.
         23    2    4    4    0    0 -0.28400044737E+03 -0.60378842329E+02 -0.23309037948E+03  0.38373283394E+03  0.92832667361E+02 0.  0.
          4    1    3    3  502    0 -0.21750642407E+03  0.21657953389E+03 -0.65012126726E+03  0.71893908029E+03  0.00000000000E+00 0. -1.
         -3    1    3    3    0  502  0.35512181883E+00  0.34629476640E+02 -0.10529114150E+03  0.11084020589E+03  0.00000000000E+00 0.  1.
         11    1    5    5    0    0  0.37864798428E+03 -0.11629403759E+03  0.10496172826E+03  0.40977501580E+03  0.00000000000E+00 0.  1.
        -11    1    5    5    0    0  0.12250376535E+03 -0.74536130611E+02  0.84038730568E+02  0.16620865057E+03  0.00000000000E+00 0. -1.
          1    1    6    6  503    0 -0.12078681982E+03 -0.22825938021E+02 -0.15801379545E+03  0.20019700008E+03  0.00000000000E+00 0. -1.
         -1    1    6    6    0  503 -0.16321362755E+03 -0.37552904307E+02 -0.75076584029E+02  0.18353583386E+03  0.00000000000E+00 0.  1.
<mgrwt>
<rscale>  0 0.16009657E+04</rscale>
<asrwt>0</asrwt>
<pdfrwt beam="1">  1        2 0.19915370E+00 0.16009657E+04</pdfrwt>
<pdfrwt beam="2">  1       -1 0.76153343E-01 0.16009657E+04</pdfrwt>
<totfact> 0.31524014E+01</totfact>
</mgrwt>
</event>
<event>
12    6  0.1530720E-007  0.1773805E+04  0.7818608E-02  0.8720355E-01
         -1   -1    0    0    0  501 -0.00000000000E+00  0.00000000000E+00  0.37490092215E+03  0.37490092215E+03  0.00000000000E+00 0.  1.
          2   -1    0    0  501    0  0.00000000000E+00 -0.00000000000E+00 -0.20981446291E+04  0.20981446291E+04  0.00000000000E+00 0. -1.
         24    2    1    2    0    0  0.58205352638E+03  0.50729962350E+02 -0.26464516917E+03  0.64644926473E+03  0.80621024858E+02 0.  0.
        254    2    1    2    0    0 -0.58205352638E+03 -0.50729962350E+02 -0.14585985378E+04  0.18265962865E+04  0.93144214144E+03 0.  0.
         23    2    4    4    0    0 -0.26017790046E+03  0.40470172266E+01 -0.14609078571E+04  0.14867158377E+04  0.91451062577E+02 0.  0.
         23    2    4    4    0    0 -0.32187562592E+03 -0.54776979576E+02  0.23093193889E+01  0.33988044877E+03  0.94387236672E+02 0.  0.
          2    1    3    3  502    0  0.28953367886E+03 -0.26880146655E+01 -0.16254977857E+03  0.33205331971E+03  0.00000000000E+00 0. -1.
         -3    1    3    3    0  502  0.29251984752E+03  0.53417977015E+02 -0.10209539060E+03  0.31439594502E+03  0.00000000000E+00 0.  1.
         11    1    5    5    0    0 -0.20636254629E+03  0.41156848542E+02 -0.11079424263E+04  0.11277481131E+04  0.00000000000E+00 0.  1.
        -11    1    5    5    0    0 -0.53815354166E+02 -0.37109831316E+02 -0.35296543086E+03  0.35896772460E+03  0.00000000000E+00 0. -1.
          1    1    6    6  503    0 -0.19531359562E+03 -0.29536988020E+02 -0.44703803343E+02  0.20252966283E+03  0.00000000000E+00 0. -1.
         -1    1    6    6    0  503 -0.12656203030E+03 -0.25239991557E+02  0.47013122731E+02  0.13735078594E+03  0.00000000000E+00 0.  1.
<mgrwt>
<rscale>  0 0.17738054E+04</rscale>
<asrwt>0</asrwt>
<pdfrwt beam="1">  1        2 0.32279147E+00 0.17738054E+04</pdfrwt>
<pdfrwt beam="2">  1       -1 0.57677067E-01 0.17738054E+04</pdfrwt>
<totfact> 0.19324189E+01</totfact>
</mgrwt>
</event>
<event>
12    6  0.1530720E-007  0.1339267E+04  0.7818608E-02  0.8998993E-01
          2   -1    0    0  501    0  0.00000000000E+00  0.00000000000E+00  0.59448065603E+03  0.59448065603E+03  0.00000000000E+00 0. -1.
         -1   -1    0    0    0  501 -0.00000000000E+00 -0.00000000000E+00 -0.75428727643E+03  0.75428727643E+03  0.00000000000E+00 0.  1.
         24    2    1    2    0    0  0.19186897683E+03  0.11418549919E+03 -0.33399308195E+03  0.40923470665E+03  0.77907854826E+02 0.  0.
        254    2    1    2    0    0 -0.19186897683E+03 -0.11418549919E+03  0.17418646155E+03  0.93953322580E+03  0.89584023492E+03 0.  0.
         23    2    4    4    0    0 -0.24838954030E+03 -0.35500649870E+03  0.39642606912E+03  0.59457914193E+03  0.92971769317E+02 0.  0.
         23    2    4    4    0    0  0.56520563467E+02  0.24082099951E+03 -0.22223960757E+03  0.34495408387E+03  0.91725399465E+02 0.  0.
          4    1    3    3  502    0  0.83124465609E+02  0.46569897756E+02 -0.21176200536E+03  0.23221020450E+03  0.00000000000E+00 0. -1.
         -3    1    3    3    0  502  0.10874451122E+03  0.67615601436E+02 -0.12223107659E+03  0.17702450215E+03  0.00000000000E+00 0.  1.
         11    1    5    5    0    0 -0.26132512866E+02 -0.26802411338E+01  0.28894903044E+02  0.39051342398E+02  0.00000000000E+00 0.  1.
        -11    1    5    5    0    0 -0.22225702743E+03 -0.35232625756E+03  0.36753116608E+03  0.55552779953E+03  0.00000000000E+00 0. -1.
          2    1    6    6  503    0  0.79524543012E+02  0.20685847389E+03 -0.17493802399E+03  0.28234357332E+03  0.00000000000E+00 0. -1.
         -2    1    6    6    0  503 -0.23003979545E+02  0.33962525619E+02 -0.47301583585E+02  0.62610510547E+02  0.00000000000E+00 0.  1.
<mgrwt>
<rscale>  0 0.13392673E+04</rscale>
<asrwt>0</asrwt>
<pdfrwt beam="1">  1        2 0.91458562E-01 0.13392673E+04</pdfrwt>
<pdfrwt beam="2">  1       -1 0.11604420E+00 0.13392673E+04</pdfrwt>
<totfact> 0.37646791E+01</totfact>
</mgrwt>
</event>
<event>
12    6  0.1530720E-007  0.1357300E+04  0.7818608E-02  0.8985320E-01
          2   -1    0    0  501    0  0.00000000000E+00  0.00000000000E+00  0.52348475543E+03  0.52348475543E+03  0.00000000000E+00 0. -1.
         -1   -1    0    0    0  501 -0.00000000000E+00 -0.00000000000E+00 -0.87980749201E+03  0.87980749201E+03  0.00000000000E+00 0.  1.
         24    2    1    2    0    0  0.65907159211E+02  0.33627625114E+03 -0.26566599422E+03  0.44300905620E+03  0.90846753756E+02 0.  0.
        254    2    1    2    0    0 -0.65907159211E+02 -0.33627625114E+03 -0.90656742366E+02  0.96028319124E+03  0.89246831413E+03 0.  0.
         23    2    4    4    0    0 -0.20200895832E+03  0.69331532249E+02 -0.37156504029E+03  0.43994053632E+03  0.99361037284E+02 0.  0.
         23    2    4    4    0    0  0.13610179911E+03 -0.40560778339E+03  0.28090829792E+03  0.52034265492E+03  0.93838334507E+02 0.  0.
          2    1    3    3  502    0  0.10608039657E+02  0.38094461627E+02  0.43889151377E+00  0.39546316362E+02  0.00000000000E+00 0. -1.
         -1    1    3    3    0  502  0.55299119554E+02  0.29818178952E+03 -0.26610488574E+03  0.40346273984E+03  0.00000000000E+00 0.  1.
         11    1    5    5    0    0 -0.16497648472E+03  0.59749573209E+02 -0.35915739183E+03  0.39972651165E+03  0.00000000000E+00 0. -1.
        -11    1    5    5    0    0 -0.37032473597E+02  0.95819590397E+01 -0.12407648451E+02  0.40214024666E+02  0.00000000000E+00 0.  1.
          2    1    6    6  503    0  0.10493312816E+03 -0.38808901997E+03  0.25328461875E+03  0.47516012764E+03  0.00000000000E+00 0. -1.
         -2    1    6    6    0  503  0.31168670949E+02 -0.17518763424E+02  0.27623679170E+02  0.45182527282E+02  0.00000000000E+00 0.  1.
<mgrwt>
<rscale>  0 0.13573000E+04</rscale>
<asrwt>0</asrwt>
<pdfrwt beam="1">  1        2 0.80536117E-01 0.13573000E+04</pdfrwt>
<pdfrwt beam="2">  1       -1 0.13535500E+00 0.13573000E+04</pdfrwt>
<totfact> 0.29811162E+01</totfact>
</mgrwt>
</event>
<event>
12    6  0.1530720E-007  0.1555557E+04  0.7818608E-02  0.8848326E-01
          2   -1    0    0  501    0  0.00000000000E+00  0.00000000000E+00  0.88219860617E+03  0.88219860617E+03  0.00000000000E+00 0. -1.
         -1   -1    0    0    0  501 -0.00000000000E+00 -0.00000000000E+00 -0.68571791069E+03  0.68571791069E+03  0.00000000000E+00 0.  1.
         24    2    1    2    0    0  0.35736920257E+03  0.28070726215E+03 -0.17823853719E+03  0.49471217428E+03  0.80385603602E+02 0.  0.
        254    2    1    2    0    0 -0.35736920257E+03 -0.28070726215E+03  0.37471923267E+03  0.10732043426E+04  0.89713083976E+03 0.  0.
         23    2    4    4    0    0  0.75667108674E+02 -0.37588977915E+03  0.46599509300E+03  0.61020763010E+03  0.90461526194E+02 0.  0.
         23    2    4    4    0    0 -0.43303631125E+03  0.95182517004E+02 -0.91275860337E+02  0.46299671249E+03  0.97234328801E+02 0.  0.
          2    1    3    3  502    0  0.11707414335E+02 -0.24785521505E+01 -0.14513244099E+02  0.18810662546E+02  0.00000000000E+00 0. -1.
         -1    1    3    3    0  502  0.34566178824E+03  0.28318581430E+03 -0.16372529309E+03  0.47590151173E+03  0.00000000000E+00 0.  1.
         11    1    5    5    0    0  0.37074150150E+02 -0.31844051410E+03  0.34606860636E+03  0.47174392836E+03  0.00000000000E+00 0.  1.
        -11    1    5    5    0    0  0.38592958524E+02 -0.57449265052E+02  0.11992648664E+03  0.13846370174E+03  0.00000000000E+00 0. -1.
          1    1    6    6  503    0 -0.33794016820E+03  0.44793131451E+02 -0.38291739734E+02  0.34303970505E+03  0.00000000000E+00 0. -1.
         -1    1    6    6    0  503 -0.95096143045E+02  0.50389385553E+02 -0.52984120602E+02  0.11995700744E+03  0.00000000000E+00 0.  1.
<mgrwt>
<rscale>  0 0.15555570E+04</rscale>
<asrwt>0</asrwt>
<pdfrwt beam="1">  1        2 0.13572286E+00 0.15555570E+04</pdfrwt>
<pdfrwt beam="2">  1       -1 0.10549506E+00 0.15555570E+04</pdfrwt>
<totfact> 0.27890792E+01</totfact>
</mgrwt>
</event>
<event>
12    6  0.1530720E-007  0.1706971E+04  0.7818608E-02  0.8757399E-01
         -1   -1    0    0    0  501 -0.00000000000E+00  0.00000000000E+00  0.31457761080E+03  0.31457761080E+03  0.00000000000E+00 0.  1.
          2   -1    0    0  501    0  0.00000000000E+00 -0.00000000000E+00 -0.23156041412E+04  0.23156041412E+04  0.00000000000E+00 0. -1.
         24    2    1    2    0    0 -0.37815130499E+03 -0.14914916168E+03 -0.16288490699E+02  0.41429019934E+03  0.78276257187E+02 0.  0.
        254    2    1    2    0    0  0.37815130499E+03  0.14914916168E+03 -0.19847380397E+04  0.22158915526E+04  0.89763378114E+03 0.  0.
         23    2    4    4    0    0 -0.84058337713E+02  0.29774265949E+03 -0.14627316210E+04  0.14980852971E+04  0.94653404250E+02 0.  0.
         23    2    4    4    0    0  0.46220964271E+03 -0.14859349781E+03 -0.52200641869E+03  0.71780625555E+03  0.83888842819E+02 0.  0.
          4    1    3    3  502    0 -0.48457152293E+02 -0.36511748903E+01  0.19038500037E+02  0.52190910800E+02  0.00000000000E+00 0. -1.
         -3    1    3    3    0  502 -0.32969415270E+03 -0.14549798679E+03 -0.35326990736E+02  0.36209928854E+03  0.00000000000E+00 0.  1.
         11    1    5    5    0    0 -0.86553058102E+02  0.13522537622E+03 -0.68754221460E+03  0.70603939770E+03  0.00000000000E+00 0.  1.
        -11    1    5    5    0    0  0.24947203895E+01  0.16251728327E+03 -0.77518940636E+03  0.79204589938E+03  0.00000000000E+00 0. -1.
          3    1    6    6  503    0  0.68591241470E+02 -0.34811807492E+02 -0.45522585559E+02  0.89380792921E+02  0.00000000000E+00 0. -1.
         -3    1    6    6    0  503  0.39361840124E+03 -0.11378169032E+03 -0.47648383313E+03  0.62842546263E+03  0.00000000000E+00 0.  1.
<mgrwt>
<rscale>  0 0.17069707E+04</rscale>
<asrwt>0</asrwt>
<pdfrwt beam="1">  1        2 0.35624677E+00 0.17069707E+04</pdfrwt>
<pdfrwt beam="2">  1       -1 0.48396558E-01 0.17069707E+04</pdfrwt>
<totfact> 0.20561471E+01</totfact>
</mgrwt>
</event>
<event>
12    6  0.1530720E-007  0.2325900E+04  0.7818608E-02  0.8467779E-01
          2   -1    0    0  501    0  0.00000000000E+00  0.00000000000E+00  0.16392220142E+04  0.16392220142E+04  0.00000000000E+00 0. -1.
         -1   -1    0    0    0  501 -0.00000000000E+00 -0.00000000000E+00 -0.82505733894E+03  0.82505733894E+03  0.00000000000E+00 0.  1.
         24    2    1    2    0    0 -0.51071004832E+03 -0.70503837260E+03 -0.14865297527E+03  0.88643582938E+03  0.75940188624E+02 0.  0.
        254    2    1    2    0    0  0.51071004832E+03  0.70503837260E+03  0.96281765052E+03  0.15778435238E+04  0.89703316383E+03 0.  0.
         23    2    4    4    0    0  0.20140835498E+03  0.63915127675E+03  0.13871424936E+03  0.69039678982E+03  0.91249133660E+02 0.  0.
         23    2    4    4    0    0  0.30930169334E+03  0.65887095854E+02  0.82410340117E+03  0.88744673394E+03  0.91687746506E+02 0.  0.
          2    1    3    3  502    0 -0.17466549695E+03 -0.18249762706E+03 -0.43488584231E+02  0.25632923490E+03  0.00000000000E+00 0. -1.
         -1    1    3    3    0  502 -0.33604455138E+03 -0.52254074554E+03 -0.10516439103E+03  0.63010659447E+03  0.00000000000E+00 0.  1.
         11    1    5    5    0    0  0.18420593541E+03  0.59817026603E+03  0.15185601284E+03  0.64404948757E+03  0.00000000000E+00 0.  1.
        -11    1    5    5    0    0  0.17202419565E+02  0.40981010721E+02 -0.13141763481E+02  0.46347302251E+02  0.00000000000E+00 0. -1.
          4    1    6    6  503    0  0.71228114415E+02  0.39710921898E+02  0.13292424339E+03  0.15594632436E+03  0.00000000000E+00 0. -1.
         -4    1    6    6    0  503  0.23807357893E+03  0.26176173956E+02  0.69117915778E+03  0.73150040958E+03  0.00000000000E+00 0.  1.
<mgrwt>
<rscale>  0 0.23258995E+04</rscale>
<asrwt>0</asrwt>
<pdfrwt beam="1">  1        2 0.25218800E+00 0.23258995E+04</pdfrwt>
<pdfrwt beam="2">  1       -1 0.12693190E+00 0.23258995E+04</pdfrwt>
<totfact> 0.58833207E+00</totfact>
</mgrwt>
</event>
<event>
12    6  0.1530720E-007  0.1357178E+04  0.7818608E-02  0.8985412E-01
         -1   -1    0    0    0  501 -0.00000000000E+00  0.00000000000E+00  0.16197442697E+03  0.16197442697E+03  0.00000000000E+00 0.  1.
          2   -1    0    0  501    0  0.00000000000E+00 -0.00000000000E+00 -0.28429384759E+04  0.28429384759E+04  0.00000000000E+00 0. -1.
         24    2    1    2    0    0  0.23507839026E+03  0.15316299928E+03 -0.13171891897E+04  0.13485276990E+04  0.69417862502E+02 0.  0.
        254    2    1    2    0    0 -0.23507839026E+03 -0.15316299928E+03 -0.13637748593E+04  0.16563852039E+04  0.89722311774E+03 0.  0.
         23    2    4    4    0    0 -0.23079831063E+03 -0.25092124980E+03 -0.14520608733E+04  0.14944464812E+04  0.93060043837E+02 0.  0.
         23    2    4    4    0    0 -0.42800796327E+01  0.97758250517E+02  0.88286013949E+02  0.16193872272E+03  0.94099601657E+02 0.  0.
          2    1    3    3  502    0  0.22342943414E+03  0.15863088319E+03 -0.12843911002E+04  0.13132954608E+04  0.00000000000E+00 0. -1.
         -1    1    3    3    0  502  0.11648956130E+02 -0.54678839082E+01 -0.32798089470E+02  0.35232238167E+02  0.00000000000E+00 0.  1.
         11    1    5    5    0    0 -0.22170356018E+03 -0.21277677800E+03 -0.11703225908E+04  0.12099923108E+04  0.00000000000E+00 0.  1.
        -11    1    5    5    0    0 -0.90947504523E+01 -0.38144471806E+02 -0.28173828249E+03  0.28445417036E+03  0.00000000000E+00 0. -1.
          3    1    6    6  503    0 -0.14912122464E+02 -0.12651245807E+02 -0.94997426447E+00  0.19578760634E+02  0.00000000000E+00 0. -1.
         -3    1    6    6    0  503  0.10632042831E+02  0.11040949632E+03  0.89235988214E+02  0.14235996209E+03  0.00000000000E+00 0.  1.
<mgrwt>
<rscale>  0 0.13571784E+04</rscale>
<asrwt>0</asrwt>
<pdfrwt beam="1">  1        2 0.43737511E+00 0.13571784E+04</pdfrwt>
<pdfrwt beam="2">  1       -1 0.24919145E-01 0.13571784E+04</pdfrwt>
<totfact> 0.34373679E+01</totfact>
</mgrwt>
</event>
<event>
12    6  0.1530720E-007  0.3303338E+04  0.7818608E-02  0.8162047E-01
          2   -1    0    0  501    0  0.00000000000E+00  0.00000000000E+00  0.28003962157E+04  0.28003962157E+04  0.00000000000E+00 0. -1.
         -1   -1    0    0    0  501 -0.00000000000E+00 -0.00000000000E+00 -0.97415132106E+03  0.97415132106E+03  0.00000000000E+00 0.  1.
         24    2    1    2    0    0 -0.78969329291E+03  0.11939681512E+04  0.23422377009E+03  0.14535829882E+04  0.94166269689E+02 0.  0.
        254    2    1    2    0    0  0.78969329291E+03 -0.11939681512E+04  0.15920211245E+04  0.23209645485E+04  0.89619737315E+03 0.  0.
         23    2    4    4    0    0  0.74488559078E+03 -0.13082595617E+04  0.13113621993E+04  0.19985905776E+04  0.91081583660E+02 0.  0.
         23    2    4    4    0    0  0.44807702133E+02  0.11429141051E+03  0.28065892525E+03  0.32237397096E+03  0.10042553533E+03 0.  0.
          2    1    3    3  502    0 -0.96511408409E+02  0.15691116737E+03 -0.93158174115E+00  0.18421844164E+03  0.00000000000E+00 0. -1.
         -1    1    3    3    0  502 -0.69318188450E+03  0.10370569838E+04  0.23515535183E+03  0.12693645466E+04  0.00000000000E+00 0.  1.
         11    1    5    5    0    0  0.16952726194E+03 -0.31632680875E+03  0.36376352770E+03  0.51100493790E+03  0.00000000000E+00 0.  1.
        -11    1    5    5    0    0  0.57535832884E+03 -0.99193275293E+03  0.94759867160E+03  0.14875856397E+04  0.00000000000E+00 0. -1.
          1    1    6    6  503    0  0.25554602636E+02  0.12661713397E+03  0.26457291009E+03  0.29442106087E+03  0.00000000000E+00 0. -1.
         -1    1    6    6    0  503  0.19253099497E+02 -0.12325723460E+02  0.16086015161E+02  0.27952910095E+02  0.00000000000E+00 0.  1.
<mgrwt>
<rscale>  0 0.33033375E+04</rscale>
<asrwt>0</asrwt>
<pdfrwt beam="1">  1        2 0.43083018E+00 0.33033375E+04</pdfrwt>
<pdfrwt beam="2">  1       -1 0.14986944E+00 0.33033375E+04</pdfrwt>
<totfact> 0.76628291E-01</totfact>
</mgrwt>
</event>
<event>
12    6  0.1530720E-007  0.1022882E+04  0.7818608E-02  0.9283799E-01
         -1   -1    0    0    0  501 -0.00000000000E+00  0.00000000000E+00  0.26876715837E+03  0.26876715837E+03  0.00000000000E+00 0.  1.
          2   -1    0    0  501    0  0.00000000000E+00 -0.00000000000E+00 -0.97322796034E+03  0.97322796034E+03  0.00000000000E+00 0. -1.
         24    2    1    2    0    0  0.10476883890E+02 -0.69044081712E+02 -0.86663758549E+01  0.10378095154E+03  0.76279286289E+02 0.  0.
        254    2    1    2    0    0 -0.10476883890E+02  0.69044081712E+02 -0.69579442611E+03  0.11382141672E+04  0.89806723391E+03 0.  0.
         23    2    4    4    0    0  0.32751745890E+03  0.23320571166E+03 -0.94374382437E+02  0.42324341713E+03  0.92606027033E+02 0.  0.
         23    2    4    4    0    0 -0.33799434279E+03 -0.16416162995E+03 -0.60142004368E+03  0.71497075004E+03  0.91037838136E+02 0.  0.
          4    1    3    3  502    0  0.19229516529E+02 -0.33742891205E+02 -0.40016261257E+02  0.55764309175E+02  0.00000000000E+00 0. -1.
         -3    1    3    3    0  502 -0.87526326392E+01 -0.35301190507E+02  0.31349885402E+02  0.48016642365E+02  0.00000000000E+00 0.  1.
         11    1    5    5    0    0  0.59943503592E+02  0.55575911285E+02  0.16662383176E+02  0.83423860802E+02  0.00000000000E+00 0.  1.
        -11    1    5    5    0    0  0.26757395531E+03  0.17762980037E+03 -0.11103676561E+03  0.33981955632E+03  0.00000000000E+00 0. -1.
          1    1    6    6  503    0 -0.25173974098E+03 -0.13027897482E+03 -0.51703607347E+03  0.58963701524E+03  0.00000000000E+00 0. -1.
         -1    1    6    6    0  503 -0.86254601812E+02 -0.33882655128E+02 -0.84383970208E+02  0.12533373481E+03  0.00000000000E+00 0.  1.
<mgrwt>
<rscale>  0 0.10228816E+04</rscale>
<asrwt>0</asrwt>
<pdfrwt beam="1">  1        2 0.14972738E+00 0.10228816E+04</pdfrwt>
<pdfrwt beam="2">  1       -1 0.41348794E-01 0.10228816E+04</pdfrwt>
<totfact> 0.17068746E+02</totfact>
</mgrwt>
</event>
<event>
12    6  0.1530720E-007  0.1498090E+04  0.7818608E-02  0.8885724E-01
          2   -1    0    0  501    0  0.00000000000E+00  0.00000000000E+00  0.18003762443E+04  0.18003762443E+04  0.00000000000E+00 0. -1.
         -1   -1    0    0    0  501 -0.00000000000E+00 -0.00000000000E+00 -0.31163952151E+03  0.31163952151E+03  0.00000000000E+00 0.  1.
         24    2    1    2    0    0 -0.27507891921E+02  0.11365486212E+03 -0.14225314278E+03  0.19941648329E+03  0.76530159902E+02 0.  0.
        254    2    1    2    0    0  0.27507891921E+02 -0.11365486212E+03  0.16309898655E+04  0.19125992825E+04  0.99208566266E+03 0.  0.
         23    2    4    4    0    0 -0.14163672459E+03  0.71090949252E+02  0.16354647287E+04  0.16455952033E+04  0.90132177696E+02 0.  0.
         23    2    4    4    0    0  0.16914461651E+03 -0.18474581138E+03 -0.44748631146E+01  0.26700407923E+03  0.92359286549E+02 0.  0.
          2    1    3    3  502    0 -0.22605962620E+02 -0.26865425541E+01 -0.30154098778E+02  0.37782492374E+02  0.00000000000E+00 0. -1.
         -1    1    3    3    0  502 -0.49019293014E+01  0.11634140468E+03 -0.11209904400E+03  0.16163399092E+03  0.00000000000E+00 0.  1.
         11    1    5    5    0    0 -0.90604265823E+02 -0.70035437513E+00  0.99211670246E+03  0.99624553940E+03  0.00000000000E+00 0. -1.
        -11    1    5    5    0    0 -0.51032458768E+02  0.71791303627E+02  0.64334802621E+03  0.64934966385E+03  0.00000000000E+00 0.  1.
          2    1    6    6  503    0  0.54995143634E+02 -0.35858416208E+02 -0.38827279342E+02  0.76274828465E+02  0.00000000000E+00 0. -1.
         -2    1    6    6    0  503  0.11414947288E+03 -0.14888739517E+03  0.34352416227E+02  0.19072925077E+03  0.00000000000E+00 0.  1.
<mgrwt>
<rscale>  0 0.14980900E+04</rscale>
<asrwt>0</asrwt>
<pdfrwt beam="1">  1        2 0.27698095E+00 0.14980900E+04</pdfrwt>
<pdfrwt beam="2">  1       -1 0.47944543E-01 0.14980900E+04</pdfrwt>
<totfact> 0.41272733E+01</totfact>
</mgrwt>
</event>
<event>
12    6  0.1530720E-007  0.1599918E+04  0.7818608E-02  0.8820598E-01
         -1   -1    0    0    0  501 -0.00000000000E+00  0.00000000000E+00  0.93897348359E+03  0.93897348359E+03  0.00000000000E+00 0.  1.
          2   -1    0    0  501    0  0.00000000000E+00 -0.00000000000E+00 -0.68152561519E+03  0.68152561519E+03  0.00000000000E+00 0. -1.
         24    2    1    2    0    0  0.51776427024E+03 -0.16253895440E+03  0.11446230588E+03  0.56012942758E+03  0.78387530500E+02 0.  0.
        254    2    1    2    0    0 -0.51776427024E+03  0.16253895440E+03  0.14298556252E+03  0.10603696712E+04  0.89968895585E+03 0.  0.
         23    2    4    4    0    0 -0.51358902211E+03  0.47954827108E+03  0.16816111120E+03  0.72826478329E+03  0.91384940446E+02 0.  0.
         23    2    4    4    0    0 -0.41752481301E+01 -0.31700931668E+03 -0.25175548672E+02  0.33210488791E+03  0.95642609574E+02 0.  0.
          2    1    3    3  502    0  0.54376571287E+02 -0.12903949375E+02 -0.11710064279E+02  0.57100341679E+02  0.00000000000E+00 0. -1.
         -1    1    3    3    0  502  0.46338769895E+03 -0.14963500503E+03  0.12617237016E+03  0.50302908590E+03  0.00000000000E+00 0.  1.
         11    1    5    5    0    0 -0.45549129779E+03  0.45731629328E+03  0.16375624112E+03  0.66590286151E+03  0.00000000000E+00 0.  1.
        -11    1    5    5    0    0 -0.58097724323E+02  0.22231977797E+02  0.44048700792E+01  0.62361921785E+02  0.00000000000E+00 0. -1.
          3    1    6    6  503    0  0.11210559745E+02 -0.15041129098E+02  0.18806255770E+02  0.26562896499E+02  0.00000000000E+00 0. -1.
         -3    1    6    6    0  503 -0.15385807875E+02 -0.30196818758E+03 -0.43981804442E+02  0.30554199141E+03  0.00000000000E+00 0.  1.
<mgrwt>
<rscale>  0 0.15999181E+04</rscale>
<asrwt>0</asrwt>
<pdfrwt beam="1">  1        2 0.10485009E+00 0.15999181E+04</pdfrwt>
<pdfrwt beam="2">  1       -1 0.14445746E+00 0.15999181E+04</pdfrwt>
<totfact> 0.17915108E+01</totfact>
</mgrwt>
</event>
<event>
12    6  0.1530720E-007  0.2137047E+04  0.7818608E-02  0.8545097E-01
         -1   -1    0    0    0  501 -0.00000000000E+00  0.00000000000E+00  0.70954530453E+03  0.70954530453E+03  0.00000000000E+00 0.  1.
          2   -1    0    0  501    0  0.00000000000E+00 -0.00000000000E+00 -0.16091192083E+04  0.16091192083E+04  0.00000000000E+00 0. -1.
         24    2    1    2    0    0 -0.60703145140E+03  0.53070435255E+03 -0.75333300510E+03  0.11064028371E+04  0.80512909507E+02 0.  0.
        254    2    1    2    0    0  0.60703145140E+03 -0.53070435255E+03 -0.14624089866E+03  0.12122616757E+04  0.89334073967E+03 0.  0.
         23    2    4    4    0    0  0.31216400387E+02 -0.23409833567E+03 -0.43021630133E+03  0.49885056897E+03  0.89383051055E+02 0.  0.
         23    2    4    4    0    0  0.57581505102E+03 -0.29660601688E+03  0.28397540267E+03  0.71341110674E+03  0.93676441390E+02 0.  0.
          2    1    3    3  502    0 -0.45021105144E+03  0.39030490667E+03 -0.60314536283E+03  0.84782795408E+03  0.00000000000E+00 0. -1.
         -1    1    3    3    0  502 -0.15682039996E+03  0.14039944589E+03 -0.15018764227E+03  0.25857488304E+03  0.00000000000E+00 0.  1.
         11    1    5    5    0    0  0.26913855124E+02 -0.21712173372E+03 -0.42866453411E+03  0.48126862109E+03  0.00000000000E+00 0. -1.
        -11    1    5    5    0    0  0.43025452630E+01 -0.16976601956E+02 -0.15517672257E+01  0.17581947879E+02  0.00000000000E+00 0.  1.
          4    1    6    6  503    0  0.54625355891E+03 -0.29544785637E+03  0.28606935368E+03  0.68375292436E+03  0.00000000000E+00 0. -1.
         -4    1    6    6    0  503  0.29561492103E+02 -0.11581605141E+01 -0.20939510126E+01  0.29658182378E+02  0.00000000000E+00 0.  1.
<mgrwt>
<rscale>  0 0.21370475E+04</rscale>
<asrwt>0</asrwt>
<pdfrwt beam="1">  1        2 0.24755680E+00 0.21370475E+04</pdfrwt>
<pdfrwt beam="2">  1       -1 0.10916082E+00 0.21370475E+04</pdfrwt>
<totfact> 0.89633930E+00</totfact>
</mgrwt>
</event>
<event>
12    6  0.1530720E-007  0.1675099E+04  0.7818608E-02  0.8775695E-01
         -1   -1    0    0    0  501 -0.00000000000E+00  0.00000000000E+00  0.16646306624E+04  0.16646306624E+04  0.00000000000E+00 0.  1.
          2   -1    0    0  501    0  0.00000000000E+00 -0.00000000000E+00 -0.42140848897E+03  0.42140848897E+03  0.00000000000E+00 0. -1.
         24    2    1    2    0    0  0.58333021954E+03  0.11396855694E+03  0.40801847816E+03  0.72547924830E+03  0.81105389476E+02 0.  0.
        254    2    1    2    0    0 -0.58333021954E+03 -0.11396855694E+03  0.83520369522E+03  0.13605599030E+04  0.89459211946E+03 0.  0.
         23    2    4    4    0    0 -0.79297619854E+03 -0.69197060684E+02  0.47496532681E+03  0.93133465929E+03  0.90513541829E+02 0.  0.
         23    2    4    4    0    0  0.20964597900E+03 -0.44771496259E+02  0.36023836841E+03  0.42922524374E+03  0.92231797086E+02 0.  0.
          2    1    3    3  502    0  0.27815717958E+03  0.94404682987E+02  0.18793289031E+03  0.34871540256E+03  0.00000000000E+00 0. -1.
         -1    1    3    3    0  502  0.30517303996E+03  0.19563873956E+02  0.22008558784E+03  0.37676384574E+03  0.00000000000E+00 0.  1.
         11    1    5    5    0    0 -0.26320605791E+03 -0.23994903084E+02  0.20830429680E+03  0.33651725715E+03  0.00000000000E+00 0.  1.
        -11    1    5    5    0    0 -0.52977014064E+03 -0.45202157601E+02  0.26666103001E+03  0.59481740214E+03  0.00000000000E+00 0. -1.
          2    1    6    6  503    0 -0.95097566817E+01 -0.22069628079E+00  0.11291279370E+02  0.14764049878E+02  0.00000000000E+00 0. -1.
         -2    1    6    6    0  503  0.21915573569E+03 -0.44550799978E+02  0.34894708904E+03  0.41446119386E+03  0.00000000000E+00 0.  1.
<mgrwt>
<rscale>  0 0.16750994E+04</rscale>
<asrwt>0</asrwt>
<pdfrwt beam="1">  1        2 0.64832076E-01 0.16750994E+04</pdfrwt>
<pdfrwt beam="2">  1       -1 0.25609702E+00 0.16750994E+04</pdfrwt>
<totfact> 0.52007127E+00</totfact>
</mgrwt>
</event>
<event>
12    6  0.1530720E-007  0.3880391E+04  0.7818608E-02  0.8029120E-01
          2   -1    0    0  501    0  0.00000000000E+00  0.00000000000E+00  0.20012086757E+04  0.20012086757E+04  0.00000000000E+00 0. -1.
         -1   -1    0    0    0  501 -0.00000000000E+00 -0.00000000000E+00 -0.18810424266E+04  0.18810424266E+04  0.00000000000E+00 0.  1.
         24    2    1    2    0    0 -0.16726582331E+04  0.35113598991E+02 -0.69409172636E+03  0.18129657310E+04  0.77864545734E+02 0.  0.
        254    2    1    2    0    0  0.16726582331E+04 -0.35113598991E+02  0.81425797544E+03  0.20692853712E+04  0.90548736453E+03 0.  0.
         23    2    4    4    0    0  0.11840786136E+04  0.29659754372E+02  0.93712903829E+02  0.11916285554E+04  0.90965056730E+02 0.  0.
         23    2    4    4    0    0  0.48857961959E+03 -0.64773353363E+02  0.72054507162E+03  0.87765681586E+03  0.90502233211E+02 0.  0.
          2    1    3    3  502    0 -0.28675020765E+03  0.58240998713E+01 -0.87690389856E+02  0.29991533172E+03  0.00000000000E+00 0. -1.
         -1    1    3    3    0  502 -0.13859080255E+04  0.29289499119E+02 -0.60640133650E+03  0.15130503993E+04  0.00000000000E+00 0.  1.
         11    1    5    5    0    0  0.20697316899E+03 -0.14651997436E+02 -0.11908612615E+02  0.20783259793E+03  0.00000000000E+00 0. -1.
        -11    1    5    5    0    0  0.97710544457E+03  0.44311751809E+02  0.10562151644E+03  0.98379595745E+03  0.00000000000E+00 0.  1.
          3    1    6    6  503    0  0.42197469918E+03 -0.26417018911E+02  0.58427660203E+03  0.72120708075E+03  0.00000000000E+00 0. -1.
         -3    1    6    6    0  503  0.66604920410E+02 -0.38356334452E+02  0.13626846958E+03  0.15644973512E+03  0.00000000000E+00 0.  1.
<mgrwt>
<rscale>  0 0.38803909E+04</rscale>
<asrwt>0</asrwt>
<pdfrwt beam="1">  1        2 0.30787826E+00 0.38803909E+04</pdfrwt>
<pdfrwt beam="2">  1       -1 0.28939114E+00 0.38803909E+04</pdfrwt>
<totfact> 0.23388495E-01</totfact>
</mgrwt>
</event>
<event>
12    6  0.1530720E-007  0.1519012E+04  0.7818608E-02  0.8871908E-01
         -1   -1    0    0    0  501 -0.00000000000E+00  0.00000000000E+00  0.39671009221E+03  0.39671009221E+03  0.00000000000E+00 0.  1.
          2   -1    0    0  501    0  0.00000000000E+00 -0.00000000000E+00 -0.14540824673E+04  0.14540824673E+04  0.00000000000E+00 0. -1.
         24    2    1    2    0    0  0.29155186621E+03 -0.20576549889E+03  0.52779776715E+02  0.37344652419E+03  0.96616097887E+02 0.  0.
        254    2    1    2    0    0 -0.29155186621E+03  0.20576549889E+03 -0.11101521518E+04  0.14773460353E+04  0.90706757007E+03 0.  0.
         23    2    4    4    0    0 -0.60140568277E+03  0.36643581488E+02 -0.71017958850E+03  0.93612420909E+03  0.94561829499E+02 0.  0.
         23    2    4    4    0    0  0.30985381656E+03  0.16912191740E+03 -0.39997256328E+03  0.54122182620E+03  0.91276520527E+02 0.  0.
          4    1    3    3  502    0  0.12941287898E+03 -0.35599518099E+02  0.27906529540E+02  0.13709045673E+03  0.00000000000E+00 0. -1.
         -3    1    3    3    0  502  0.16213898723E+03 -0.17016598079E+03  0.24873247175E+02  0.23635606746E+03  0.00000000000E+00 0.  1.
         11    1    5    5    0    0 -0.51505812393E+03  0.27312307019E+01 -0.62787629404E+03  0.81210896514E+03  0.00000000000E+00 0.  1.
        -11    1    5    5    0    0 -0.86347558842E+02  0.33912350786E+02 -0.82303294461E+02  0.12401524395E+03  0.00000000000E+00 0. -1.
          3    1    6    6  503    0  0.10714058288E+03  0.25597516784E+02 -0.17097245129E+03  0.20338612653E+03  0.00000000000E+00 0. -1.
         -3    1    6    6    0  503  0.20271323367E+03  0.14352440062E+03 -0.22900011199E+03  0.33783569967E+03  0.00000000000E+00 0.  1.
<mgrwt>
<rscale>  0 0.15190118E+04</rscale>
<asrwt>0</asrwt>
<pdfrwt beam="1">  1        2 0.22370499E+00 0.15190118E+04</pdfrwt>
<pdfrwt beam="2">  1       -1 0.61032323E-01 0.15190118E+04</pdfrwt>
<totfact> 0.40345381E+01</totfact>
</mgrwt>
</event>
<event>
12    6  0.1530720E-007  0.1557186E+04  0.7818608E-02  0.8847291E-01
         -1   -1    0    0    0  501 -0.00000000000E+00  0.00000000000E+00  0.25850843438E+03  0.25850843438E+03  0.00000000000E+00 0.  1.
          2   -1    0    0  501    0  0.00000000000E+00 -0.00000000000E+00 -0.23450187764E+04  0.23450187764E+04  0.00000000000E+00 0. -1.
         24    2    1    2    0    0  0.15820957262E+02  0.47007043225E+03 -0.10377840961E+04  0.11423150025E+04  0.81677541380E+02 0.  0.
        254    2    1    2    0    0 -0.15820957262E+02 -0.47007043225E+03 -0.10487262458E+04  0.14612122082E+04  0.90227371945E+03 0.  0.
         23    2    4    4    0    0  0.11697304854E+02 -0.49661954924E+03 -0.11881556008E+04  0.12911481324E+04  0.92638892383E+02 0.  0.
         23    2    4    4    0    0 -0.27518262117E+02  0.26549116988E+02  0.13942935499E+03  0.17006407584E+03  0.89549620295E+02 0.  0.
          4    1    3    3  502    0  0.94335839303E+01  0.16377435075E+03 -0.45926153779E+03  0.48768041847E+03  0.00000000000E+00 0. -1.
         -3    1    3    3    0  502  0.63873733319E+01  0.30629608150E+03 -0.57852255835E+03  0.65463458403E+03  0.00000000000E+00 0.  1.
         11    1    5    5    0    0 -0.13120446247E+02 -0.14804703544E+02 -0.24818798630E+02  0.31737960271E+02  0.00000000000E+00 0. -1.
        -11    1    5    5    0    0  0.24817751101E+02 -0.48181484570E+03 -0.11633368022E+04  0.12594101721E+04  0.00000000000E+00 0.  1.
          4    1    6    6  503    0 -0.11566776808E+02  0.20433318308E+02 -0.55128882864E+01  0.24118514881E+02  0.00000000000E+00 0. -1.
         -4    1    6    6    0  503 -0.15951485309E+02  0.61157986801E+01  0.14494224328E+03  0.14594556096E+03  0.00000000000E+00 0.  1.
<mgrwt>
<rscale>  0 0.15571861E+04</rscale>
<asrwt>0</asrwt>
<pdfrwt beam="1">  1        2 0.36077210E+00 0.15571861E+04</pdfrwt>
<pdfrwt beam="2">  1       -1 0.39770530E-01 0.15571861E+04</pdfrwt>
<totfact> 0.28869113E+01</totfact>
</mgrwt>
</event>
<event>
12    6  0.1530720E-007  0.1910090E+04  0.7818608E-02  0.8649850E-01
          2   -1    0    0  501    0  0.00000000000E+00  0.00000000000E+00  0.14816246032E+04  0.14816246032E+04  0.00000000000E+00 0. -1.
         -1   -1    0    0    0  501 -0.00000000000E+00 -0.00000000000E+00 -0.61561537934E+03  0.61561537934E+03  0.00000000000E+00 0.  1.
         24    2    1    2    0    0  0.16329437450E+02 -0.34557086249E+03 -0.40875073091E+03  0.54147974748E+03  0.80232695268E+02 0.  0.
        254    2    1    2    0    0 -0.16329437450E+02  0.34557086249E+03  0.12747599548E+04  0.15557602351E+04  0.82200431580E+03 0.  0.
         23    2    4    4    0    0 -0.27900608155E+02  0.47883557627E+03  0.31435872536E+03  0.58187684031E+03  0.98474849821E+02 0.  0.
         23    2    4    4    0    0  0.11571170705E+02 -0.13326471378E+03  0.96040122942E+03  0.97388339476E+03  0.90470819559E+02 0.  0.
          4    1    3    3  502    0 -0.25089643965E+02 -0.10746155053E+03 -0.16262879051E+03  0.19653396291E+03  0.00000000000E+00 0. -1.
         -3    1    3    3    0  502  0.41419081415E+02 -0.23810931196E+03 -0.24612194040E+03  0.34494578457E+03  0.00000000000E+00 0.  1.
         11    1    5    5    0    0 -0.21769224620E+02  0.87878057314E+02  0.10396790735E+03  0.13786144442E+03  0.00000000000E+00 0. -1.
        -11    1    5    5    0    0 -0.61313835354E+01  0.39095751895E+03  0.21039081801E+03  0.44401539590E+03  0.00000000000E+00 0.  1.
          1    1    6    6  503    0  0.47778037694E+02 -0.84471009592E+02  0.48491008584E+03  0.49452591812E+03  0.00000000000E+00 0. -1.
         -1    1    6    6    0  503 -0.36206866989E+02 -0.48793704188E+02  0.47549114358E+03  0.47935747664E+03  0.00000000000E+00 0.  1.
<mgrwt>
<rscale>  0 0.19100899E+04</rscale>
<asrwt>0</asrwt>
<pdfrwt beam="1">  1        2 0.22794225E+00 0.19100899E+04</pdfrwt>
<pdfrwt beam="2">  1       -1 0.94710059E-01 0.19100899E+04</pdfrwt>
<totfact> 0.14947237E+01</totfact>
</mgrwt>
</event>
<event>
12    6  0.1530720E-007  0.1322323E+04  0.7818608E-02  0.9012048E-01
          2   -1    0    0  501    0  0.00000000000E+00  0.00000000000E+00  0.12287095208E+04  0.12287095208E+04  0.00000000000E+00 0. -1.
         -1   -1    0    0    0  501 -0.00000000000E+00 -0.00000000000E+00 -0.35576692842E+03  0.35576692842E+03  0.00000000000E+00 0.  1.
         24    2    1    2    0    0  0.24829353250E+03  0.50261760535E+02  0.51498283682E+03  0.57983198742E+03  0.82594724809E+02 0.  0.
        254    2    1    2    0    0 -0.24829353250E+03 -0.50261760535E+02  0.35795975553E+03  0.10046444618E+04  0.90388018295E+03 0.  0.
         23    2    4    4    0    0 -0.64369496415E+02 -0.15453849865E+03  0.62411336289E+03  0.65276888389E+03  0.92542673428E+02 0.  0.
         23    2    4    4    0    0 -0.18392403609E+03  0.10427673811E+03 -0.26615360736E+03  0.35187557788E+03  0.90977966740E+02 0.  0.
          2    1    3    3  502    0  0.12004853091E+03  0.14246669048E+01  0.31670653368E+03  0.33869855022E+03  0.00000000000E+00 0. -1.
         -1    1    3    3    0  502  0.12824500160E+03  0.48837093630E+02  0.19827630314E+03  0.24113343720E+03  0.00000000000E+00 0.  1.
         11    1    5    5    0    0 -0.55219006549E+02 -0.65578201292E+02  0.17539503543E+03  0.19522565821E+03  0.00000000000E+00 0. -1.
        -11    1    5    5    0    0 -0.91504898652E+01 -0.88960297354E+02  0.44871832746E+03  0.45754322568E+03  0.00000000000E+00 0.  1.
          1    1    6    6  503    0 -0.35906119522E+02  0.62337006728E+02 -0.54673373423E+02  0.90356679821E+02  0.00000000000E+00 0. -1.
         -1    1    6    6    0  503 -0.14801791657E+03  0.41939731384E+02 -0.21148023394E+03  0.26151889806E+03  0.00000000000E+00 0.  1.
<mgrwt>
<rscale>  0 0.13223225E+04</rscale>
<asrwt>0</asrwt>
<pdfrwt beam="1">  1        2 0.18903223E+00 0.13223225E+04</pdfrwt>
<pdfrwt beam="2">  1       -1 0.54733374E-01 0.13223225E+04</pdfrwt>
<totfact> 0.68513043E+01</totfact>
</mgrwt>
</event>
<event>
12    6  0.1530720E-007  0.2275066E+04  0.7818608E-02  0.8487817E-01
          4   -1    0    0  501    0  0.00000000000E+00  0.00000000000E+00  0.17725877434E+04  0.17725877434E+04  0.00000000000E+00 0. -1.
         -3   -1    0    0    0  501 -0.00000000000E+00 -0.00000000000E+00 -0.72999580239E+03  0.72999580239E+03  0.00000000000E+00 0.  1.
         24    2    1    2    0    0  0.83697244736E+03 -0.46434027717E+03  0.39217452280E+03  0.10374665230E+04  0.80007246020E+02 0.  0.
        254    2    1    2    0    0 -0.83697244736E+03  0.46434027717E+03  0.65041741825E+03  0.14651170228E+04  0.89854899805E+03 0.  0.
         23    2    4    4    0    0 -0.41205787266E+03  0.54960931391E+03  0.73995633735E+03  0.10136663684E+04  0.90122344042E+02 0.  0.
         23    2    4    4    0    0 -0.42491457470E+03 -0.85269036746E+02 -0.89538919104E+02  0.45145065439E+03  0.89259570336E+02 0.  0.
          4    1    3    3  502    0  0.78191878550E+03 -0.41922760103E+03  0.38038972632E+03  0.96532124833E+03  0.00000000000E+00 0. -1.
         -3    1    3    3    0  502  0.55053661860E+02 -0.45112676134E+02  0.11784796478E+02  0.72145274691E+02  0.00000000000E+00 0.  1.
         11    1    5    5    0    0 -0.26865780302E+03  0.28646306002E+03  0.43659564350E+03  0.58724258684E+03  0.00000000000E+00 0. -1.
        -11    1    5    5    0    0 -0.14340006964E+03  0.26314625389E+03  0.30336069385E+03  0.42642378157E+03  0.00000000000E+00 0.  1.
          4    1    6    6  503    0 -0.39738488598E+03 -0.85402353042E+02 -0.10510076992E+03  0.41982672777E+03  0.00000000000E+00 0. -1.
         -4    1    6    6    0  503 -0.27529688720E+02  0.13331629606E+00  0.15561850817E+02  0.31623926624E+02  0.00000000000E+00 0.  1.
<mgrwt>
<rscale>  0 0.22750663E+04</rscale>
<asrwt>0</asrwt>
<pdfrwt beam="1">  1        4 0.27270580E+00 0.22750663E+04</pdfrwt>
<pdfrwt beam="2">  1       -3 0.11230705E+00 0.22750663E+04</pdfrwt>
<totfact> 0.62692100E-02</totfact>
</mgrwt>
</event>
<event>
12    6  0.1530720E-007  0.2091456E+04  0.7818608E-02  0.8565017E-01
          2   -1    0    0  501    0  0.00000000000E+00  0.00000000000E+00  0.29162326858E+04  0.29162326858E+04  0.00000000000E+00 0. -1.
         -1   -1    0    0    0  501 -0.00000000000E+00 -0.00000000000E+00 -0.37498605269E+03  0.37498605269E+03  0.00000000000E+00 0.  1.
         24    2    1    2    0    0 -0.30965224296E+03  0.68602312667E+03  0.44422491217E+03  0.87770554809E+03  0.80740415278E+02 0.  0.
        254    2    1    2    0    0  0.30965224296E+03 -0.68602312667E+03  0.20970217210E+04  0.24135131904E+04  0.92791895136E+03 0.  0.
         23    2    4    4    0    0  0.13253720595E+03 -0.76467184310E+01  0.14373889988E+04  0.14465208913E+04  0.93332586310E+02 0.  0.
         23    2    4    4    0    0  0.17711503701E+03 -0.67837640824E+03  0.65963272214E+03  0.96699229917E+03  0.91621454550E+02 0.  0.
          4    1    3    3  502    0 -0.50232893027E+02  0.17709647810E+03  0.13383804877E+03  0.22759422092E+03  0.00000000000E+00 0. -1.
         -3    1    3    3    0  502 -0.25941934993E+03  0.50892664856E+03  0.31038686340E+03  0.65011132717E+03  0.00000000000E+00 0.  1.
         11    1    5    5    0    0 -0.73244144159E+01  0.13272384845E+01  0.11112318536E+02  0.13375060066E+02  0.00000000000E+00 0. -1.
        -11    1    5    5    0    0  0.13986162036E+03 -0.89739569155E+01  0.14262766803E+04  0.14331458312E+04  0.00000000000E+00 0.  1.
          3    1    6    6  503    0  0.95139301234E+02 -0.24360906156E+03  0.28967918785E+03  0.39027028248E+03  0.00000000000E+00 0. -1.
         -3    1    6    6    0  503  0.81975735779E+02 -0.43476734668E+03  0.36995353429E+03  0.57672201669E+03  0.00000000000E+00 0.  1.
<mgrwt>
<rscale>  0 0.20914556E+04</rscale>
<asrwt>0</asrwt>
<pdfrwt beam="1">  1        2 0.44865117E+00 0.20914556E+04</pdfrwt>
<pdfrwt beam="2">  1       -1 0.57690164E-01 0.20914556E+04</pdfrwt>
<totfact> 0.62804841E+00</totfact>
</mgrwt>
</event>
<event>
12    6  0.1530720E-007  0.1978718E+04  0.7818608E-02  0.8616636E-01
         -1   -1    0    0    0  501 -0.00000000000E+00  0.00000000000E+00  0.27296389542E+03  0.27296389542E+03  0.00000000000E+00 0.  1.
          2   -1    0    0  501    0  0.00000000000E+00 -0.00000000000E+00 -0.35859361549E+04  0.35859361549E+04  0.00000000000E+00 0. -1.
         24    2    1    2    0    0  0.36286128253E+03  0.81231344637E+02  0.28604503084E+02  0.38165686795E+03  0.81098122930E+02 0.  0.
        254    2    1    2    0    0 -0.36286128253E+03 -0.81231344637E+02 -0.33415767626E+04  0.34772431824E+04  0.88702764759E+03 0.  0.
         23    2    4    4    0    0  0.19524063936E+02  0.96743588459E+02 -0.29728103117E+02  0.13740360946E+03  0.90859676415E+02 0.  0.
         23    2    4    4    0    0 -0.38238534647E+03 -0.17797493310E+03 -0.33118486595E+04  0.33398395729E+04  0.91067006798E+02 0.  0.
          2    1    3    3  502    0  0.20306359605E+03  0.46289070411E+02 -0.24430331593E+02  0.20970060368E+03  0.00000000000E+00 0. -1.
         -1    1    3    3    0  502  0.15979768648E+03  0.34942274227E+02  0.53034834677E+02  0.17195626427E+03  0.00000000000E+00 0.  1.
         11    1    5    5    0    0  0.32683972546E+02  0.42760877552E+02  0.25061531438E+02  0.59370153010E+02  0.00000000000E+00 0.  1.
        -11    1    5    5    0    0 -0.13159908609E+02  0.53982710907E+02 -0.54789634556E+02  0.78033456455E+02  0.00000000000E+00 0. -1.
          3    1    6    6  503    0 -0.28804595485E+02 -0.18829356569E+02 -0.13098740346E+03  0.13543245274E+03  0.00000000000E+00 0. -1.
         -3    1    6    6    0  503 -0.35358075098E+03 -0.15914557653E+03 -0.31808612560E+04  0.32044071202E+04  0.00000000000E+00 0.  1.
<mgrwt>
<rscale>  0 0.19787179E+04</rscale>
<asrwt>0</asrwt>
<pdfrwt beam="1">  1        2 0.55168252E+00 0.19787179E+04</pdfrwt>
<pdfrwt beam="2">  1       -1 0.41994443E-01 0.19787179E+04</pdfrwt>
<totfact> 0.41963377E+00</totfact>
</mgrwt>
</event>
<event>
12    6  0.1530720E-007  0.1556488E+04  0.7818608E-02  0.8847734E-01
          2   -1    0    0  501    0  0.00000000000E+00  0.00000000000E+00  0.56352567650E+03  0.56352567650E+03  0.00000000000E+00 0. -1.
         -1   -1    0    0    0  501 -0.00000000000E+00 -0.00000000000E+00 -0.10747759456E+04  0.10747759456E+04  0.00000000000E+00 0.  1.
         24    2    1    2    0    0 -0.18804113406E+03  0.22158086571E+03 -0.62056118415E+03  0.68989530156E+03  0.80011222313E+02 0.  0.
        254    2    1    2    0    0  0.18804113406E+03 -0.22158086571E+03  0.10931091507E+03  0.94840632053E+03  0.89614068344E+03 0.  0.
         23    2    4    4    0    0 -0.19331868032E+03 -0.33714577104E+03  0.29785423124E+03  0.49814213212E+03  0.91591798949E+02 0.  0.
         23    2    4    4    0    0  0.38135981438E+03  0.11556490533E+03 -0.18854331617E+03  0.45026418841E+03  0.91644432038E+02 0.  0.
          2    1    3    3  502    0 -0.14912046718E+02  0.19903165623E+02 -0.16234305895E+02  0.29699458363E+02  0.00000000000E+00 0. -1.
         -1    1    3    3    0  502 -0.17312908734E+03  0.20167770009E+03 -0.60432687825E+03  0.66019584320E+03  0.00000000000E+00 0.  1.
         11    1    5    5    0    0 -0.12391530553E+03 -0.27109304892E+03  0.25855341355E+03  0.39458371961E+03  0.00000000000E+00 0.  1.
        -11    1    5    5    0    0 -0.69403374790E+02 -0.66052722114E+02  0.39300817686E+02  0.10355841251E+03  0.00000000000E+00 0. -1.
          4    1    6    6  503    0  0.38197398058E+03  0.10381416497E+03 -0.17640674792E+03  0.43335994670E+03  0.00000000000E+00 0.  1.
         -4    1    6    6    0  503 -0.61416620021E+00  0.11750740354E+02 -0.12136568247E+02  0.16904241710E+02  0.00000000000E+00 0. -1.
<mgrwt>
<rscale>  0 0.15564882E+04</rscale>
<asrwt>0</asrwt>
<pdfrwt beam="1">  1        2 0.86696259E-01 0.15564882E+04</pdfrwt>
<pdfrwt beam="2">  1       -1 0.16535014E+00 0.15564882E+04</pdfrwt>
<totfact> 0.15663248E+01</totfact>
</mgrwt>
</event>
<event>
12    6  0.1530720E-007  0.2318844E+04  0.7818608E-02  0.8470528E-01
         -1   -1    0    0    0  501 -0.00000000000E+00  0.00000000000E+00  0.75283283408E+03  0.75283283408E+03  0.00000000000E+00 0.  1.
          2   -1    0    0  501    0  0.00000000000E+00 -0.00000000000E+00 -0.17856009255E+04  0.17856009255E+04  0.00000000000E+00 0. -1.
         24    2    1    2    0    0 -0.46596266752E+03  0.13353985098E+03  0.49821487709E+03  0.69960613420E+03  0.79224869403E+02 0.  0.
        254    2    1    2    0    0  0.46596266752E+03 -0.13353985098E+03 -0.15309829685E+04  0.18388276254E+04  0.89578127166E+03 0.  0.
         23    2    4    4    0    0  0.94277815154E+02 -0.40574477820E+03 -0.11736240847E+04  0.12487188831E+04  0.91587255030E+02 0.  0.
         23    2    4    4    0    0  0.37168485237E+03  0.27220492722E+03 -0.35735888378E+03  0.59010874228E+03  0.90982437962E+02 0.  0.
          4    1    3    3  502    0 -0.70170632231E+02  0.49449690329E+02  0.10166823212E+03  0.13306246249E+03  0.00000000000E+00 0. -1.
         -3    1    3    3    0  502 -0.39579203529E+03  0.84090160652E+02  0.39654664497E+03  0.56654367171E+03  0.00000000000E+00 0.  1.
         11    1    5    5    0    0  0.90677106198E+02 -0.36757200796E+03 -0.96514271564E+03  0.10367410381E+04  0.00000000000E+00 0.  1.
        -11    1    5    5    0    0  0.36007089558E+01 -0.38172770233E+02 -0.20848136909E+03  0.21197784495E+03  0.00000000000E+00 0. -1.
          4    1    6    6  503    0  0.10397490155E+03  0.90215477971E+02 -0.58630688883E+02  0.14962342830E+03  0.00000000000E+00 0. -1.
         -4    1    6    6    0  503  0.26770995082E+03  0.18198944925E+03 -0.29872819489E+03  0.44048531397E+03  0.00000000000E+00 0.  1.
<mgrwt>
<rscale>  0 0.23188437E+04</rscale>
<asrwt>0</asrwt>
<pdfrwt beam="1">  1        2 0.27470784E+00 0.23188437E+04</pdfrwt>
<pdfrwt beam="2">  1       -1 0.11582044E+00 0.23188437E+04</pdfrwt>
<totfact> 0.61117554E+00</totfact>
</mgrwt>
</event>
<event>
12    6  0.1530720E-007  0.1284062E+04  0.7818608E-02  0.9042301E-01
         -1   -1    0    0    0  501 -0.00000000000E+00  0.00000000000E+00  0.46850095734E+03  0.46850095734E+03  0.00000000000E+00 0.  1.
          2   -1    0    0  501    0  0.00000000000E+00 -0.00000000000E+00 -0.87983541769E+03  0.87983541769E+03  0.00000000000E+00 0. -1.
         24    2    1    2    0    0 -0.24552527713E+03 -0.21359246840E+03 -0.83201300563E+02  0.34528553321E+03  0.79970236721E+02 0.  0.
        254    2    1    2    0    0  0.24552527713E+03  0.21359246840E+03 -0.32813315978E+03  0.10030508418E+04  0.89024447005E+03 0.  0.
         23    2    4    4    0    0 -0.31384852401E+03  0.10475712454E+03 -0.24112619784E+03  0.41939369051E+03  0.90963032000E+02 0.  0.
         23    2    4    4    0    0  0.55937380115E+03  0.10883534387E+03 -0.87006961943E+02  0.58365715130E+03  0.91330593770E+02 0.  0.
          2    1    3    3  502    0  0.15113469975E+01 -0.54389049395E+01 -0.13750279858E+02  0.14863917817E+02  0.00000000000E+00 0. -1.
         -1    1    3    3    0  502 -0.24703662413E+03 -0.20815356346E+03 -0.69451020705E+02  0.33042161540E+03  0.00000000000E+00 0.  1.
         11    1    5    5    0    0 -0.23914205363E+02  0.72283153645E+01 -0.57301858792E+02  0.62511125267E+02  0.00000000000E+00 0.  1.
        -11    1    5    5    0    0 -0.28993431865E+03  0.97528809172E+02 -0.18382433905E+03  0.35688256525E+03  0.00000000000E+00 0. -1.
          4    1    6    6  503    0  0.50118688211E+03  0.99898566095E+02 -0.10575700311E+03  0.52187408253E+03  0.00000000000E+00 0. -1.
         -4    1    6    6    0  503  0.58186919036E+02  0.89367777704E+01  0.18750041164E+02  0.61783068777E+02  0.00000000000E+00 0.  1.
<mgrwt>
<rscale>  0 0.12840619E+04</rscale>
<asrwt>0</asrwt>
<pdfrwt beam="1">  1        2 0.13535930E+00 0.12840619E+04</pdfrwt>
<pdfrwt beam="2">  1       -1 0.72077070E-01 0.12840619E+04</pdfrwt>
<totfact> 0.65850381E+01</totfact>
</mgrwt>
</event>
<event>
12    6  0.1530720E-007  0.1845303E+04  0.7818608E-02  0.8682572E-01
          2   -1    0    0  501    0  0.00000000000E+00  0.00000000000E+00  0.19401094418E+04  0.19401094418E+04  0.00000000000E+00 0. -1.
         -1   -1    0    0    0  501 -0.00000000000E+00 -0.00000000000E+00 -0.43878252992E+03  0.43878252992E+03  0.00000000000E+00 0.  1.
         24    2    1    2    0    0  0.35698970001E+03 -0.47984656620E+03  0.10253887815E+03  0.61220847264E+03  0.81182630119E+02 0.  0.
        254    2    1    2    0    0 -0.35698970001E+03  0.47984656620E+03  0.13987880337E+04  0.17666834991E+04  0.89825845366E+03 0.  0.
         23    2    4    4    0    0 -0.50543817982E+03  0.12482008113E+03  0.32060270664E+03  0.61832376185E+03  0.92143218365E+02 0.  0.
         23    2    4    4    0    0  0.14844847981E+03  0.35502648507E+03  0.10781853271E+04  0.11483597372E+04  0.90364430338E+02 0.  0.
          4    1    3    3  502    0 -0.14082093707E+01 -0.74544101708E+01  0.92343273464E+01  0.11950903153E+02  0.00000000000E+00 0. -1.
         -3    1    3    3    0  502  0.35839790938E+03 -0.47239215603E+03  0.93304550804E+02  0.60025756949E+03  0.00000000000E+00 0.  1.
         11    1    5    5    0    0 -0.31959261245E+03  0.11281696458E+03  0.17199071971E+03  0.38006303832E+03  0.00000000000E+00 0.  1.
        -11    1    5    5    0    0 -0.18584556737E+03  0.12003116553E+02  0.14861198694E+03  0.23826072353E+03  0.00000000000E+00 0. -1.
          2    1    6    6  503    0  0.14332462738E+03  0.33103663472E+03  0.91843758999E+03  0.98673948388E+03  0.00000000000E+00 0.  1.
         -2    1    6    6    0  503  0.51238524268E+01  0.23989850353E+02  0.15974773708E+03  0.16162025333E+03  0.00000000000E+00 0. -1.
<mgrwt>
<rscale>  0 0.18453034E+04</rscale>
<asrwt>0</asrwt>
<pdfrwt beam="1">  1        2 0.29847837E+00 0.18453034E+04</pdfrwt>
<pdfrwt beam="2">  1       -1 0.67505006E-01 0.18453034E+04</pdfrwt>
<totfact> 0.17173332E+01</totfact>
</mgrwt>
</event>
<event>
12    6  0.1530720E-007  0.1786028E+04  0.7818608E-02  0.8713765E-01
          2   -1    0    0  501    0  0.00000000000E+00  0.00000000000E+00  0.18309878595E+04  0.18309878595E+04  0.00000000000E+00 0. -1.
         -1   -1    0    0    0  501 -0.00000000000E+00 -0.00000000000E+00 -0.43554316435E+03  0.43554316435E+03  0.00000000000E+00 0.  1.
         24    2    1    2    0    0  0.57525789923E+03  0.30724386969E+03  0.68281621227E+03  0.94733734115E+03  0.76743808304E+02 0.  0.
        254    2    1    2    0    0 -0.57525789923E+03 -0.30724386969E+03  0.71262848289E+03  0.13191936827E+04  0.89839421848E+03 0.  0.
         23    2    4    4    0    0 -0.32506166768E+03  0.27625956381E+03  0.44891736158E+03  0.62589644885E+03  0.90747632240E+02 0.  0.
         23    2    4    4    0    0 -0.25019623154E+03 -0.58350343350E+03  0.26371112131E+03  0.69329723387E+03  0.89683263794E+02 0.  0.
          4    1    3    3  502    0  0.45520010121E+03  0.24420569824E+03  0.58318908342E+03  0.77907192365E+03  0.00000000000E+00 0. -1.
         -3    1    3    3    0  502  0.12005779802E+03  0.63038171443E+02  0.99627128848E+02  0.16826541750E+03  0.00000000000E+00 0.  1.
         11    1    5    5    0    0 -0.16050505550E+02  0.11358472679E+02  0.59236516782E+02  0.62414730237E+02  0.00000000000E+00 0. -1.
        -11    1    5    5    0    0 -0.30901116213E+03  0.26490109113E+03  0.38968084480E+03  0.56348171861E+03  0.00000000000E+00 0.  1.
          1    1    6    6  503    0 -0.56355849510E+02 -0.67018439152E+02  0.55389108341E+02  0.10361180571E+03  0.00000000000E+00 0. -1.
         -1    1    6    6    0  503 -0.19384038203E+03 -0.51648499434E+03  0.20832201297E+03  0.58968542815E+03  0.00000000000E+00 0.  1.
<mgrwt>
<rscale>  0 0.17860283E+04</rscale>
<asrwt>0</asrwt>
<pdfrwt beam="1">  1        2 0.28169044E+00 0.17860283E+04</pdfrwt>
<pdfrwt beam="2">  1       -1 0.67006642E-01 0.17860283E+04</pdfrwt>
<totfact> 0.20142230E+01</totfact>
</mgrwt>
</event>
<event>
12    6  0.1530720E-007  0.1181348E+04  0.7818608E-02  0.9129341E-01
          2   -1    0    0  501    0  0.00000000000E+00  0.00000000000E+00  0.61587118856E+03  0.61587118856E+03  0.00000000000E+00 0. -1.
         -1   -1    0    0    0  501 -0.00000000000E+00 -0.00000000000E+00 -0.56650730272E+03  0.56650730272E+03  0.00000000000E+00 0.  1.
         24    2    1    2    0    0 -0.26819730751E+02  0.21424994149E+03 -0.97310647125E+02  0.24857264367E+03  0.75476233037E+02 0.  0.
        254    2    1    2    0    0  0.26819730751E+02 -0.21424994149E+03  0.14667453297E+03  0.93380584761E+03  0.89658106551E+03 0.  0.
         23    2    4    4    0    0 -0.97080422332E+01  0.34364796715E+03  0.64027110933E+02  0.36120868178E+03  0.90465846847E+02 0.  0.
         23    2    4    4    0    0  0.36527772984E+02 -0.55789790864E+03  0.82647422035E+02  0.57259716583E+03  0.91937822895E+02 0.  0.
          4    1    3    3  502    0 -0.10110944678E+02  0.17050262590E+03 -0.41601618035E+02  0.17579553824E+03  0.00000000000E+00 0. -1.
         -3    1    3    3    0  502 -0.16708786073E+02  0.43747315584E+02 -0.55709029090E+02  0.72777105431E+02  0.00000000000E+00 0.  1.
         11    1    5    5    0    0 -0.16253216551E+02  0.61234254242E+02 -0.20086059883E+02  0.66462400968E+02  0.00000000000E+00 0. -1.
        -11    1    5    5    0    0  0.65451743182E+01  0.28241371291E+03  0.84113170816E+02  0.29474628081E+03  0.00000000000E+00 0.  1.
          4    1    6    6  503    0  0.54952261322E+02 -0.27973591652E+03  0.69939566378E+02  0.29353615954E+03  0.00000000000E+00 0. -1.
         -4    1    6    6    0  503 -0.18424488338E+02 -0.27816199212E+03  0.12707855657E+02  0.27906100628E+03  0.00000000000E+00 0.  1.
<mgrwt>
<rscale>  0 0.11813476E+04</rscale>
<asrwt>0</asrwt>
<pdfrwt beam="1">  1        2 0.94749414E-01 0.11813476E+04</pdfrwt>
<pdfrwt beam="2">  1       -1 0.87154970E-01 0.11813476E+04</pdfrwt>
<totfact> 0.70354758E+01</totfact>
</mgrwt>
</event>
<event>
12    6  0.1530720E-007  0.1892067E+04  0.7818608E-02  0.8658815E-01
          2   -1    0    0  501    0  0.00000000000E+00  0.00000000000E+00  0.43419406666E+04  0.43419406666E+04  0.00000000000E+00 0. -1.
         -1   -1    0    0    0  501 -0.00000000000E+00 -0.00000000000E+00 -0.20612424250E+03  0.20612424250E+03  0.00000000000E+00 0.  1.
         24    2    1    2    0    0  0.62239769241E+03 -0.68264562071E+02  0.70089230916E+03  0.94320290719E+03  0.79641428534E+02 0.  0.
        254    2    1    2    0    0 -0.62239769241E+03  0.68264562071E+02  0.34349241149E+04  0.36048620019E+04  0.89682073983E+03 0.  0.
         23    2    4    4    0    0 -0.57360227228E+03 -0.27339047755E+03  0.28368514950E+04  0.29086735478E+04  0.94305265266E+02 0.  0.
         23    2    4    4    0    0 -0.48795420136E+02  0.34165503962E+03  0.59807261992E+03  0.69618845407E+03  0.88760045984E+02 0.  0.
          2    1    3    3  502    0  0.83158000811E+02 -0.26439144823E+02  0.13204369430E+03  0.15827134511E+03  0.00000000000E+00 0. -1.
         -1    1    3    3    0  502  0.53923969160E+03 -0.41825417248E+02  0.56884861486E+03  0.78493156208E+03  0.00000000000E+00 0.  1.
         11    1    5    5    0    0 -0.41599066827E+03 -0.19751175379E+03  0.22333830335E+04  0.22803637656E+04  0.00000000000E+00 0. -1.
        -11    1    5    5    0    0 -0.15761160401E+03 -0.75878723763E+02  0.60346846149E+03  0.62830978223E+03  0.00000000000E+00 0.  1.
          3    1    6    6  503    0 -0.17822495165E+02  0.18837529338E+03  0.41028877082E+03  0.45181829085E+03  0.00000000000E+00 0. -1.
         -3    1    6    6    0  503 -0.30972924970E+02  0.15327974624E+03  0.18778384910E+03  0.24437016322E+03  0.00000000000E+00 0.  1.
<mgrwt>
<rscale>  0 0.18920668E+04</rscale>
<asrwt>0</asrwt>
<pdfrwt beam="1">  1        2 0.66799080E+00 0.18920668E+04</pdfrwt>
<pdfrwt beam="2">  1       -1 0.31711425E-01 0.18920668E+04</pdfrwt>
<totfact> 0.17446841E+00</totfact>
</mgrwt>
</event>
<event>
12    6  0.1530720E-007  0.2440497E+04  0.7818608E-02  0.8424496E-01
          2   -1    0    0  501    0  0.00000000000E+00  0.00000000000E+00  0.17495088410E+04  0.17495088410E+04  0.00000000000E+00 0. -1.
         -1   -1    0    0    0  501 -0.00000000000E+00 -0.00000000000E+00 -0.85109988744E+03  0.85109988744E+03  0.00000000000E+00 0.  1.
         24    2    1    2    0    0  0.99846787488E+03  0.15290900212E+03  0.71062061161E+02  0.10156786034E+04  0.78955359321E+02 0.  0.
        254    2    1    2    0    0 -0.99846787488E+03 -0.15290900212E+03  0.82734689237E+03  0.15849301250E+04  0.89843272465E+03 0.  0.
         23    2    4    4    0    0 -0.80934487750E+03  0.15732769802E+03  0.19776834048E+03  0.85277162788E+03  0.91192091273E+02 0.  0.
         23    2    4    4    0    0 -0.18912299738E+03 -0.31023670014E+03  0.62957855189E+03  0.73215849713E+03  0.87593342605E+02 0.  0.
          4    1    3    3  502    0  0.23548203540E+03  0.69213954085E+02  0.25515934814E+02  0.24676592829E+03  0.00000000000E+00 0. -1.
         -3    1    3    3    0  502  0.76298583948E+03  0.83695048035E+02  0.45546126348E+02  0.76891267511E+03  0.00000000000E+00 0.  1.
         11    1    5    5    0    0 -0.74536361299E+03  0.15911890993E+03  0.20246775242E+03  0.78859300900E+03  0.00000000000E+00 0.  1.
        -11    1    5    5    0    0 -0.63981264511E+02 -0.17912119126E+01 -0.46994119412E+01  0.64178618879E+02  0.00000000000E+00 0. -1.
          2    1    6    6  503    0 -0.23850601816E+02 -0.26515445708E+02  0.12631682074E+03  0.13125493999E+03  0.00000000000E+00 0. -1.
         -2    1    6    6    0  503 -0.16527239556E+03 -0.28372125443E+03  0.50326173114E+03  0.60090355714E+03  0.00000000000E+00 0.  1.
<mgrwt>
<rscale>  0 0.24404973E+04</rscale>
<asrwt>0</asrwt>
<pdfrwt beam="1">  1        2 0.26915521E+00 0.24404973E+04</pdfrwt>
<pdfrwt beam="2">  1       -1 0.13093844E+00 0.24404973E+04</pdfrwt>
<totfact> 0.46768876E+00</totfact>
</mgrwt>
</event>
<event>
12    6  0.1530720E-007  0.2884104E+04  0.7818608E-02  0.8277623E-01
          2   -1    0    0  501    0  0.00000000000E+00  0.00000000000E+00  0.26218495715E+04  0.26218495715E+04  0.00000000000E+00 0. -1.
         -1   -1    0    0    0  501 -0.00000000000E+00 -0.00000000000E+00 -0.79314782913E+03  0.79314782913E+03  0.00000000000E+00 0.  1.
         24    2    1    2    0    0  0.89523134471E+03  0.10295626442E+03  0.19410454190E+04  0.21415190046E+04  0.80044833721E+02 0.  0.
        254    2    1    2    0    0 -0.89523134471E+03 -0.10295626442E+03 -0.11234367664E+03  0.12734783960E+04  0.89279727294E+03 0.  0.
         23    2    4    4    0    0 -0.94301027417E+02  0.32856819174E+03 -0.22539879093E+02  0.35481351273E+03  0.92384210096E+02 0.  0.
         23    2    4    4    0    0 -0.80093031729E+03 -0.43152445615E+03 -0.89803797549E+02  0.91866488331E+03  0.90430726823E+02 0.  0.
          4    1    3    3  502    0  0.49706551412E+03  0.70119652366E+02  0.11691268191E+04  0.12723397385E+04  0.00000000000E+00 0. -1.
         -3    1    3    3    0  502  0.39816583059E+03  0.32836612051E+02  0.77191859988E+03  0.86917926608E+03  0.00000000000E+00 0.  1.
         11    1    5    5    0    0 -0.73074397943E+02  0.22156309718E+03  0.27268063623E+02  0.23489065746E+03  0.00000000000E+00 0. -1.
        -11    1    5    5    0    0 -0.21226629474E+02  0.10700509456E+03 -0.49807942716E+02  0.11992285528E+03  0.00000000000E+00 0.  1.
          1    1    6    6  503    0 -0.76630465058E+03 -0.42983956798E+03 -0.78165436173E+02  0.88209676743E+03  0.00000000000E+00 0. -1.
         -1    1    6    6    0  503 -0.34625666712E+02 -0.16848881791E+01 -0.11638361376E+02  0.36568115880E+02  0.00000000000E+00 0.  1.
<mgrwt>
<rscale>  0 0.28841042E+04</rscale>
<asrwt>0</asrwt>
<pdfrwt beam="1">  1        2 0.40336147E+00 0.28841042E+04</pdfrwt>
<pdfrwt beam="2">  1       -1 0.12202274E+00 0.28841042E+04</pdfrwt>
<totfact> 0.17236181E+00</totfact>
</mgrwt>
</event>
<event>
12    6  0.1530720E-007  0.1512853E+04  0.7818608E-02  0.8875950E-01
         -1   -1    0    0    0  501 -0.00000000000E+00  0.00000000000E+00  0.57495598533E+03  0.57495598533E+03  0.00000000000E+00 0.  1.
          2   -1    0    0  501    0  0.00000000000E+00 -0.00000000000E+00 -0.99517387675E+03  0.99517387675E+03  0.00000000000E+00 0. -1.
         24    2    1    2    0    0 -0.38701668885E+01 -0.13999455734E+03  0.34129414026E+03  0.37745144857E+03  0.79840162679E+02 0.  0.
        254    2    1    2    0    0  0.38701668885E+01  0.13999455734E+03 -0.76151203168E+03  0.11926784135E+04  0.90717571031E+03 0.  0.
         23    2    4    4    0    0 -0.21401259811E+03 -0.20016650699E+03  0.17548506693E+02  0.31015520054E+03  0.10010132697E+03 0.  0.
         23    2    4    4    0    0  0.21788276500E+03  0.34016106432E+03 -0.77906053837E+03  0.88252321297E+03  0.93431525826E+02 0.  0.
          4    1    3    3  502    0 -0.15395703387E+02  0.44446761514E+01  0.27730899082E+02  0.32027887735E+02  0.00000000000E+00 0. -1.
         -3    1    3    3    0  502  0.11525536499E+02 -0.14443923349E+03  0.31356324118E+03  0.34542356083E+03  0.00000000000E+00 0.  1.
         11    1    5    5    0    0 -0.21613705317E+03 -0.20893611930E+03  0.16445249659E+02  0.30106473380E+03  0.00000000000E+00 0.  1.
        -11    1    5    5    0    0  0.21244550526E+01  0.87696123144E+01  0.11032570338E+01  0.90904667371E+01  0.00000000000E+00 0. -1.
          1    1    6    6  503    0  0.49774525634E+02  0.51651081202E+02 -0.77796514716E+02  0.10581887966E+03  0.00000000000E+00 0. -1.
         -1    1    6    6    0  503  0.16810823937E+03  0.28850998312E+03 -0.70126402366E+03  0.77670433331E+03  0.00000000000E+00 0.  1.
<mgrwt>
<rscale>  0 0.15128532E+04</rscale>
<asrwt>0</asrwt>
<pdfrwt beam="1">  1        2 0.15310367E+00 0.15128532E+04</pdfrwt>
<pdfrwt beam="2">  1       -1 0.88454768E-01 0.15128532E+04</pdfrwt>
<totfact> 0.35071403E+01</totfact>
</mgrwt>
</event>
<event>
12    6  0.1530720E-007  0.1341940E+04  0.7818608E-02  0.8996952E-01
          2   -1    0    0  501    0  0.00000000000E+00  0.00000000000E+00  0.10789309148E+04  0.10789309148E+04  0.00000000000E+00 0. -1.
         -1   -1    0    0    0  501 -0.00000000000E+00 -0.00000000000E+00 -0.41726582038E+03  0.41726582038E+03  0.00000000000E+00 0.  1.
         24    2    1    2    0    0 -0.36281168341E+03 -0.48965444948E+02  0.20755008808E+03  0.42845521099E+03  0.80417015259E+02 0.  0.
        254    2    1    2    0    0  0.36281168341E+03  0.48965444948E+02  0.45411500635E+03  0.10677415242E+04  0.89432745183E+03 0.  0.
         23    2    4    4    0    0  0.59595136888E+03  0.10578699156E+03  0.52077237760E+03  0.80370817860E+03  0.91619023273E+02 0.  0.
         23    2    4    4    0    0 -0.23313968547E+03 -0.56821546613E+02 -0.66657371244E+02  0.26403334560E+03  0.87678967533E+02 0.  0.
          2    1    3    3  502    0 -0.59676538638E+02  0.16978330375E+02  0.16804179013E+02  0.64280116665E+02  0.00000000000E+00 0. -1.
         -1    1    3    3    0  502 -0.30313514477E+03 -0.65943775323E+02  0.19074590907E+03  0.36417509432E+03  0.00000000000E+00 0.  1.
         11    1    5    5    0    0  0.19396602400E+03  0.32499430268E+02  0.11488097486E+03  0.22776450518E+03  0.00000000000E+00 0.  1.
        -11    1    5    5    0    0  0.40198534488E+03  0.73287561293E+02  0.40589140274E+03  0.57594367342E+03  0.00000000000E+00 0. -1.
          1    1    6    6  503    0 -0.17312612057E+03 -0.20590243120E+01 -0.56676027491E+02  0.18217866312E+03  0.00000000000E+00 0. -1.
         -1    1    6    6    0  503 -0.60013564901E+02 -0.54762522301E+02 -0.99813437536E+01  0.81854682481E+02  0.00000000000E+00 0.  1.
<mgrwt>
<rscale>  0 0.13419404E+04</rscale>
<asrwt>0</asrwt>
<pdfrwt beam="1">  1        2 0.16598937E+00 0.13419404E+04</pdfrwt>
<pdfrwt beam="2">  1       -1 0.64194742E-01 0.13419404E+04</pdfrwt>
<totfact> 0.61590232E+01</totfact>
</mgrwt>
</event>
<event>
12    6  0.1530720E-007  0.1513088E+04  0.7818608E-02  0.8875796E-01
         -1   -1    0    0    0  501 -0.00000000000E+00  0.00000000000E+00  0.37651611116E+03  0.37651611116E+03  0.00000000000E+00 0.  1.
          2   -1    0    0  501    0  0.00000000000E+00 -0.00000000000E+00 -0.15201436533E+04  0.15201436533E+04  0.00000000000E+00 0. -1.
         24    2    1    2    0    0  0.21589863977E+03 -0.42733313689E+03 -0.32002476627E+03  0.58142420294E+03  0.80077588593E+02 0.  0.
        254    2    1    2    0    0 -0.21589863977E+03  0.42733313689E+03 -0.82360277591E+03  0.13152355616E+04  0.90680605279E+03 0.  0.
         23    2    4    4    0    0 -0.89111981636E+02  0.63084950712E+03 -0.84064255635E+03  0.10585481274E+04  0.89062812382E+02 0.  0.
         23    2    4    4    0    0 -0.12678665813E+03 -0.20351637022E+03  0.17039780446E+02  0.25668743417E+03  0.90023969676E+02 0.  0.
          4    1    3    3  502    0  0.24269025269E+02 -0.55209512292E+02 -0.75631357167E+02  0.96732507576E+02  0.00000000000E+00 0. -1.
         -3    1    3    3    0  502  0.19162961450E+03 -0.37212362460E+03 -0.24439340910E+03  0.48469169536E+03  0.00000000000E+00 0.  1.
         11    1    5    5    0    0 -0.69646882356E+02  0.30416337929E+03 -0.46939327862E+03  0.56364536682E+03  0.00000000000E+00 0. -1.
        -11    1    5    5    0    0 -0.19465099280E+02  0.32668612782E+03 -0.37124927774E+03  0.49490276057E+03  0.00000000000E+00 0.  1.
          3    1    6    6  503    0 -0.38278494232E+02 -0.13298559023E+03  0.33343667243E+02  0.14234539148E+03  0.00000000000E+00 0. -1.
         -3    1    6    6    0  503 -0.88508163902E+02 -0.70530779991E+02 -0.16303886796E+02  0.11434204270E+03  0.00000000000E+00 0.  1.
<mgrwt>
<rscale>  0 0.15130877E+04</rscale>
<asrwt>0</asrwt>
<pdfrwt beam="1">  1        2 0.23386825E+00 0.15130877E+04</pdfrwt>
<pdfrwt beam="2">  1       -1 0.57925555E-01 0.15130877E+04</pdfrwt>
<totfact> 0.41060423E+01</totfact>
</mgrwt>
</event>
<event>
12    6  0.1530720E-007  0.2593564E+04  0.7818608E-02  0.8370391E-01
         -1   -1    0    0    0  501 -0.00000000000E+00  0.00000000000E+00  0.10237154003E+04  0.10237154003E+04  0.00000000000E+00 0.  1.
          2   -1    0    0  501    0  0.00000000000E+00 -0.00000000000E+00 -0.16426866104E+04  0.16426866104E+04  0.00000000000E+00 0. -1.
         24    2    1    2    0    0 -0.60312519244E+03 -0.33956638093E+03 -0.12042045496E+04  0.13911512967E+04  0.78281596596E+02 0.  0.
        254    2    1    2    0    0  0.60312519244E+03  0.33956638093E+03  0.58523333949E+03  0.12752507140E+04  0.89705127892E+03 0.  0.
         23    2    4    4    0    0  0.40467613273E+03  0.20747500020E+03 -0.15742532553E+03  0.48965137650E+03  0.90371949621E+02 0.  0.
         23    2    4    4    0    0  0.19844905971E+03  0.13209138073E+03  0.74265866502E+03  0.78559933747E+03  0.93777737976E+02 0.  0.
          4    1    3    3  502    0 -0.35576928889E+03 -0.19153477984E+03 -0.77713386861E+03  0.87589634578E+03  0.00000000000E+00 0. -1.
         -3    1    3    3    0  502 -0.24735590356E+03 -0.14803160108E+03 -0.42707068097E+03  0.51525495096E+03  0.00000000000E+00 0.  1.
         11    1    5    5    0    0  0.24455920613E+03  0.75855462169E+02 -0.96184361985E+02  0.27352273751E+03  0.00000000000E+00 0. -1.
        -11    1    5    5    0    0  0.16011692660E+03  0.13161953803E+03 -0.61240963544E+02  0.21612863899E+03  0.00000000000E+00 0.  1.
          2    1    6    6  503    0  0.55695442929E+02  0.81818660999E+02  0.37884773804E+03  0.39156338474E+03  0.00000000000E+00 0. -1.
         -2    1    6    6    0  503  0.14275361678E+03  0.50272719731E+02  0.36381092697E+03  0.39403595272E+03  0.00000000000E+00 0.  1.
<mgrwt>
<rscale>  0 0.25935640E+04</rscale>
<asrwt>0</asrwt>
<pdfrwt beam="1">  1        2 0.25272102E+00 0.25935640E+04</pdfrwt>
<pdfrwt beam="2">  1       -1 0.15749468E+00 0.25935640E+04</pdfrwt>
<totfact> 0.32481642E+00</totfact>
</mgrwt>
</event>
<event>
12    6  0.1530720E-007  0.1388459E+04  0.7818608E-02  0.8962215E-01
          2   -1    0    0  501    0  0.00000000000E+00  0.00000000000E+00  0.38502531951E+04  0.38502531951E+04  0.00000000000E+00 0. -1.
         -1   -1    0    0    0  501 -0.00000000000E+00 -0.00000000000E+00 -0.12517482747E+03  0.12517482747E+03  0.00000000000E+00 0.  1.
         24    2    1    2    0    0 -0.17640092981E+03  0.13824441643E+03  0.21155845730E+03  0.31848546472E+03  0.80294480938E+02 0.  0.
        254    2    1    2    0    0  0.17640092981E+03 -0.13824441643E+03  0.35135199103E+04  0.36569425578E+04  0.98902876828E+03 0.  0.
         23    2    4    4    0    0 -0.35766374919E+03  0.13924582242E+03  0.11315371843E+04  0.11984341756E+04  0.92494958341E+02 0.  0.
         23    2    4    4    0    0  0.53406467901E+03 -0.27749023885E+03  0.23819827260E+04  0.24585083822E+04  0.90530902780E+02 0.  0.
          2    1    3    3  502    0 -0.37077393933E+02  0.18655727979E+02  0.45081918854E+01  0.41750366721E+02  0.00000000000E+00 0. -1.
         -1    1    3    3    0  502 -0.13932353588E+03  0.11958868845E+03  0.20705026542E+03  0.27673509800E+03  0.00000000000E+00 0.  1.
         11    1    5    5    0    0 -0.26526069682E+03  0.11257664130E+03  0.71384166907E+03  0.76980949977E+03  0.00000000000E+00 0. -1.
        -11    1    5    5    0    0 -0.92403052371E+02  0.26669181117E+02  0.41769551520E+03  0.42862467582E+03  0.00000000000E+00 0.  1.
          3    1    6    6  503    0  0.52520148850E+03 -0.28117296386E+03  0.23661652680E+04  0.24400067448E+04  0.00000000000E+00 0. -1.
         -3    1    6    6    0  503  0.88631905092E+01  0.36827250073E+01  0.15817458051E+02  0.18501637460E+02  0.00000000000E+00 0.  1.
<mgrwt>
<rscale>  0 0.13884593E+04</rscale>
<asrwt>0</asrwt>
<pdfrwt beam="1">  1        2 0.59234656E+00 0.13884593E+04</pdfrwt>
<pdfrwt beam="2">  1       -1 0.19257669E-01 0.13884593E+04</pdfrwt>
<totfact> 0.11140494E+01</totfact>
</mgrwt>
</event>
<event>
12    6  0.1530720E-007  0.1778736E+04  0.7818608E-02  0.8717690E-01
          2   -1    0    0  501    0  0.00000000000E+00  0.00000000000E+00  0.99661130127E+03  0.99661130127E+03  0.00000000000E+00 0. -1.
         -1   -1    0    0    0  501 -0.00000000000E+00 -0.00000000000E+00 -0.79366507736E+03  0.79366507736E+03  0.00000000000E+00 0.  1.
         24    2    1    2    0    0 -0.35016219013E+03  0.43000655013E+03  0.42977170644E+03  0.70598025035E+03  0.78646053083E+02 0.  0.
        254    2    1    2    0    0  0.35016219013E+03 -0.43000655013E+03 -0.22682548254E+03  0.10842961283E+04  0.90373065773E+03 0.  0.
         23    2    4    4    0    0  0.12618180043E+03 -0.12876115138E+02  0.31943853939E+03  0.35586350987E+03  0.92250832572E+02 0.  0.
         23    2    4    4    0    0  0.22398038971E+03 -0.41713043500E+03 -0.54626402193E+03  0.72843261841E+03  0.89692157585E+02 0.  0.
          4    1    3    3  502    0 -0.17189898465E+03  0.25477246011E+03  0.27174803203E+03  0.41025024104E+03  0.00000000000E+00 0. -1.
         -3    1    3    3    0  502 -0.17826320548E+03  0.17523409002E+03  0.15802367441E+03  0.29573000931E+03  0.00000000000E+00 0.  1.
         11    1    5    5    0    0  0.82365146250E+02  0.32578874846E+02  0.22930663227E+03  0.24581890083E+03  0.00000000000E+00 0. -1.
        -11    1    5    5    0    0  0.43816654176E+02 -0.45454989984E+02  0.90131907123E+02  0.11004460904E+03  0.00000000000E+00 0.  1.
          3    1    6    6  503    0  0.19803564451E+03 -0.38811750256E+03 -0.53034583657E+03  0.68638183153E+03  0.00000000000E+00 0. -1.
         -3    1    6    6    0  503  0.25944745193E+02 -0.29012932441E+02 -0.15918185362E+02  0.42050786879E+02  0.00000000000E+00 0.  1.
<mgrwt>
<rscale>  0 0.17787362E+04</rscale>
<asrwt>0</asrwt>
<pdfrwt beam="1">  1        2 0.15332481E+00 0.17787362E+04</pdfrwt>
<pdfrwt beam="2">  1       -1 0.12210232E+00 0.17787362E+04</pdfrwt>
<totfact> 0.16203202E+01</totfact>
</mgrwt>
</event>
<event>
12    6  0.1530720E-007  0.1112626E+04  0.7818608E-02  0.9192972E-01
          2   -1    0    0  501    0  0.00000000000E+00  0.00000000000E+00  0.68731082867E+03  0.68731082867E+03  0.00000000000E+00 0. -1.
         -1   -1    0    0    0  501 -0.00000000000E+00 -0.00000000000E+00 -0.45028304502E+03  0.45028304502E+03  0.00000000000E+00 0.  1.
         24    2    1    2    0    0  0.67361631568E+02 -0.83303686271E+02 -0.81860370880E+02  0.15590801034E+03  0.78288529269E+02 0.  0.
        254    2    1    2    0    0 -0.67361631568E+02  0.83303686271E+02  0.31888815453E+03  0.98168586335E+03  0.92224746443E+03 0.  0.
         23    2    4    4    0    0  0.16218075482E+03  0.78062182977E+02  0.58326952288E+03  0.61721667872E+03  0.91415482992E+02 0.  0.
         23    2    4    4    0    0 -0.22954238638E+03  0.52415032941E+01 -0.26438136835E+03  0.36446918462E+03  0.10110933739E+03 0.  0.
          2    1    3    3  502    0  0.51983044765E+02 -0.66283258648E+01 -0.19604317347E+02  0.55950879398E+02  0.00000000000E+00 0. -1.
         -1    1    3    3    0  502  0.15378586803E+02 -0.76675360406E+02 -0.62256053533E+02  0.99957130946E+02  0.00000000000E+00 0.  1.
         11    1    5    5    0    0  0.10698741293E+01 -0.15304001292E+02  0.54482456387E+02  0.56601193805E+02  0.00000000000E+00 0. -1.
        -11    1    5    5    0    0  0.16111088069E+03  0.93366184269E+02  0.52878706649E+03  0.56061548492E+03  0.00000000000E+00 0.  1.
          3    1    6    6  503    0 -0.82991725950E+02 -0.33042289951E+02 -0.51213448643E+02  0.10296716381E+03  0.00000000000E+00 0. -1.
         -3    1    6    6    0  503 -0.14655066043E+03  0.38283793245E+02 -0.21316791970E+03  0.26150202081E+03  0.00000000000E+00 0.  1.
<mgrwt>
<rscale>  0 0.11126265E+04</rscale>
<asrwt>0</asrwt>
<pdfrwt beam="1">  1        2 0.10574013E+00 0.11126265E+04</pdfrwt>
<pdfrwt beam="2">  1       -1 0.69274314E-01 0.11126265E+04</pdfrwt>
<totfact> 0.10019770E+02</totfact>
</mgrwt>
</event>
<event>
12    6  0.1530720E-007  0.1432135E+04  0.7818608E-02  0.8930880E-01
          2   -1    0    0  501    0  0.00000000000E+00  0.00000000000E+00  0.21758891031E+04  0.21758891031E+04  0.00000000000E+00 0. -1.
         -1   -1    0    0    0  501 -0.00000000000E+00 -0.00000000000E+00 -0.23565213913E+03  0.23565213913E+03  0.00000000000E+00 0.  1.
         24    2    1    2    0    0 -0.15770825991E+03  0.34399311354E+03  0.93406878923E+03  0.10110720091E+04  0.81110709252E+02 0.  0.
        254    2    1    2    0    0  0.15770825991E+03 -0.34399311354E+03  0.10061681747E+04  0.14004692331E+04  0.89762827477E+03 0.  0.
         23    2    4    4    0    0  0.47352333723E+03 -0.40431935228E+03  0.74237540469E+03  0.97437352236E+03  0.10287871526E+03 0.  0.
         23    2    4    4    0    0 -0.31581507732E+03  0.60326238741E+02  0.26379277005E+03  0.42609571076E+03  0.92695798493E+02 0.  0.
          4    1    3    3  502    0 -0.15497932200E+03  0.33875146829E+03  0.93356138077E+03  0.10051407858E+04  0.00000000000E+00 0. -1.
         -3    1    3    3    0  502 -0.27289379030E+01  0.52416452489E+01  0.50740846046E+00  0.59312233426E+01  0.00000000000E+00 0.  1.
         11    1    5    5    0    0  0.28771056759E+02 -0.54975326729E+02  0.10757266398E+03  0.12418509689E+03  0.00000000000E+00 0. -1.
        -11    1    5    5    0    0  0.44475228047E+03 -0.34934402555E+03  0.63480274071E+03  0.85018842546E+03  0.00000000000E+00 0.  1.
          4    1    6    6  503    0 -0.68791281771E+02  0.48335024021E+02  0.42390162287E+02  0.94156470057E+02  0.00000000000E+00 0. -1.
         -4    1    6    6    0  503 -0.24702379555E+03  0.11991214721E+02  0.22140260776E+03  0.33193924071E+03  0.00000000000E+00 0.  1.
<mgrwt>
<rscale>  0 0.14321354E+04</rscale>
<asrwt>0</asrwt>
<pdfrwt beam="1">  1        2 0.33475216E+00 0.14321354E+04</pdfrwt>
<pdfrwt beam="2">  1       -1 0.36254177E-01 0.14321354E+04</pdfrwt>
<totfact> 0.42971506E+01</totfact>
</mgrwt>
</event>
<event>
12    6  0.1530720E-007  0.1122305E+04  0.7818608E-02  0.9183721E-01
          2   -1    0    0  501    0  0.00000000000E+00  0.00000000000E+00  0.43632792437E+03  0.43632792437E+03  0.00000000000E+00 0. -1.
         -3   -1    0    0    0  501 -0.00000000000E+00 -0.00000000000E+00 -0.72168677586E+03  0.72168677586E+03  0.00000000000E+00 0.  1.
         24    2    1    2    0    0 -0.91283579846E+02  0.14083467339E+03 -0.12484752412E+02  0.18761697681E+03  0.82928666743E+02 0.  0.
        254    2    1    2    0    0  0.91283579846E+02 -0.14083467339E+03 -0.27287409908E+03  0.97039772341E+03  0.91599365198E+03 0.  0.
         23    2    4    4    0    0  0.35048012161E+03 -0.14864151448E+03 -0.48473537348E+03  0.62319413000E+03  0.92043065460E+02 0.  0.
         23    2    4    4    0    0 -0.25919654176E+03  0.78068410959E+01  0.21186127439E+03  0.34720359341E+03  0.91767868351E+02 0.  0.
          4    1    3    3  502    0 -0.99813426911E+02  0.14603051679E+03 -0.92748558539E+01  0.17712609908E+03  0.00000000000E+00 0. -1.
         -3    1    3    3    0  502  0.85298470648E+01 -0.51958434020E+01 -0.32098965578E+01  0.10490877729E+02  0.00000000000E+00 0.  1.
         11    1    5    5    0    0  0.22790471367E+03 -0.14143459528E+03 -0.34893963930E+03  0.44011722885E+03  0.00000000000E+00 0. -1.
        -11    1    5    5    0    0  0.12257540793E+03 -0.72069192061E+01 -0.13579573417E+03  0.18307690115E+03  0.00000000000E+00 0.  1.
          4    1    6    6  503    0 -0.42258306334E+02 -0.67188112636E+01  0.85800160783E+02  0.95877914399E+02  0.00000000000E+00 0. -1.
         -4    1    6    6    0  503 -0.21693823543E+03  0.14525652359E+02  0.12606111361E+03  0.25132567901E+03  0.00000000000E+00 0.  1.
<mgrwt>
<rscale>  0 0.11223049E+04</rscale>
<asrwt>0</asrwt>
<pdfrwt beam="1">  1        2 0.67127373E-01 0.11223049E+04</pdfrwt>
<pdfrwt beam="2">  1       -3 0.11102873E+00 0.11223049E+04</pdfrwt>
<totfact> 0.30601722E+01</totfact>
</mgrwt>
</event>
<event>
12    6  0.1530720E-007  0.2812059E+04  0.7818608E-02  0.8299534E-01
         -1   -1    0    0    0  501 -0.00000000000E+00  0.00000000000E+00  0.19498842039E+04  0.19498842039E+04  0.00000000000E+00 0.  1.
          2   -1    0    0  501    0  0.00000000000E+00 -0.00000000000E+00 -0.10138649022E+04  0.10138649022E+04  0.00000000000E+00 0. -1.
         24    2    1    2    0    0  0.31621564408E+03  0.10595418430E+03  0.17025776491E+04  0.17370075303E+04  0.84887492585E+02 0.  0.
        254    2    1    2    0    0 -0.31621564408E+03 -0.10595418430E+03 -0.76655834738E+03  0.12267415758E+04  0.89781098847E+03 0.  0.
         23    2    4    4    0    0 -0.14111040899E+03 -0.49462456895E+03 -0.44318071210E+03  0.68501631186E+03  0.90953791578E+02 0.  0.
         23    2    4    4    0    0 -0.17510523509E+03  0.38867038465E+03 -0.32337763528E+03  0.54172526389E+03  0.84656100083E+02 0.  0.
          4    1    3    3  502    0  0.81661073662E+02 -0.87774135425E+01  0.35648855892E+03  0.36582737265E+03  0.00000000000E+00 0. -1.
         -3    1    3    3    0  502  0.23455457041E+03  0.11473159784E+03  0.13460890902E+04  0.13711801576E+04  0.00000000000E+00 0.  1.
         11    1    5    5    0    0 -0.14981591116E+03 -0.42154856647E+03 -0.36244541706E+03  0.57577311632E+03  0.00000000000E+00 0. -1.
        -11    1    5    5    0    0  0.87055021693E+01 -0.73076002479E+02 -0.80735295041E+02  0.10924319554E+03  0.00000000000E+00 0.  1.
          1    1    6    6  503    0 -0.14680335406E+03  0.23815683662E+03 -0.23150125790E+03  0.36312909000E+03  0.00000000000E+00 0.  1.
         -1    1    6    6    0  503 -0.28301881032E+02  0.15051354803E+03 -0.91876377380E+02  0.17859617390E+03  0.00000000000E+00 0. -1.
<mgrwt>
<rscale>  0 0.28120591E+04</rscale>
<asrwt>0</asrwt>
<pdfrwt beam="1">  1        2 0.15597922E+00 0.28120591E+04</pdfrwt>
<pdfrwt beam="2">  1       -1 0.29998218E+00 0.28120591E+04</pdfrwt>
<totfact> 0.80764674E-01</totfact>
</mgrwt>
</event>
<event>
12    6  0.1530720E-007  0.1517670E+04  0.7818608E-02  0.8872787E-01
         -1   -1    0    0    0  501 -0.00000000000E+00  0.00000000000E+00  0.43705861994E+03  0.43705861994E+03  0.00000000000E+00 0.  1.
          2   -1    0    0  501    0  0.00000000000E+00 -0.00000000000E+00 -0.13175135654E+04  0.13175135654E+04  0.00000000000E+00 0. -1.
         24    2    1    2    0    0 -0.19668728759E+03 -0.10519394329E+03 -0.82068661773E+03  0.85435346248E+03  0.81496377399E+02 0.  0.
        254    2    1    2    0    0  0.19668728759E+03  0.10519394329E+03 -0.59768327720E+02  0.90021872284E+03  0.87009760439E+03 0.  0.
         23    2    4    4    0    0 -0.31318375422E+03  0.16729822374E+02 -0.16424711176E+03  0.36562327934E+03  0.91319865374E+02 0.  0.
         23    2    4    4    0    0  0.50987104180E+03  0.88464120917E+02  0.10447878404E+03  0.53459544350E+03  0.84155165868E+02 0.  0.
          2    1    3    3  502    0 -0.77727121280E+02 -0.78828885914E+02 -0.47791034670E+03  0.49056477465E+03  0.00000000000E+00 0. -1.
         -1    1    3    3    0  502 -0.11896016631E+03 -0.26365057377E+02 -0.34277627103E+03  0.36378868784E+03  0.00000000000E+00 0.  1.
         11    1    5    5    0    0 -0.14683255690E+03  0.38535010743E+02 -0.40397764073E+02  0.15708827506E+03  0.00000000000E+00 0. -1.
        -11    1    5    5    0    0 -0.16635119732E+03 -0.21805188368E+02 -0.12384934768E+03  0.20853500428E+03  0.00000000000E+00 0.  1.
          3    1    6    6  503    0  0.50102782570E+03  0.83627422322E+02  0.88363461733E+02  0.51558755732E+03  0.00000000000E+00 0. -1.
         -3    1    6    6    0  503  0.88432161001E+01  0.48366985952E+01  0.16115322302E+02  0.19007886184E+02  0.00000000000E+00 0.  1.
<mgrwt>
<rscale>  0 0.15176701E+04</rscale>
<asrwt>0</asrwt>
<pdfrwt beam="1">  1        2 0.20269439E+00 0.15176701E+04</pdfrwt>
<pdfrwt beam="2">  1       -1 0.67239788E-01 0.15176701E+04</pdfrwt>
<totfact> 0.39790903E+01</totfact>
</mgrwt>
</event>
<event>
12    6  0.1530720E-007  0.1619505E+04  0.7818608E-02  0.8808654E-01
          2   -1    0    0  501    0  0.00000000000E+00  0.00000000000E+00  0.11768195822E+04  0.11768195822E+04  0.00000000000E+00 0. -1.
         -1   -1    0    0    0  501 -0.00000000000E+00 -0.00000000000E+00 -0.55717873283E+03  0.55717873283E+03  0.00000000000E+00 0.  1.
         24    2    1    2    0    0 -0.34190773269E+03  0.28650240945E+03  0.57128583358E+03  0.72944948005E+03  0.82124977961E+02 0.  0.
        254    2    1    2    0    0  0.34190773269E+03 -0.28650240945E+03  0.48355015756E+02  0.10045488349E+04  0.89877451340E+03 0.  0.
         23    2    4    4    0    0  0.51375094859E+03 -0.45328463346E+03 -0.11485857645E+03  0.70061146054E+03  0.90867650704E+02 0.  0.
         23    2    4    4    0    0 -0.17184321590E+03  0.16678222401E+03  0.16321359221E+03  0.30393737441E+03  0.91612497961E+02 0.  0.
          2    1    3    3  502    0 -0.89996966225E+02  0.11310801087E+03  0.22529463476E+03  0.26767620085E+03  0.00000000000E+00 0. -1.
         -1    1    3    3    0  502 -0.25191076646E+03  0.17339439858E+03  0.34599119883E+03  0.46177327920E+03  0.00000000000E+00 0.  1.
         11    1    5    5    0    0  0.16220681456E+03 -0.98158868274E+02 -0.89011219108E+01  0.18980369881E+03  0.00000000000E+00 0.  1.
        -11    1    5    5    0    0  0.35154413404E+03 -0.35512576518E+03 -0.10595745454E+03  0.51080776173E+03  0.00000000000E+00 0. -1.
          1    1    6    6  503    0 -0.33300704804E+02  0.37429643088E+02  0.85470522901E+02  0.99071314754E+02  0.00000000000E+00 0. -1.
         -1    1    6    6    0  503 -0.13854251110E+03  0.12935258092E+03  0.77743069309E+02  0.20486605965E+03  0.00000000000E+00 0.  1.
<mgrwt>
<rscale>  0 0.16195047E+04</rscale>
<asrwt>0</asrwt>
<pdfrwt beam="1">  1        2 0.18104917E+00 0.16195047E+04</pdfrwt>
<pdfrwt beam="2">  1       -1 0.85719805E-01 0.16195047E+04</pdfrwt>
<totfact> 0.28709293E+01</totfact>
</mgrwt>
</event>
<event>
12    6  0.1530720E-007  0.2774806E+04  0.7818608E-02  0.8311133E-01
          2   -1    0    0  501    0  0.00000000000E+00  0.00000000000E+00  0.25895211121E+04  0.25895211121E+04  0.00000000000E+00 0. -1.
         -1   -1    0    0    0  501 -0.00000000000E+00 -0.00000000000E+00 -0.74333703276E+03  0.74333703276E+03  0.00000000000E+00 0.  1.
         24    2    1    2    0    0 -0.73617971364E+03 -0.95528936510E+03  0.47911602786E+03  0.13003023630E+04  0.81827410831E+02 0.  0.
        254    2    1    2    0    0  0.73617971364E+03  0.95528936510E+03  0.13670680515E+04  0.20325557819E+04  0.89881566927E+03 0.  0.
         23    2    4    4    0    0  0.83800338464E+03  0.10379082013E+04  0.11519731776E+04  0.17643440967E+04  0.79779588265E+02 0.  0.
         23    2    4    4    0    0 -0.10182367099E+03 -0.82618836231E+02  0.21509487390E+03  0.26821168519E+03  0.92074813162E+02 0.  0.
          2    1    3    3  502    0 -0.15183259435E+02 -0.11363165146E+02  0.18014366825E+02  0.26156649275E+02  0.00000000000E+00 0. -1.
         -1    1    3    3    0  502 -0.72099645421E+03 -0.94392619995E+03  0.46110166104E+03  0.12741457137E+04  0.00000000000E+00 0.  1.
         11    1    5    5    0    0  0.57416754140E+02  0.51321348996E+02  0.49163910099E+02  0.91365499917E+02  0.00000000000E+00 0. -1.
        -11    1    5    5    0    0  0.78058663050E+03  0.98658685233E+03  0.11028092675E+04  0.16729785968E+04  0.00000000000E+00 0.  1.
          3    1    6    6  503    0 -0.35614434283E+02 -0.48410319137E+02  0.17183431823E+03  0.18204114878E+03  0.00000000000E+00 0. -1.
         -3    1    6    6    0  503 -0.66209236711E+02 -0.34208517094E+02  0.43260555668E+02  0.86170536405E+02  0.00000000000E+00 0.  1.
<mgrwt>
<rscale>  0 0.27748059E+04</rscale>
<asrwt>0</asrwt>
<pdfrwt beam="1">  1        2 0.39838786E+00 0.27748059E+04</pdfrwt>
<pdfrwt beam="2">  1       -1 0.11435954E+00 0.27748059E+04</pdfrwt>
<totfact> 0.21278811E+00</totfact>
</mgrwt>
</event>
<event>
12    6  0.1530720E-007  0.2084889E+04  0.7818608E-02  0.8567929E-01
         -1   -1    0    0    0  501 -0.00000000000E+00  0.00000000000E+00  0.22928627518E+03  0.22928627518E+03  0.00000000000E+00 0.  1.
          2   -1    0    0  501    0  0.00000000000E+00 -0.00000000000E+00 -0.47394471025E+04  0.47394471025E+04  0.00000000000E+00 0. -1.
         24    2    1    2    0    0  0.16633771899E+03 -0.26546277606E+03 -0.36992136227E+04  0.37132880337E+04  0.78663034553E+02 0.  0.
        254    2    1    2    0    0 -0.16633771899E+03  0.26546277606E+03 -0.81094720461E+03  0.12554453439E+04  0.90574219328E+03 0.  0.
         23    2    4    4    0    0  0.28602939126E+02  0.39251705016E+03  0.31817961140E+01  0.40380128455E+03  0.90319382103E+02 0.  0.
         23    2    4    4    0    0 -0.19494065811E+03 -0.12705427410E+03 -0.81412900073E+03  0.85164405938E+03  0.91361508853E+02 0.  0.
          2    1    3    3  502    0  0.16967936499E+03 -0.22377796561E+03 -0.31592388653E+04  0.31716963715E+04  0.00000000000E+00 0. -1.
         -1    1    3    3    0  502 -0.33416460057E+01 -0.41684810454E+02 -0.53997475733E+03  0.54159166221E+03  0.00000000000E+00 0.  1.
         11    1    5    5    0    0 -0.31444380471E+02  0.90134407451E+02 -0.16568157127E+01  0.95476203884E+02  0.00000000000E+00 0. -1.
        -11    1    5    5    0    0  0.60047319597E+02  0.30238264271E+03  0.48386118267E+01  0.30832508066E+03  0.00000000000E+00 0.  1.
          2    1    6    6  503    0 -0.79644680224E+01 -0.62947003264E+00 -0.13431384727E+01  0.81014198977E+01  0.00000000000E+00 0. -1.
         -2    1    6    6    0  503 -0.18697619009E+03 -0.12642480406E+03 -0.81278586225E+03  0.84354263948E+03  0.00000000000E+00 0.  1.
<mgrwt>
<rscale>  0 0.20848887E+04</rscale>
<asrwt>0</asrwt>
<pdfrwt beam="1">  1        2 0.72914563E+00 0.20848887E+04</pdfrwt>
<pdfrwt beam="2">  1       -1 0.35274815E-01 0.20848887E+04</pdfrwt>
<totfact> 0.56866802E-01</totfact>
</mgrwt>
</event>
<event>
12    6  0.1530720E-007  0.1927836E+04  0.7818608E-02  0.8641123E-01
         -1   -1    0    0    0  501 -0.00000000000E+00  0.00000000000E+00  0.53178669264E+03  0.53178669264E+03  0.00000000000E+00 0.  1.
          2   -1    0    0  501    0  0.00000000000E+00 -0.00000000000E+00 -0.17472009261E+04  0.17472009261E+04  0.00000000000E+00 0. -1.
         24    2    1    2    0    0  0.67346749335E+02  0.74256598392E+03 -0.32303068983E+03  0.81699305880E+03  0.84788008717E+02 0.  0.
        254    2    1    2    0    0 -0.67346749335E+02 -0.74256598392E+03 -0.89238354363E+03  0.14619945599E+04  0.88608119223E+03 0.  0.
         23    2    4    4    0    0 -0.46644863673E+02 -0.52579564343E+02  0.16172680916E+03  0.19846950650E+03  0.91072665019E+02 0.  0.
         23    2    4    4    0    0 -0.20701885662E+02 -0.68998641958E+03 -0.10541103528E+04  0.12635250534E+04  0.94005837781E+02 0.  0.
          2    1    3    3  502    0  0.54658007755E+01  0.24547421153E+03 -0.67449670035E+02  0.25463095156E+03  0.00000000000E+00 0. -1.
         -1    1    3    3    0  502  0.61880948559E+02  0.49709177240E+03 -0.25558101980E+03  0.56236210724E+03  0.00000000000E+00 0.  1.
         11    1    5    5    0    0  0.21869348672E+02 -0.39105569013E+02  0.55169950272E+02  0.71072057464E+02  0.00000000000E+00 0.  1.
        -11    1    5    5    0    0 -0.68514212345E+02 -0.13473995330E+02  0.10655685889E+03  0.12739744903E+03  0.00000000000E+00 0. -1.
          2    1    6    6  503    0  0.52885068088E+01 -0.45002157463E+03 -0.60990184781E+03  0.75797602198E+03  0.00000000000E+00 0. -1.
         -2    1    6    6    0  503 -0.25990392471E+02 -0.23996484496E+03 -0.44420850498E+03  0.50554903147E+03  0.00000000000E+00 0.  1.
<mgrwt>
<rscale>  0 0.19278363E+04</rscale>
<asrwt>0</asrwt>
<pdfrwt beam="1">  1        2 0.26880014E+00 0.19278363E+04</pdfrwt>
<pdfrwt beam="2">  1       -1 0.81813337E-01 0.19278363E+04</pdfrwt>
<totfact> 0.14607990E+01</totfact>
</mgrwt>
</event>
<event>
12    6  0.1530720E-007  0.2041366E+04  0.7818608E-02  0.8587521E-01
          2   -1    0    0  501    0  0.00000000000E+00  0.00000000000E+00  0.11208352969E+04  0.11208352969E+04  0.00000000000E+00 0. -1.
         -1   -1    0    0    0  501 -0.00000000000E+00 -0.00000000000E+00 -0.92947974397E+03  0.92947974397E+03  0.00000000000E+00 0.  1.
         24    2    1    2    0    0 -0.63854329978E+02 -0.12470710246E+03 -0.73359369849E+03  0.75116716565E+03  0.80393777211E+02 0.  0.
        254    2    1    2    0    0  0.63854329978E+02  0.12470710246E+03  0.92494925140E+03  0.12991478752E+04  0.90145706893E+03 0.  0.
         23    2    4    4    0    0  0.45219058599E+02  0.25463983104E+03 -0.73675429314E+02  0.28766259429E+03  0.10215425813E+03 0.  0.
         23    2    4    4    0    0  0.18635271379E+02 -0.12993272858E+03  0.99862468071E+03  0.10114852809E+04  0.92851673589E+02 0.  0.
          4    1    3    3  502    0 -0.74212425749E+00 -0.20991992188E+02 -0.30463486777E+03  0.30535817845E+03  0.00000000000E+00 0. -1.
         -3    1    3    3    0  502 -0.63112205721E+02 -0.10371511028E+03 -0.42895883072E+03  0.44580898720E+03  0.00000000000E+00 0.  1.
         11    1    5    5    0    0 -0.23277498564E+02  0.75486002420E+02  0.75857424647E+01  0.79356927798E+02  0.00000000000E+00 0. -1.
        -11    1    5    5    0    0  0.68496557163E+02  0.17915382862E+03 -0.81261171779E+02  0.20830566649E+03  0.00000000000E+00 0.  1.
          3    1    6    6  503    0  0.36759093439E+02 -0.48266087852E+02  0.21462521706E+03  0.22303549041E+03  0.00000000000E+00 0. -1.
         -3    1    6    6    0  503 -0.18123822060E+02 -0.81666640724E+02  0.78399946366E+03  0.78844979051E+03  0.00000000000E+00 0.  1.
<mgrwt>
<rscale>  0 0.20413659E+04</rscale>
<asrwt>0</asrwt>
<pdfrwt beam="1">  1        2 0.17243620E+00 0.20413659E+04</pdfrwt>
<pdfrwt beam="2">  1       -1 0.14299688E+00 0.20413659E+04</pdfrwt>
<totfact> 0.88548670E+00</totfact>
</mgrwt>
</event>
<event>
12    6  0.1530720E-007  0.1605390E+04  0.7818608E-02  0.8817243E-01
          2   -1    0    0  501    0  0.00000000000E+00  0.00000000000E+00  0.19152106412E+04  0.19152106412E+04  0.00000000000E+00 0. -1.
         -1   -1    0    0    0  501 -0.00000000000E+00 -0.00000000000E+00 -0.33642220758E+03  0.33642220758E+03  0.00000000000E+00 0.  1.
         24    2    1    2    0    0  0.15202530041E+03  0.21275961630E+03 -0.12711608194E+03  0.30112602950E+03  0.78358414086E+02 0.  0.
        254    2    1    2    0    0 -0.15202530041E+03 -0.21275961630E+03  0.17059045156E+04  0.19505068193E+04  0.90883897892E+03 0.  0.
         23    2    4    4    0    0 -0.34172253671E+03 -0.48523742666E+03  0.10493944976E+04  0.12089718460E+04  0.90302051487E+02 0.  0.
         23    2    4    4    0    0  0.18969723630E+03  0.27247781035E+03  0.65651001805E+03  0.74153497337E+03  0.92948987844E+02 0.  0.
          4    1    3    3  502    0  0.10651768512E+01  0.20057055759E+02 -0.33467539484E+02  0.39031990553E+02  0.00000000000E+00 0. -1.
         -3    1    3    3    0  502  0.15096012356E+03  0.19270256054E+03 -0.93648542459E+02  0.26209403895E+03  0.00000000000E+00 0.  1.
         11    1    5    5    0    0 -0.84238836892E+02 -0.13245021471E+03  0.20378850744E+03  0.25723335084E+03  0.00000000000E+00 0. -1.
        -11    1    5    5    0    0 -0.25748369982E+03 -0.35278721195E+03  0.84560599011E+03  0.95173849512E+03  0.00000000000E+00 0.  1.
          4    1    6    6  503    0  0.15397856672E+03  0.23188889788E+03  0.60884064830E+03  0.66945410223E+03  0.00000000000E+00 0. -1.
         -4    1    6    6    0  503  0.35718669577E+02  0.40588912479E+02  0.47669369746E+02  0.72080871142E+02  0.00000000000E+00 0.  1.
<mgrwt>
<rscale>  0 0.16053902E+04</rscale>
<asrwt>0</asrwt>
<pdfrwt beam="1">  1        2 0.29464778E+00 0.16053902E+04</pdfrwt>
<pdfrwt beam="2">  1       -1 0.51757264E-01 0.16053902E+04</pdfrwt>
<totfact> 0.30553078E+01</totfact>
</mgrwt>
</event>
<event>
12    6  0.1530720E-007  0.1221342E+04  0.7818608E-02  0.9094379E-01
          2   -1    0    0  501    0  0.00000000000E+00  0.00000000000E+00  0.84512134346E+03  0.84512134346E+03  0.00000000000E+00 0. -1.
         -1   -1    0    0    0  501 -0.00000000000E+00 -0.00000000000E+00 -0.44126068843E+03  0.44126068843E+03  0.00000000000E+00 0.  1.
         24    2    1    2    0    0  0.13167565197E+03 -0.32347941261E+02  0.33748442933E+03  0.37239072911E+03  0.79964044780E+02 0.  0.
        254    2    1    2    0    0 -0.13167565197E+03  0.32347941261E+02  0.66376225699E+02  0.91399130279E+03  0.90143742523E+03 0.  0.
         23    2    4    4    0    0 -0.20401746010E+03  0.26123535114E+03  0.37662887814E+03  0.51016096035E+03  0.92454642414E+02 0.  0.
         23    2    4    4    0    0  0.72341808129E+02 -0.22888740988E+03 -0.31025265244E+03  0.40383034244E+03  0.95913781709E+02 0.  0.
          2    1    3    3  502    0  0.50570855953E+02 -0.48966021961E+00  0.22218349313E+03  0.22786653079E+03  0.00000000000E+00 0. -1.
         -1    1    3    3    0  502  0.81104796015E+02 -0.31858281041E+02  0.11530093621E+03  0.14452419831E+03  0.00000000000E+00 0.  1.
         11    1    5    5    0    0 -0.10284248829E+03  0.12129013644E+03  0.11328619778E+03  0.19524763047E+03  0.00000000000E+00 0.  1.
        -11    1    5    5    0    0 -0.10117497181E+03  0.13994521470E+03  0.26334268036E+03  0.31491332988E+03  0.00000000000E+00 0. -1.
          1    1    6    6  503    0 -0.23537873459E+02 -0.39417144339E+02 -0.62013280953E+02  0.77158212586E+02  0.00000000000E+00 0. -1.
         -1    1    6    6    0  503  0.95879681588E+02 -0.18947026554E+03 -0.24823937149E+03  0.32667212985E+03  0.00000000000E+00 0.  1.
<mgrwt>
<rscale>  0 0.12213416E+04</rscale>
<asrwt>0</asrwt>
<pdfrwt beam="1">  1        2 0.13001867E+00 0.12213416E+04</pdfrwt>
<pdfrwt beam="2">  1       -1 0.67886260E-01 0.12213416E+04</pdfrwt>
<totfact> 0.79066920E+01</totfact>
</mgrwt>
</event>
<event>
12    6  0.1530720E-007  0.1304709E+04  0.7818608E-02  0.9025840E-01
          2   -1    0    0  501    0  0.00000000000E+00  0.00000000000E+00  0.24194342181E+04  0.24194342181E+04  0.00000000000E+00 0. -1.
         -1   -1    0    0    0  501 -0.00000000000E+00 -0.00000000000E+00 -0.17589488898E+03  0.17589488898E+03  0.00000000000E+00 0.  1.
         24    2    1    2    0    0 -0.15873572100E+03 -0.14962827135E+03  0.95464616317E+02  0.25147209979E+03  0.80864549071E+02 0.  0.
        254    2    1    2    0    0  0.15873572100E+03  0.14962827135E+03  0.21480747128E+04  0.23438570073E+04  0.91206088073E+03 0.  0.
         23    2    4    4    0    0  0.38880645384E+03  0.12154770780E+03  0.20233288522E+04  0.20656651179E+04  0.84666588515E+02 0.  0.
         23    2    4    4    0    0 -0.23007073284E+03  0.28080563552E+02  0.12474586059E+03  0.27819188941E+03  0.90045196655E+02 0.  0.
          4    1    3    3  502    0 -0.12222237480E+01 -0.22304147205E+02 -0.83871919617E+01  0.23860297619E+02  0.00000000000E+00 0. -1.
         -3    1    3    3    0  502 -0.15751349725E+03 -0.12732412415E+03  0.10385180828E+03  0.22761180217E+03  0.00000000000E+00 0.  1.
         11    1    5    5    0    0  0.29095166129E+03  0.52885431385E+02  0.13809193996E+04  0.14122280716E+04  0.00000000000E+00 0. -1.
        -11    1    5    5    0    0  0.97854792548E+02  0.68662276415E+02  0.64240945267E+03  0.65343704632E+03  0.00000000000E+00 0.  1.
          1    1    6    6  503    0 -0.20016143344E+03 -0.30918542166E+01  0.78828295348E+02  0.21514659920E+03  0.00000000000E+00 0. -1.
         -1    1    6    6    0  503 -0.29909299399E+02  0.31172417769E+02  0.45917565239E+02  0.63045290209E+02  0.00000000000E+00 0.  1.
<mgrwt>
<rscale>  0 0.13047086E+04</rscale>
<asrwt>0</asrwt>
<pdfrwt beam="1">  1        2 0.37222062E+00 0.13047086E+04</pdfrwt>
<pdfrwt beam="2">  1       -1 0.27060754E-01 0.13047086E+04</pdfrwt>
<totfact> 0.53037922E+01</totfact>
</mgrwt>
</event>
<event>
12    6  0.1530720E-007  0.2747159E+04  0.7818608E-02  0.8319864E-01
          2   -1    0    0  501    0  0.00000000000E+00  0.00000000000E+00  0.18416527442E+04  0.18416527442E+04  0.00000000000E+00 0. -1.
         -1   -1    0    0    0  501 -0.00000000000E+00 -0.00000000000E+00 -0.10244711020E+04  0.10244711020E+04  0.00000000000E+00 0.  1.
         24    2    1    2    0    0  0.77507154416E+03 -0.94428254795E+03  0.47112846843E+03  0.13117259774E+04  0.79104848830E+02 0.  0.
        254    2    1    2    0    0 -0.77507154416E+03  0.94428254795E+03  0.34605317378E+03  0.15543978688E+04  0.89665740762E+03 0.  0.
         23    2    4    4    0    0 -0.86344322691E+03  0.77382901808E+03  0.52552652746E+03  0.12762671218E+04  0.91291181212E+02 0.  0.
         23    2    4    4    0    0  0.88371682745E+02  0.17045352987E+03 -0.17947335368E+03  0.27813074706E+03  0.91005865862E+02 0.  0.
          4    1    3    3  502    0  0.73607795848E+03 -0.86578754682E+03  0.43196251108E+03  0.12157263048E+04  0.00000000000E+00 0. -1.
         -3    1    3    3    0  502  0.38993585680E+02 -0.78495001135E+02  0.39165957346E+02  0.95999672616E+02  0.00000000000E+00 0.  1.
         11    1    5    5    0    0 -0.17365892278E+02  0.23979318932E+02  0.29174589711E+02  0.41566075541E+02  0.00000000000E+00 0. -1.
        -11    1    5    5    0    0 -0.84607733463E+03  0.74984969915E+03  0.49635193775E+03  0.12347010462E+04  0.00000000000E+00 0.  1.
          4    1    6    6  503    0  0.26234606615E+02  0.88003147433E+02 -0.30271152904E+02  0.96691009099E+02  0.00000000000E+00 0. -1.
         -4    1    6    6    0  503  0.62137076131E+02  0.82450382436E+02 -0.14920220078E+03  0.18143973796E+03  0.00000000000E+00 0.  1.
<mgrwt>
<rscale>  0 0.27471585E+04</rscale>
<asrwt>0</asrwt>
<pdfrwt beam="1">  1        2 0.28333119E+00 0.27471585E+04</pdfrwt>
<pdfrwt beam="2">  1       -1 0.15761094E+00 0.27471585E+04</pdfrwt>
<totfact> 0.24796202E+00</totfact>
</mgrwt>
</event>
<event>
12    6  0.1530720E-007  0.3735977E+04  0.7818608E-02  0.8060035E-01
         -1   -1    0    0    0  501 -0.00000000000E+00  0.00000000000E+00  0.19382066150E+04  0.19382066150E+04  0.00000000000E+00 0.  1.
          2   -1    0    0  501    0  0.00000000000E+00 -0.00000000000E+00 -0.18003140352E+04  0.18003140352E+04  0.00000000000E+00 0. -1.
         24    2    1    2    0    0 -0.15362034315E+04 -0.73961742917E+03  0.49883801324E+03  0.17783470040E+04  0.81998650192E+02 0.  0.
        254    2    1    2    0    0  0.15362034315E+04  0.73961742917E+03 -0.36094543347E+03  0.19601736462E+04  0.89724254969E+03 0.  0.
         23    2    4    4    0    0  0.28287582079E+03  0.32096056644E+03 -0.45573414131E+03  0.63209212337E+03  0.93874542185E+02 0.  0.
         23    2    4    4    0    0  0.12533276107E+04  0.41865686273E+03  0.94788707837E+02  0.13280815228E+04  0.93337901178E+02 0.  0.
          2    1    3    3  502    0 -0.10656742659E+04 -0.52037288891E+03  0.38546668783E+03  0.12470100850E+04  0.00000000000E+00 0. -1.
         -1    1    3    3    0  502 -0.47052916553E+03 -0.21924454026E+03  0.11337132541E+03  0.53133691898E+03  0.00000000000E+00 0.  1.
         11    1    5    5    0    0  0.25108356974E+03  0.22605174448E+03 -0.34709169477E+03  0.48437072037E+03  0.00000000000E+00 0. -1.
        -11    1    5    5    0    0  0.31792251053E+02  0.94908821964E+02 -0.10864244654E+03  0.14772140300E+03  0.00000000000E+00 0.  1.
          2    1    6    6  503    0  0.10859583059E+04  0.32900059849E+03  0.87538375574E+02  0.11380728462E+04  0.00000000000E+00 0. -1.
         -2    1    6    6    0  503  0.16736930477E+03  0.89656264245E+02  0.72503322636E+01  0.19000867668E+03  0.00000000000E+00 0.  1.
<mgrwt>
<rscale>  0 0.37359768E+04</rscale>
<asrwt>0</asrwt>
<pdfrwt beam="1">  1        2 0.27697139E+00 0.37359768E+04</pdfrwt>
<pdfrwt beam="2">  1       -1 0.29818563E+00 0.37359768E+04</pdfrwt>
<totfact> 0.26843699E-01</totfact>
</mgrwt>
</event>
<event>
12    6  0.1530720E-007  0.1936442E+04  0.7818608E-02  0.8636926E-01
         -1   -1    0    0    0  501 -0.00000000000E+00  0.00000000000E+00  0.40819793259E+03  0.40819793259E+03  0.00000000000E+00 0.  1.
          2   -1    0    0  501    0  0.00000000000E+00 -0.00000000000E+00 -0.22965626945E+04  0.22965626945E+04  0.00000000000E+00 0. -1.
         24    2    1    2    0    0  0.43425316874E+03 -0.14406284709E+03 -0.15759842172E+04  0.16429676195E+04  0.79286993343E+02 0.  0.
        254    2    1    2    0    0 -0.43425316874E+03  0.14406284709E+03 -0.31238054473E+03  0.10617930076E+04  0.90581061368E+03 0.  0.
         23    2    4    4    0    0 -0.16264040849E+03  0.18095403020E+03  0.29284404860E+03  0.39148521556E+03  0.91141503645E+02 0.  0.
         23    2    4    4    0    0 -0.27161276025E+03 -0.36891183105E+02 -0.60522459333E+03  0.67030779206E+03  0.88776555518E+02 0.  0.
          4    1    3    3  502    0  0.43092468895E+03 -0.13070090507E+03 -0.15378355805E+04  0.16024097749E+04  0.00000000000E+00 0. -1.
         -3    1    3    3    0  502  0.33284797862E+01 -0.13361942025E+02 -0.38148636717E+02  0.40557844564E+02  0.00000000000E+00 0.  1.
         11    1    5    5    0    0 -0.15675002343E+03  0.14837688964E+03  0.28492255284E+03  0.35744528581E+03  0.00000000000E+00 0.  1.
        -11    1    5    5    0    0 -0.58903850557E+01  0.32577140556E+02  0.79214957556E+01  0.34039929757E+02  0.00000000000E+00 0. -1.
          1    1    6    6  503    0 -0.12060714353E+03  0.26095991495E+02 -0.23142196848E+03  0.26226553594E+03  0.00000000000E+00 0. -1.
         -1    1    6    6    0  503 -0.15100561672E+03 -0.62987174601E+02 -0.37380262484E+03  0.40804225612E+03  0.00000000000E+00 0.  1.
<mgrwt>
<rscale>  0 0.19364422E+04</rscale>
<asrwt>0</asrwt>
<pdfrwt beam="1">  1        2 0.35331733E+00 0.19364422E+04</pdfrwt>
<pdfrwt beam="2">  1       -1 0.62799683E-01 0.19364422E+04</pdfrwt>
<totfact> 0.12455059E+01</totfact>
</mgrwt>
</event>
<event>
12    6  0.1530720E-007  0.1647468E+04  0.7818608E-02  0.8791905E-01
         -1   -1    0    0    0  501 -0.00000000000E+00  0.00000000000E+00  0.31043185271E+03  0.31043185271E+03  0.00000000000E+00 0.  1.
          2   -1    0    0  501    0  0.00000000000E+00 -0.00000000000E+00 -0.21857876601E+04  0.21857876601E+04  0.00000000000E+00 0. -1.
         24    2    1    2    0    0 -0.37465840757E+03  0.43438155988E+03 -0.59577208327E+03  0.83094447626E+03  0.80424408603E+02 0.  0.
        254    2    1    2    0    0  0.37465840757E+03 -0.43438155988E+03 -0.12795837241E+04  0.16652750366E+04  0.89819272897E+03 0.  0.
         23    2    4    4    0    0  0.46920993520E+03 -0.28957034724E+03 -0.13476893466E+04  0.14589677594E+04  0.91166873488E+02 0.  0.
         23    2    4    4    0    0 -0.94551527631E+02 -0.14481121265E+03  0.68105622425E+02  0.20630727717E+03  0.89521160182E+02 0.  0.
          4    1    3    3  502    0 -0.18634058356E+03  0.24757439628E+03 -0.37001018448E+03  0.48262141622E+03  0.00000000000E+00 0. -1.
         -3    1    3    3    0  502 -0.18831782401E+03  0.18680716360E+03 -0.22576189879E+03  0.34832306004E+03  0.00000000000E+00 0.  1.
         11    1    5    5    0    0  0.33701482770E+03 -0.15754227658E+03 -0.89500316373E+03  0.96924157262E+03  0.00000000000E+00 0. -1.
        -11    1    5    5    0    0  0.13219510750E+03 -0.13202807066E+03 -0.45268618283E+03  0.48972618677E+03  0.00000000000E+00 0.  1.
          1    1    6    6  503    0 -0.83177799396E+02 -0.56309099594E+02  0.59300458325E+02  0.11664392555E+03  0.00000000000E+00 0. -1.
         -1    1    6    6    0  503 -0.11373728235E+02 -0.88502113053E+02  0.88051640998E+01  0.89663351620E+02  0.00000000000E+00 0.  1.
<mgrwt>
<rscale>  0 0.16474685E+04</rscale>
<asrwt>0</asrwt>
<pdfrwt beam="1">  1        2 0.33627502E+00 0.16474685E+04</pdfrwt>
<pdfrwt beam="2">  1       -1 0.47758747E-01 0.16474685E+04</pdfrwt>
<totfact> 0.25078107E+01</totfact>
</mgrwt>
</event>
<event>
12    6  0.1530720E-007  0.1909730E+04  0.7818608E-02  0.8650028E-01
         -1   -1    0    0    0  501 -0.00000000000E+00  0.00000000000E+00  0.55391635136E+03  0.55391635136E+03  0.00000000000E+00 0.  1.
          2   -1    0    0  501    0  0.00000000000E+00 -0.00000000000E+00 -0.16460372206E+04  0.16460372206E+04  0.00000000000E+00 0. -1.
         24    2    1    2    0    0 -0.50005255487E+02 -0.45787258950E+03 -0.10879891094E+04  0.11841428686E+04  0.79537396217E+02 0.  0.
        254    2    1    2    0    0  0.50005255487E+02  0.45787258950E+03 -0.41317598468E+01  0.10158107033E+04  0.90537642986E+03 0.  0.
         23    2    4    4    0    0  0.41687794898E+03  0.31293199676E+02 -0.95798240381E+02  0.43834731234E+03  0.90579107334E+02 0.  0.
         23    2    4    4    0    0 -0.36687269349E+03  0.42657938983E+03  0.91666480534E+02  0.57746339098E+03  0.92171987124E+02 0.  0.
          4    1    3    3  502    0 -0.60465643949E+02 -0.45054966019E+03 -0.10552011677E+04  0.11489563067E+04  0.00000000000E+00 0. -1.
         -3    1    3    3    0  502  0.10460388463E+02 -0.73229293097E+01 -0.32787941616E+02  0.35186561865E+02  0.00000000000E+00 0.  1.
         11    1    5    5    0    0  0.12162445695E+03  0.48565659377E+02 -0.15458761560E+02  0.13187154776E+03  0.00000000000E+00 0.  1.
        -11    1    5    5    0    0  0.29525349203E+03 -0.17272459701E+02 -0.80339478821E+02  0.30647576458E+03  0.00000000000E+00 0. -1.
          1    1    6    6  503    0 -0.36158454137E+03  0.41036772444E+03  0.72364712291E+02  0.55170798563E+03  0.00000000000E+00 0. -1.
         -1    1    6    6    0  503 -0.52881521257E+01  0.16211665382E+02  0.19301768244E+02  0.25755405349E+02  0.00000000000E+00 0.  1.
<mgrwt>
<rscale>  0 0.19097298E+04</rscale>
<asrwt>0</asrwt>
<pdfrwt beam="1">  1        2 0.25323650E+00 0.19097298E+04</pdfrwt>
<pdfrwt beam="2">  1       -1 0.85217900E-01 0.19097298E+04</pdfrwt>
<totfact> 0.15253970E+01</totfact>
</mgrwt>
</event>
<event>
12    6  0.1530720E-007  0.1736290E+04  0.7818608E-02  0.8740933E-01
         -1   -1    0    0    0  501 -0.00000000000E+00  0.00000000000E+00  0.15684827145E+04  0.15684827145E+04  0.00000000000E+00 0.  1.
          2   -1    0    0  501    0  0.00000000000E+00 -0.00000000000E+00 -0.48051260852E+03  0.48051260852E+03  0.00000000000E+00 0. -1.
         24    2    1    2    0    0  0.23079696842E+03  0.91838297575E+02  0.10825162776E+04  0.11135297251E+04  0.80034017840E+02 0.  0.
        254    2    1    2    0    0 -0.23079696842E+03 -0.91838297575E+02  0.54538284263E+01  0.93546559790E+03  0.90186730015E+03 0.  0.
         23    2    4    4    0    0  0.10869367011E+03  0.29947837573E+03 -0.17912651117E+03  0.37818214726E+03  0.97127843847E+02 0.  0.
         23    2    4    4    0    0 -0.33949063853E+03 -0.39131667331E+03  0.18458033960E+03  0.55728345064E+03  0.90068363679E+02 0.  0.
          2    1    3    3  502    0  0.94781895417E+02  0.11355561716E+02  0.28677434534E+03  0.30224506882E+03  0.00000000000E+00 0. -1.
         -1    1    3    3    0  502  0.13601507300E+03  0.80482735859E+02  0.79574193224E+03  0.81128465632E+03  0.00000000000E+00 0.  1.
         11    1    5    5    0    0  0.10916299767E+03  0.30681577434E+03 -0.17408110115E+03  0.36926509343E+03  0.00000000000E+00 0. -1.
        -11    1    5    5    0    0 -0.46932755858E+00 -0.73373986139E+01 -0.50454100253E+01  0.89170538352E+01  0.00000000000E+00 0.  1.
          2    1    6    6  503    0 -0.25808103811E+03 -0.29356902092E+03  0.96683858468E+02  0.40266159583E+03  0.00000000000E+00 0. -1.
         -2    1    6    6    0  503 -0.81409600419E+02 -0.97747652390E+02  0.87896481129E+02  0.15462185480E+03  0.00000000000E+00 0.  1.
<mgrwt>
<rscale>  0 0.17362900E+04</rscale>
<asrwt>0</asrwt>
<pdfrwt beam="1">  1        2 0.73925017E-01 0.17362900E+04</pdfrwt>
<pdfrwt beam="2">  1       -1 0.24130503E+00 0.17362900E+04</pdfrwt>
<totfact> 0.55597662E+00</totfact>
</mgrwt>
</event>
<event>
12    6  0.1530720E-007  0.1772014E+04  0.7818608E-02  0.8721326E-01
         -1   -1    0    0    0  501 -0.00000000000E+00  0.00000000000E+00  0.47270401681E+03  0.47270401681E+03  0.00000000000E+00 0.  1.
          2   -1    0    0  501    0  0.00000000000E+00 -0.00000000000E+00 -0.16606754948E+04  0.16606754948E+04  0.00000000000E+00 0. -1.
         24    2    1    2    0    0 -0.59664934710E+03 -0.10304622264E+03 -0.75298233398E+03  0.96953653470E+03  0.80060785911E+02 0.  0.
        254    2    1    2    0    0  0.59664934710E+03  0.10304622264E+03 -0.43498914400E+03  0.11638429769E+04  0.89370350345E+03 0.  0.
         23    2    4    4    0    0 -0.66516103039E+01  0.30468204521E+03  0.92758632993E+02  0.33137387962E+03  0.91263856517E+02 0.  0.
         23    2    4    4    0    0  0.60330095740E+03 -0.20163582257E+03 -0.52774777699E+03  0.83246909727E+03  0.99287620828E+02 0.  0.
          4    1    3    3  502    0 -0.45549665753E+03 -0.46570145083E+02 -0.54263298632E+03  0.70999756428E+03  0.00000000000E+00 0. -1.
         -3    1    3    3    0  502 -0.14115268957E+03 -0.56476077561E+02 -0.21034934765E+03  0.25953897042E+03  0.00000000000E+00 0.  1.
         11    1    5    5    0    0  0.22968847892E+02  0.24131987143E+03  0.97468195647E+02  0.26127169285E+03  0.00000000000E+00 0. -1.
        -11    1    5    5    0    0 -0.29620458196E+02  0.63362173779E+02 -0.47095626547E+01  0.70102186771E+02  0.00000000000E+00 0.  1.
          2    1    6    6  503    0  0.32868059808E+03 -0.11391920512E+03 -0.22427962599E+03  0.41389596698E+03  0.00000000000E+00 0.  1.
         -2    1    6    6    0  503  0.27462035932E+03 -0.87716617451E+02 -0.30346815100E+03  0.41857313029E+03  0.00000000000E+00 0. -1.
<mgrwt>
<rscale>  0 0.17720135E+04</rscale>
<asrwt>0</asrwt>
<pdfrwt beam="1">  1        2 0.25548854E+00 0.17720135E+04</pdfrwt>
<pdfrwt beam="2">  1       -1 0.72723695E-01 0.17720135E+04</pdfrwt>
<totfact> 0.21196295E+01</totfact>
</mgrwt>
</event>
<event>
12    6  0.1530720E-007  0.1325948E+04  0.7818608E-02  0.9009237E-01
          2   -1    0    0  501    0  0.00000000000E+00  0.00000000000E+00  0.75572026867E+03  0.75572026867E+03  0.00000000000E+00 0. -1.
         -1   -1    0    0    0  501 -0.00000000000E+00 -0.00000000000E+00 -0.58161046227E+03  0.58161046227E+03  0.00000000000E+00 0.  1.
         24    2    1    2    0    0 -0.28528136154E+03 -0.87840053090E+02 -0.13113616820E+03  0.33635119611E+03  0.82668629777E+02 0.  0.
        254    2    1    2    0    0  0.28528136154E+03  0.87840053090E+02  0.30524597461E+03  0.10009795348E+04  0.90536379095E+03 0.  0.
         23    2    4    4    0    0  0.93644017297E+02  0.17814666296E+03  0.59181037571E+03  0.63220435151E+03  0.94537747880E+02 0.  0.
         23    2    4    4    0    0  0.19163734424E+03 -0.90306609871E+02 -0.28656440110E+03  0.36877518331E+03  0.94846319670E+02 0.  0.
          2    1    3    3  502    0 -0.47217727618E+02  0.13602552056E+02 -0.34854070638E+02  0.60244082397E+02  0.00000000000E+00 0. -1.
         -1    1    3    3    0  502 -0.23806363392E+03 -0.10144260515E+03 -0.96282097564E+02  0.27610711372E+03  0.00000000000E+00 0.  1.
         11    1    5    5    0    0  0.28231545410E+02  0.11120824029E+03  0.21226468393E+03  0.24128942975E+03  0.00000000000E+00 0. -1.
        -11    1    5    5    0    0  0.65412471887E+02  0.66938422667E+02  0.37954569178E+03  0.39091492176E+03  0.00000000000E+00 0.  1.
          2    1    6    6  503    0  0.24415532042E+02 -0.28824601080E+02 -0.88096155690E+01  0.38788982441E+02  0.00000000000E+00 0. -1.
         -2    1    6    6    0  503  0.16722181220E+03 -0.61482008791E+02 -0.27775478553E+03  0.32998620087E+03  0.00000000000E+00 0.  1.
<mgrwt>
<rscale>  0 0.13259484E+04</rscale>
<asrwt>0</asrwt>
<pdfrwt beam="1">  1        2 0.11626466E+00 0.13259484E+04</pdfrwt>
<pdfrwt beam="2">  1       -1 0.89478533E-01 0.13259484E+04</pdfrwt>
<totfact> 0.50783344E+01</totfact>
</mgrwt>
</event>
<event>
12    6  0.1530720E-007  0.2090007E+04  0.7818608E-02  0.8565658E-01
         -1   -1    0    0    0  501 -0.00000000000E+00  0.00000000000E+00  0.31433891309E+03  0.31433891309E+03  0.00000000000E+00 0.  1.
          2   -1    0    0  501    0  0.00000000000E+00 -0.00000000000E+00 -0.34740610507E+04  0.34740610507E+04  0.00000000000E+00 0. -1.
         24    2    1    2    0    0  0.52257163440E+03 -0.38182902543E+02 -0.24903413713E+04  0.25463517591E+04  0.86994760403E+02 0.  0.
        254    2    1    2    0    0 -0.52257163440E+03  0.38182902543E+02 -0.66938076630E+03  0.12420482047E+04  0.90557941968E+03 0.  0.
         23    2    4    4    0    0 -0.58119350295E+03  0.25972922754E+03 -0.13980850132E+03  0.65799391232E+03  0.90357136445E+02 0.  0.
         23    2    4    4    0    0  0.58621868554E+02 -0.22154632500E+03 -0.52957226498E+03  0.58405429236E+03  0.90295819376E+02 0.  0.
          4    1    3    3  502    0  0.46964910935E+03 -0.26089813827E+02 -0.23319360661E+04  0.23789024319E+04  0.00000000000E+00 0. -1.
         -3    1    3    3    0  502  0.52922525046E+02 -0.12093088717E+02 -0.15840530524E+03  0.16744932720E+03  0.00000000000E+00 0.  1.
         11    1    5    5    0    0 -0.48387273367E+03  0.24345267651E+03 -0.96321018882E+02  0.55016340006E+03  0.00000000000E+00 0. -1.
        -11    1    5    5    0    0 -0.97320769281E+02  0.16276551034E+02 -0.43487482434E+02  0.10783051227E+03  0.00000000000E+00 0.  1.
          4    1    6    6  503    0  0.44617034478E+02 -0.22565987271E+03 -0.47820533761E+03  0.53065375042E+03  0.00000000000E+00 0. -1.
         -4    1    6    6    0  503  0.14004834076E+02  0.41135477084E+01 -0.51366927372E+02  0.53400541944E+02  0.00000000000E+00 0.  1.
<mgrwt>
<rscale>  0 0.20900072E+04</rscale>
<asrwt>0</asrwt>
<pdfrwt beam="1">  1        2 0.53447097E+00 0.20900072E+04</pdfrwt>
<pdfrwt beam="2">  1       -1 0.48359829E-01 0.20900072E+04</pdfrwt>
<totfact> 0.38217477E+00</totfact>
</mgrwt>
</event>
<event>
12    6  0.1530720E-007  0.1355847E+04  0.7818608E-02  0.8986414E-01
          2   -1    0    0  501    0  0.00000000000E+00  0.00000000000E+00  0.60711055495E+03  0.60711055495E+03  0.00000000000E+00 0. -1.
         -1   -1    0    0    0  501 -0.00000000000E+00 -0.00000000000E+00 -0.75699640317E+03  0.75699640317E+03  0.00000000000E+00 0.  1.
         24    2    1    2    0    0  0.72539899675E+02  0.20360146392E+03 -0.34352049728E+03  0.41357223723E+03  0.79498869225E+02 0.  0.
        254    2    1    2    0    0 -0.72539899675E+02 -0.20360146392E+03  0.19363464905E+03  0.95053472088E+03  0.90515539281E+03 0.  0.
         23    2    4    4    0    0 -0.41917895053E+03 -0.92068198073E+02  0.33306914420E+03  0.55032346821E+03  0.87939292601E+02 0.  0.
         23    2    4    4    0    0  0.34663905086E+03 -0.11153326585E+03 -0.13943449515E+03  0.40021125267E+03  0.90159676992E+02 0.  0.
          2    1    3    3  502    0  0.35153850860E+02  0.49461410333E+02 -0.45050165269E+02  0.75576065875E+02  0.00000000000E+00 0. -1.
         -1    1    3    3    0  502  0.37386048816E+02  0.15414005358E+03 -0.29847033201E+03  0.33799617136E+03  0.00000000000E+00 0.  1.
         11    1    5    5    0    0 -0.40117500841E+03 -0.10414642632E+03  0.30375264388E+03  0.51386139586E+03  0.00000000000E+00 0. -1.
        -11    1    5    5    0    0 -0.18003942120E+02  0.12078228248E+02  0.29316500317E+02  0.36462072353E+02  0.00000000000E+00 0.  1.
          4    1    6    6  503    0  0.61459543012E+02 -0.21776341583E+02 -0.65098519920E+02  0.92137407038E+02  0.00000000000E+00 0. -1.
         -4    1    6    6    0  503  0.28517950785E+03 -0.89756924262E+02 -0.74335975229E+02  0.30807384563E+03  0.00000000000E+00 0.  1.
<mgrwt>
<rscale>  0 0.13558473E+04</rscale>
<asrwt>0</asrwt>
<pdfrwt beam="1">  1        2 0.93401624E-01 0.13558473E+04</pdfrwt>
<pdfrwt beam="2">  1       -1 0.11646099E+00 0.13558473E+04</pdfrwt>
<totfact> 0.36337744E+01</totfact>
</mgrwt>
</event>
<event>
12    6  0.1530720E-007  0.2160784E+04  0.7818608E-02  0.8534930E-01
         -1   -1    0    0    0  501 -0.00000000000E+00  0.00000000000E+00  0.11707416383E+04  0.11707416383E+04  0.00000000000E+00 0.  1.
          2   -1    0    0  501    0  0.00000000000E+00 -0.00000000000E+00 -0.99701456873E+03  0.99701456873E+03  0.00000000000E+00 0. -1.
         24    2    1    2    0    0  0.70409660543E+01 -0.26190767986E+03 -0.78302913723E+03  0.82964478758E+03  0.80812349464E+02 0.  0.
        254    2    1    2    0    0 -0.70409660543E+01  0.26190767986E+03  0.95675620681E+03  0.13381114195E+04  0.89806153668E+03 0.  0.
         23    2    4    4    0    0 -0.35465993001E+03 -0.13738598746E+03  0.32383698861E+03  0.50788628321E+03  0.91757866044E+02 0.  0.
         23    2    4    4    0    0  0.34761896396E+03  0.39929366732E+03  0.63291921821E+03  0.83022513626E+03  0.91720571503E+02 0.  0.
          4    1    3    3  502    0  0.42860289072E+02 -0.13519612365E+03 -0.37684367114E+03  0.40264891495E+03  0.00000000000E+00 0. -1.
         -3    1    3    3    0  502 -0.35819323018E+02 -0.12671155621E+03 -0.40618546609E+03  0.42699587263E+03  0.00000000000E+00 0.  1.
         11    1    5    5    0    0 -0.33410088006E+03 -0.14223888188E+03  0.27767303515E+03  0.45711881609E+03  0.00000000000E+00 0. -1.
        -11    1    5    5    0    0 -0.20559049950E+02  0.48528944202E+01  0.46163953459E+02  0.50767467123E+02  0.00000000000E+00 0.  1.
          2    1    6    6  503    0  0.34530783241E+03  0.40413638809E+03  0.62309138807E+03  0.81902783664E+03  0.00000000000E+00 0. -1.
         -2    1    6    6    0  503  0.23111315488E+01 -0.48427207763E+01  0.98278301328E+01  0.11197299615E+02  0.00000000000E+00 0.  1.
<mgrwt>
<rscale>  0 0.21607836E+04</rscale>
<asrwt>0</asrwt>
<pdfrwt beam="1">  1        2 0.15338686E+00 0.21607836E+04</pdfrwt>
<pdfrwt beam="2">  1       -1 0.18011410E+00 0.21607836E+04</pdfrwt>
<totfact> 0.54961768E+00</totfact>
</mgrwt>
</event>
<event>
12    6  0.1530720E-007  0.1791987E+04  0.7818608E-02  0.8710572E-01
         -1   -1    0    0    0  501 -0.00000000000E+00  0.00000000000E+00  0.48953408288E+03  0.48953408288E+03  0.00000000000E+00 0.  1.
          2   -1    0    0  501    0  0.00000000000E+00 -0.00000000000E+00 -0.16399354477E+04  0.16399354477E+04  0.00000000000E+00 0. -1.
         24    2    1    2    0    0  0.51964011877E+03 -0.39069221742E+03 -0.62469050885E+03  0.90607073710E+03  0.89775759533E+02 0.  0.
        254    2    1    2    0    0 -0.51964011877E+03  0.39069221742E+03 -0.52571085600E+03  0.12233987935E+04  0.89312173979E+03 0.  0.
         23    2    4    4    0    0 -0.27970425634E+02  0.55970028547E+03 -0.34751156602E+03  0.66629539254E+03  0.95595540412E+02 0.  0.
         23    2    4    4    0    0 -0.49166969313E+03 -0.16900806805E+03 -0.17819928998E+03  0.55710340098E+03  0.91139443813E+02 0.  0.
          2    1    3    3  502    0  0.10647265155E+03 -0.38021246326E+02 -0.10476909740E+03  0.15413826414E+03  0.00000000000E+00 0. -1.
         -1    1    3    3    0  502  0.41316746721E+03 -0.35267097109E+03 -0.51992141145E+03  0.75193247296E+03  0.00000000000E+00 0.  1.
         11    1    5    5    0    0 -0.58379403947E+02  0.28682747725E+03 -0.20112488767E+03  0.35514697936E+03  0.00000000000E+00 0.  1.
        -11    1    5    5    0    0  0.30408978314E+02  0.27287280822E+03 -0.14638667834E+03  0.31114841318E+03  0.00000000000E+00 0. -1.
          4    1    6    6  503    0 -0.41617947801E+03 -0.12856185326E+03 -0.18032428654E+03  0.47143436059E+03  0.00000000000E+00 0. -1.
         -4    1    6    6    0  503 -0.75490215119E+02 -0.40446214792E+02  0.21249965576E+01  0.85669040383E+02  0.00000000000E+00 0.  1.
<mgrwt>
<rscale>  0 0.17919869E+04</rscale>
<asrwt>0</asrwt>
<pdfrwt beam="1">  1        2 0.25229776E+00 0.17919869E+04</pdfrwt>
<pdfrwt beam="2">  1       -1 0.75312935E-01 0.17919869E+04</pdfrwt>
<totfact> 0.20203964E+01</totfact>
</mgrwt>
</event>
<event>
12    6  0.1530720E-007  0.1302450E+04  0.7818608E-02  0.9027624E-01
          2   -1    0    0  501    0  0.00000000000E+00  0.00000000000E+00  0.93256527059E+03  0.93256527059E+03  0.00000000000E+00 0. -1.
         -1   -1    0    0    0  501 -0.00000000000E+00 -0.00000000000E+00 -0.45476081326E+03  0.45476081326E+03  0.00000000000E+00 0.  1.
         24    2    1    2    0    0 -0.25767047853E+03 -0.14061746045E+03  0.28308141555E+03  0.41517501740E+03  0.77896479751E+02 0.  0.
        254    2    1    2    0    0  0.25767047853E+03  0.14061746045E+03  0.19472304178E+03  0.97215106644E+03  0.90608679898E+03 0.  0.
         23    2    4    4    0    0  0.57186005922E+03 -0.34997649159E+02  0.12566713471E+03  0.59453199849E+03  0.97094313473E+02 0.  0.
         23    2    4    4    0    0 -0.31418958069E+03  0.17561510961E+03  0.69055907078E+02  0.37761906795E+03  0.90948792415E+02 0.  0.
          4    1    3    3  502    0 -0.24744743063E+03 -0.14241942983E+03  0.24664710513E+03  0.37729076240E+03  0.00000000000E+00 0. -1.
         -3    1    3    3    0  502 -0.10223047897E+02  0.18019693802E+01  0.36434310412E+02  0.37884255003E+02  0.00000000000E+00 0.  1.
         11    1    5    5    0    0  0.26247316747E+03  0.11289087525E+02  0.16621543594E+02  0.26324111163E+03  0.00000000000E+00 0. -1.
        -11    1    5    5    0    0  0.30938689175E+03 -0.46286736684E+02  0.10904559111E+03  0.33129088686E+03  0.00000000000E+00 0.  1.
          3    1    6    6  503    0 -0.20161128714E+03  0.11321807987E+03  0.88225137190E+02  0.24748559462E+03  0.00000000000E+00 0. -1.
         -3    1    6    6    0  503 -0.11257829354E+03  0.62397029741E+02 -0.19169230112E+02  0.13013347333E+03  0.00000000000E+00 0.  1.
<mgrwt>
<rscale>  0 0.13024502E+04</rscale>
<asrwt>0</asrwt>
<pdfrwt beam="1">  1        2 0.14347158E+00 0.13024502E+04</pdfrwt>
<pdfrwt beam="2">  1       -1 0.69963202E-01 0.13024502E+04</pdfrwt>
<totfact> 0.64414389E+01</totfact>
</mgrwt>
</event>
<event>
12    6  0.1530720E-007  0.1280743E+04  0.7818608E-02  0.9044977E-01
         -1   -1    0    0    0  501 -0.00000000000E+00  0.00000000000E+00  0.20723402009E+03  0.20723402009E+03  0.00000000000E+00 0.  1.
          2   -1    0    0  501    0  0.00000000000E+00 -0.00000000000E+00 -0.19788036219E+04  0.19788036219E+04  0.00000000000E+00 0. -1.
         24    2    1    2    0    0 -0.49023030309E+02  0.24668095442E+03 -0.12050052238E+03  0.29049276450E+03  0.81307561507E+02 0.  0.
        254    2    1    2    0    0  0.49023030309E+02 -0.24668095442E+03 -0.16510690795E+04  0.18955448775E+04  0.89655257893E+03 0.  0.
         23    2    4    4    0    0  0.26582429993E+03 -0.50186073127E+03 -0.11547147014E+04  0.12900647133E+04  0.91510494742E+02 0.  0.
         23    2    4    4    0    0 -0.21680126963E+03  0.25517977685E+03 -0.49635437801E+03  0.60548016426E+03  0.90105780676E+02 0.  0.
          4    1    3    3  502    0 -0.47516257628E+02  0.58066076167E+02 -0.43759174827E+02  0.86858098769E+02  0.00000000000E+00 0. -1.
         -3    1    3    3    0  502 -0.15067726814E+01  0.18861487826E+03 -0.76741347557E+02  0.20363466573E+03  0.00000000000E+00 0.  1.
         11    1    5    5    0    0  0.94674063487E+02 -0.14902741266E+03 -0.45327713327E+03  0.48644887456E+03  0.00000000000E+00 0.  1.
        -11    1    5    5    0    0  0.17115023645E+03 -0.35283331862E+03 -0.70143756817E+03  0.80361583870E+03  0.00000000000E+00 0. -1.
          1    1    6    6  503    0 -0.14909479652E+03  0.23084198658E+03 -0.39427417713E+03  0.48059276718E+03  0.00000000000E+00 0. -1.
         -1    1    6    6    0  503 -0.67706473101E+02  0.24337790269E+02 -0.10208020088E+03  0.12488739707E+03  0.00000000000E+00 0.  1.
<mgrwt>
<rscale>  0 0.12807426E+04</rscale>
<asrwt>0</asrwt>
<pdfrwt beam="1">  1        2 0.30443133E+00 0.12807426E+04</pdfrwt>
<pdfrwt beam="2">  1       -1 0.31882156E-01 0.12807426E+04</pdfrwt>
<totfact> 0.70403158E+01</totfact>
</mgrwt>
</event>
<event>
12    6  0.1530720E-007  0.1220120E+04  0.7818608E-02  0.9095426E-01
          2   -1    0    0  501    0  0.00000000000E+00  0.00000000000E+00  0.65153224205E+03  0.65153224205E+03  0.00000000000E+00 0. -1.
         -1   -1    0    0    0  501 -0.00000000000E+00 -0.00000000000E+00 -0.57122755689E+03  0.57122755689E+03  0.00000000000E+00 0.  1.
         24    2    1    2    0    0  0.13738331886E+03  0.21859670341E+03  0.89778114399E+02  0.28478969813E+03  0.79914750159E+02 0.  0.
        254    2    1    2    0    0 -0.13738331886E+03 -0.21859670341E+03 -0.94734292312E+01  0.93797010081E+03  0.90168701283E+03 0.  0.
         23    2    4    4    0    0  0.17448136586E+03 -0.86871109285E+02  0.36452581193E+03  0.42575165045E+03  0.10195618489E+03 0.  0.
         23    2    4    4    0    0 -0.31186468472E+03 -0.13172559412E+03 -0.37399924116E+03  0.51221845036E+03  0.88775530278E+02 0.  0.
          4    1    3    3  502    0  0.77338670752E+02  0.60286482837E+02  0.53227811646E+02  0.11157477286E+03  0.00000000000E+00 0. -1.
         -3    1    3    3    0  502  0.60044648109E+02  0.15831022057E+03  0.36550302753E+02  0.17321492527E+03  0.00000000000E+00 0.  1.
         11    1    5    5    0    0  0.14355883608E+02  0.13187969193E+02  0.57514773487E+01  0.20324699685E+02  0.00000000000E+00 0. -1.
        -11    1    5    5    0    0  0.16012548225E+03 -0.10005907848E+03  0.35877433458E+03  0.40542695076E+03  0.00000000000E+00 0.  1.
          3    1    6    6  503    0 -0.14545206284E+03 -0.61389687909E+02 -0.11039645284E+03  0.19264571930E+03  0.00000000000E+00 0. -1.
         -3    1    6    6    0  503 -0.16641262188E+03 -0.70335906216E+02 -0.26360278832E+03  0.31957273106E+03  0.00000000000E+00 0.  1.
<mgrwt>
<rscale>  0 0.12201199E+04</rscale>
<asrwt>0</asrwt>
<pdfrwt beam="1">  1        2 0.10023573E+00 0.12201199E+04</pdfrwt>
<pdfrwt beam="2">  1       -1 0.87881162E-01 0.12201199E+04</pdfrwt>
<totfact> 0.64289346E+01</totfact>
</mgrwt>
</event>
<event>
12    6  0.1530720E-007  0.2079611E+04  0.7818608E-02  0.8570279E-01
          2   -1    0    0  501    0  0.00000000000E+00  0.00000000000E+00  0.23725150769E+04  0.23725150769E+04  0.00000000000E+00 0. -1.
         -1   -1    0    0    0  501 -0.00000000000E+00 -0.00000000000E+00 -0.45571682852E+03  0.45571682852E+03  0.00000000000E+00 0.  1.
         24    2    1    2    0    0 -0.50868664652E+02  0.99071375869E+02 -0.34938992424E+03  0.37522044031E+03  0.79462576738E+02 0.  0.
        254    2    1    2    0    0  0.50868664652E+02 -0.99071375869E+02  0.22661881726E+04  0.24530114651E+04  0.93233773693E+03 0.  0.
         23    2    4    4    0    0 -0.25635612136E+03  0.23528294855E+03  0.43752142263E+03  0.56658742828E+03  0.92302718177E+02 0.  0.
         23    2    4    4    0    0  0.30722478601E+03 -0.33435432442E+03  0.18286667500E+04  0.18864240369E+04  0.91617033605E+02 0.  0.
          2    1    3    3  502    0 -0.47791140475E+02  0.55976833249E+02 -0.11260457024E+03  0.13452579012E+03  0.00000000000E+00 0. -1.
         -1    1    3    3    0  502 -0.30775241777E+01  0.43094542621E+02 -0.23678535400E+03  0.24069465019E+03  0.00000000000E+00 0.  1.
         11    1    5    5    0    0 -0.48683656217E+01  0.12093083231E+02  0.58412221620E+02  0.59849237927E+02  0.00000000000E+00 0. -1.
        -11    1    5    5    0    0 -0.25148775574E+03  0.22318986532E+03  0.37910920101E+03  0.50673819035E+03  0.00000000000E+00 0.  1.
          4    1    6    6  503    0  0.19915450542E+03 -0.17148802265E+03  0.90982810149E+03  0.94702578276E+03  0.00000000000E+00 0. -1.
         -4    1    6    6    0  503  0.10807028060E+03 -0.16286630177E+03  0.91883864851E+03  0.93939825409E+03  0.00000000000E+00 0.  1.
<mgrwt>
<rscale>  0 0.20796106E+04</rscale>
<asrwt>0</asrwt>
<pdfrwt beam="1">  1        2 0.36500231E+00 0.20796106E+04</pdfrwt>
<pdfrwt beam="2">  1       -1 0.70110283E-01 0.20796106E+04</pdfrwt>
<totfact> 0.89085199E+00</totfact>
</mgrwt>
</event>
<event>
12    6  0.1530720E-007  0.2238498E+04  0.7818608E-02  0.8502573E-01
         -1   -1    0    0    0  501 -0.00000000000E+00  0.00000000000E+00  0.29373771237E+03  0.29373771237E+03  0.00000000000E+00 0.  1.
          2   -1    0    0  501    0  0.00000000000E+00 -0.00000000000E+00 -0.42647520986E+04  0.42647520986E+04  0.00000000000E+00 0. -1.
         24    2    1    2    0    0  0.31728849330E+03 -0.46314491239E+03 -0.32027802262E+04  0.32525682061E+04  0.78889540580E+02 0.  0.
        254    2    1    2    0    0 -0.31728849330E+03  0.46314491239E+03 -0.76823416004E+03  0.13059216050E+04  0.89446761584E+03 0.  0.
         23    2    4    4    0    0 -0.54560193016E+03  0.43934291973E+03 -0.28145311290E+03  0.76066272924E+03  0.93210866250E+02 0.  0.
         23    2    4    4    0    0  0.22831343685E+03  0.23801992650E+02 -0.48678104714E+03  0.54525887571E+03  0.87509390266E+02 0.  0.
          2    1    3    3  502    0  0.21625373710E+03 -0.33445938892E+03 -0.20616482157E+04  0.20997671601E+04  0.00000000000E+00 0. -1.
         -3    1    3    3    0  502  0.10103475621E+03 -0.12868552346E+03 -0.11411320106E+04  0.11528010459E+04  0.00000000000E+00 0.  1.
         11    1    5    5    0    0 -0.26245713736E+03  0.26842470446E+03 -0.16431937692E+03  0.40980047407E+03  0.00000000000E+00 0. -1.
        -11    1    5    5    0    0 -0.28314479280E+03  0.17091821527E+03 -0.11713373598E+03  0.35086225517E+03  0.00000000000E+00 0.  1.
          1    1    6    6  503    0  0.14669061839E+03 -0.25111925927E+02 -0.26510147118E+03  0.30401897370E+03  0.00000000000E+00 0. -1.
         -1    1    6    6    0  503  0.81622818460E+02  0.48913918577E+02 -0.22167957596E+03  0.24123990201E+03  0.00000000000E+00 0.  1.
<mgrwt>
<rscale>  0 0.22384982E+04</rscale>
<asrwt>0</asrwt>
<pdfrwt beam="1">  1        2 0.65611573E+00 0.22384982E+04</pdfrwt>
<pdfrwt beam="2">  1       -1 0.45190416E-01 0.22384982E+04</pdfrwt>
<totfact> 0.10365109E+00</totfact>
</mgrwt>
</event>
<event>
12    6  0.1530720E-007  0.1303563E+04  0.7818608E-02  0.9026744E-01
         -1   -1    0    0    0  501 -0.00000000000E+00  0.00000000000E+00  0.76189275712E+03  0.76189275712E+03  0.00000000000E+00 0.  1.
          2   -1    0    0  501    0  0.00000000000E+00 -0.00000000000E+00 -0.55758406442E+03  0.55758406442E+03  0.00000000000E+00 0. -1.
         24    2    1    2    0    0  0.12163721667E+03  0.28299637639E+03  0.11198974362E+03  0.33724009152E+03  0.79414199755E+02 0.  0.
        254    2    1    2    0    0 -0.12163721667E+03 -0.28299637639E+03  0.92318949072E+02  0.98223673002E+03  0.92810756053E+03 0.  0.
         23    2    4    4    0    0 -0.20766815461E+03  0.25958900281E+03  0.22259740154E+03  0.41036172610E+03  0.91294196198E+02 0.  0.
         23    2    4    4    0    0  0.86030937938E+02 -0.54258537920E+03 -0.13027845247E+03  0.57187500392E+03  0.90930352057E+02 0.  0.
          4    1    3    3  502    0  0.48467704525E+02  0.20703481467E+03  0.74853603929E+02  0.22542314630E+03  0.00000000000E+00 0. -1.
         -3    1    3    3    0  502  0.73169512148E+02  0.75961561721E+02  0.37136139695E+02  0.11181694522E+03  0.00000000000E+00 0.  1.
         11    1    5    5    0    0 -0.18272234277E+03  0.24953550389E+03  0.22627265535E+03  0.38321630551E+03  0.00000000000E+00 0. -1.
        -11    1    5    5    0    0 -0.24945811838E+02  0.10053498912E+02 -0.36752538031E+01  0.27145420593E+02  0.00000000000E+00 0.  1.
          2    1    6    6  503    0  0.69645722181E+02 -0.45277787932E+03 -0.14253685823E+03  0.47976566214E+03  0.00000000000E+00 0. -1.
         -2    1    6    6    0  503  0.16385215758E+02 -0.89807499881E+02  0.12258405761E+02  0.92109341775E+02  0.00000000000E+00 0.  1.
<mgrwt>
<rscale>  0 0.13035632E+04</rscale>
<asrwt>0</asrwt>
<pdfrwt beam="1">  1        2 0.85782163E-01 0.13035632E+04</pdfrwt>
<pdfrwt beam="2">  1       -1 0.11721427E+00 0.13035632E+04</pdfrwt>
<totfact> 0.39789874E+01</totfact>
</mgrwt>
</event>
<event>
12    6  0.1530720E-007  0.1844799E+04  0.7818608E-02  0.8682832E-01
          2   -1    0    0  501    0  0.00000000000E+00  0.00000000000E+00  0.28348404067E+04  0.28348404067E+04  0.00000000000E+00 0. -1.
         -1   -1    0    0    0  501 -0.00000000000E+00 -0.00000000000E+00 -0.30013004559E+03  0.30013004559E+03  0.00000000000E+00 0.  1.
         24    2    1    2    0    0  0.19600563345E+03 -0.93301830372E+02  0.20942176323E+04  0.21068839776E+04  0.78033091610E+02 0.  0.
        254    2    1    2    0    0 -0.19600563345E+03  0.93301830372E+02  0.44049272876E+03  0.10280864747E+04  0.90321897429E+03 0.  0.
         23    2    4    4    0    0 -0.43749293668E+02  0.47994182761E+03  0.32292890879E+03  0.58690863802E+03  0.88997250928E+02 0.  0.
         23    2    4    4    0    0 -0.15225633978E+03 -0.38663999724E+03  0.11756381997E+03  0.44117783670E+03  0.90244951986E+02 0.  0.
          4    1    3    3  502    0  0.10956169684E+03 -0.54122831747E+02  0.15171875274E+04  0.15221008638E+04  0.00000000000E+00 0. -1.
         -3    1    3    3    0  502  0.86443936607E+02 -0.39178998625E+02  0.57703010497E+03  0.58478311377E+03  0.00000000000E+00 0.  1.
         11    1    5    5    0    0  0.74068283037E+01  0.81084465707E+02  0.21099929601E+02  0.84111584896E+02  0.00000000000E+00 0. -1.
        -11    1    5    5    0    0 -0.51156121972E+02  0.39885736190E+03  0.30182897919E+03  0.50279705313E+03  0.00000000000E+00 0.  1.
          3    1    6    6  503    0 -0.46352230755E+01 -0.22260053062E+02  0.31284699414E+02  0.38674638624E+02  0.00000000000E+00 0. -1.
         -3    1    6    6    0  503 -0.14762111671E+03 -0.36437994418E+03  0.86279120556E+02  0.40250319807E+03  0.00000000000E+00 0.  1.
<mgrwt>
<rscale>  0 0.18447989E+04</rscale>
<asrwt>0</asrwt>
<pdfrwt beam="1">  1        2 0.43612927E+00 0.18447989E+04</pdfrwt>
<pdfrwt beam="2">  1       -1 0.46173855E-01 0.18447989E+04</pdfrwt>
<totfact> 0.11034478E+01</totfact>
</mgrwt>
</event>
<event>
12    6  0.1530720E-007  0.2299490E+04  0.7818608E-02  0.8478122E-01
          2   -1    0    0  501    0  0.00000000000E+00  0.00000000000E+00  0.28059625174E+04  0.28059625174E+04  0.00000000000E+00 0. -1.
         -1   -1    0    0    0  501 -0.00000000000E+00 -0.00000000000E+00 -0.47110896815E+03  0.47110896815E+03  0.00000000000E+00 0.  1.
         24    2    1    2    0    0  0.88265472519E+03  0.40208364362E+03  0.10915986887E+04  0.14624472528E+04  0.80085265079E+02 0.  0.
        254    2    1    2    0    0 -0.88265472519E+03 -0.40208364362E+03  0.12432548606E+04  0.18146242327E+04  0.89801327239E+03 0.  0.
         23    2    4    4    0    0 -0.96046928127E+02 -0.44453951829E+03  0.74681002792E+03  0.87905575560E+03  0.90406901999E+02 0.  0.
         23    2    4    4    0    0 -0.78660779706E+03  0.42455874666E+02  0.49644483263E+03  0.93556847714E+03  0.90975688403E+02 0.  0.
          4    1    3    3  502    0  0.71872840174E+03  0.30681578356E+03  0.83846227545E+03  0.11461786195E+04  0.00000000000E+00 0. -1.
         -3    1    3    3    0  502  0.16392632345E+03  0.95267860066E+02  0.25313641321E+03  0.31626863324E+03  0.00000000000E+00 0.  1.
         11    1    5    5    0    0 -0.73453629456E+01 -0.86440306683E+01  0.57988070983E+02  0.59087139035E+02  0.00000000000E+00 0.  1.
        -11    1    5    5    0    0 -0.88701565182E+02 -0.43589548762E+03  0.68882195694E+03  0.81996861656E+03  0.00000000000E+00 0. -1.
          1    1    6    6  503    0 -0.70683664755E+03  0.45054445575E+02  0.47540421930E+03  0.85302820652E+03  0.00000000000E+00 0. -1.
         -1    1    6    6    0  503 -0.79771149513E+02 -0.25985709088E+01  0.21040613333E+02  0.82540270625E+02  0.00000000000E+00 0.  1.
<mgrwt>
<rscale>  0 0.22994905E+04</rscale>
<asrwt>0</asrwt>
<pdfrwt beam="1">  1        2 0.43168653E+00 0.22994905E+04</pdfrwt>
<pdfrwt beam="2">  1       -1 0.72478304E-01 0.22994905E+04</pdfrwt>
<totfact> 0.45436363E+00</totfact>
</mgrwt>
</event>
<event>
12    6  0.1530720E-007  0.1248669E+04  0.7818608E-02  0.9071292E-01
          2   -1    0    0  501    0  0.00000000000E+00  0.00000000000E+00  0.29280978333E+04  0.29280978333E+04  0.00000000000E+00 0. -1.
         -1   -1    0    0    0  501 -0.00000000000E+00 -0.00000000000E+00 -0.13312167296E+03  0.13312167296E+03  0.00000000000E+00 0.  1.
         24    2    1    2    0    0  0.13557669541E+03 -0.13757289367E+03  0.14096978426E+03  0.25209575981E+03  0.79827630735E+02 0.  0.
        254    2    1    2    0    0 -0.13557669541E+03  0.13757289367E+03  0.26540063761E+04  0.28091237464E+04  0.90006612932E+03 0.  0.
         23    2    4    4    0    0  0.23348380190E+03  0.21626655185E+03  0.37950882011E+03  0.50212137309E+03  0.82541029643E+02 0.  0.
         23    2    4    4    0    0 -0.36906049731E+03 -0.78693658179E+02  0.22744975560E+04  0.23070023733E+04  0.80761847628E+02 0.  0.
          4    1    3    3  502    0  0.60644533353E+02 -0.10777498573E+02  0.45509243556E+02  0.76583321618E+02  0.00000000000E+00 0. -1.
         -3    1    3    3    0  502  0.74932162054E+02 -0.12679539510E+03  0.95460540705E+02  0.17551243819E+03  0.00000000000E+00 0.  1.
         11    1    5    5    0    0  0.21554839393E+03  0.21820922884E+03  0.37306759070E+03  0.48296563533E+03  0.00000000000E+00 0. -1.
        -11    1    5    5    0    0  0.17935407971E+02 -0.19426769880E+01  0.64412294089E+01  0.19155737764E+02  0.00000000000E+00 0.  1.
          2    1    6    6  503    0 -0.27629383741E+03 -0.69479628367E+02  0.18907751168E+04  0.19121182614E+04  0.00000000000E+00 0. -1.
         -2    1    6    6    0  503 -0.92766659894E+02 -0.92140298120E+01  0.38372243915E+03  0.39488411191E+03  0.00000000000E+00 0.  1.
<mgrwt>
<rscale>  0 0.12486685E+04</rscale>
<asrwt>0</asrwt>
<pdfrwt beam="1">  1        2 0.45047654E+00 0.12486685E+04</pdfrwt>
<pdfrwt beam="2">  1       -1 0.20480260E-01 0.12486685E+04</pdfrwt>
<totfact> 0.43003891E+01</totfact>
</mgrwt>
</event>
<event>
12    6  0.1530720E-007  0.1518884E+04  0.7818608E-02  0.8871991E-01
          2   -1    0    0  501    0  0.00000000000E+00  0.00000000000E+00  0.12690397947E+04  0.12690397947E+04  0.00000000000E+00 0. -1.
         -1   -1    0    0    0  501 -0.00000000000E+00 -0.00000000000E+00 -0.45447942876E+03  0.45447942876E+03  0.00000000000E+00 0.  1.
         24    2    1    2    0    0 -0.15657295421E+03  0.21137314198E+03  0.71518712472E+03  0.76608601261E+03  0.78749350601E+02 0.  0.
        254    2    1    2    0    0  0.15657295421E+03 -0.21137314198E+03  0.99373241260E+02  0.95743321089E+03  0.91521014914E+03 0.  0.
         23    2    4    4    0    0 -0.18934049268E+03 -0.27176077290E+03  0.36988966904E+03  0.50490473017E+03  0.91687945976E+02 0.  0.
         23    2    4    4    0    0  0.34591344689E+03  0.60387630923E+02 -0.27051642778E+03  0.45252848071E+03  0.91104936475E+02 0.  0.
          2    1    3    3  502    0 -0.16421173124E+03  0.19107330321E+03  0.67376915549E+03  0.71933258982E+03  0.00000000000E+00 0. -1.
         -1    1    3    3    0  502  0.76387770327E+01  0.20299838769E+02  0.41417969222E+02  0.46753422796E+02  0.00000000000E+00 0.  1.
         11    1    5    5    0    0 -0.19918926906E+03 -0.25112389641E+03  0.33995298622E+03  0.46723399822E+03  0.00000000000E+00 0.  1.
        -11    1    5    5    0    0  0.98487763831E+01 -0.20636876488E+02  0.29936682819E+02  0.37670731950E+02  0.00000000000E+00 0. -1.
          3    1    6    6  503    0 -0.31975606164E+01  0.53460479930E+01 -0.15502407205E+02  0.16707161704E+02  0.00000000000E+00 0. -1.
         -3    1    6    6    0  503  0.34911100751E+03  0.55041582930E+02 -0.25501402057E+03  0.43582131901E+03  0.00000000000E+00 0.  1.
<mgrwt>
<rscale>  0 0.15188844E+04</rscale>
<asrwt>0</asrwt>
<pdfrwt beam="1">  1        2 0.19523689E+00 0.15188844E+04</pdfrwt>
<pdfrwt beam="2">  1       -1 0.69919912E-01 0.15188844E+04</pdfrwt>
<totfact> 0.39211617E+01</totfact>
</mgrwt>
</event>
<event>
12    6  0.1530720E-007  0.1629684E+04  0.7818608E-02  0.8802517E-01
          2   -1    0    0  501    0  0.00000000000E+00  0.00000000000E+00  0.32867933040E+04  0.32867933040E+04  0.00000000000E+00 0. -1.
         -1   -1    0    0    0  501 -0.00000000000E+00 -0.00000000000E+00 -0.20201072504E+03  0.20201072504E+03  0.00000000000E+00 0.  1.
         24    2    1    2    0    0  0.58744231563E+02  0.45061654685E+03  0.18250252909E+04  0.18825376887E+04  0.82004146166E+02 0.  0.
        254    2    1    2    0    0 -0.58744231563E+02 -0.45061654685E+03  0.12597572880E+04  0.16062663403E+04  0.88690302408E+03 0.  0.
         23    2    4    4    0    0 -0.32727312226E+03 -0.14419812842E+03  0.11343076854E+03  0.38617386660E+03  0.91448997785E+02 0.  0.
         23    2    4    4    0    0  0.26852889070E+03 -0.30641841843E+03  0.11463265195E+04  0.12200924737E+04  0.92526443633E+02 0.  0.
          4    1    3    3  502    0  0.35595894290E+02  0.42707211771E+03  0.16795690493E+04  0.17333810466E+04  0.00000000000E+00 0. -1.
         -3    1    3    3    0  502  0.23148337273E+02  0.23544429142E+02  0.14545624160E+03  0.14915664210E+03  0.00000000000E+00 0.  1.
         11    1    5    5    0    0 -0.17899043545E+03 -0.41231762245E+02  0.25728342504E+02  0.18547124254E+03  0.00000000000E+00 0.  1.
        -11    1    5    5    0    0 -0.14828268681E+03 -0.10296636618E+03  0.87702426040E+02  0.20070262406E+03  0.00000000000E+00 0. -1.
          3    1    6    6  503    0  0.26636763255E+03 -0.26447354211E+03  0.10468917658E+04  0.11121512215E+04  0.00000000000E+00 0. -1.
         -3    1    6    6    0  503  0.21612581514E+01 -0.41944876319E+02  0.99434753664E+02  0.10794125218E+03  0.00000000000E+00 0.  1.
<mgrwt>
<rscale>  0 0.16296840E+04</rscale>
<asrwt>0</asrwt>
<pdfrwt beam="1">  1        2 0.50566047E+00 0.16296840E+04</pdfrwt>
<pdfrwt beam="2">  1       -1 0.31078575E-01 0.16296840E+04</pdfrwt>
<totfact> 0.11975250E+01</totfact>
</mgrwt>
</event>
<event>
12    6  0.1530720E-007  0.1479608E+04  0.7818608E-02  0.8898128E-01
         -1   -1    0    0    0  501 -0.00000000000E+00  0.00000000000E+00  0.47465493002E+03  0.47465493002E+03  0.00000000000E+00 0.  1.
          2   -1    0    0  501    0  0.00000000000E+00 -0.00000000000E+00 -0.11530692330E+04  0.11530692330E+04  0.00000000000E+00 0. -1.
         24    2    1    2    0    0 -0.16630497062E+03  0.35017054380E+03 -0.52326516956E+03  0.65615542757E+03  0.80353932406E+02 0.  0.
        254    2    1    2    0    0  0.16630497062E+03 -0.35017054380E+03 -0.15514913344E+03  0.97156873547E+03  0.87726723473E+03 0.  0.
         23    2    4    4    0    0 -0.79495655103E+01  0.22708165275E+03 -0.25358867027E+03  0.35408823830E+03  0.97169924359E+02 0.  0.
         23    2    4    4    0    0  0.17425453613E+03 -0.57725219656E+03  0.98439536838E+02  0.61748049717E+03  0.89482289773E+02 0.  0.
          2    1    3    3  502    0 -0.13962607083E+03  0.32598079240E+03 -0.43776206254E+03  0.56337779515E+03  0.00000000000E+00 0. -1.
         -1    1    3    3    0  502 -0.26678899794E+02  0.24189751402E+02 -0.85503107021E+02  0.92777632420E+02  0.00000000000E+00 0.  1.
         11    1    5    5    0    0 -0.27861401344E+02  0.10751368477E+02 -0.29289566729E+02  0.41829754101E+02  0.00000000000E+00 0.  1.
        -11    1    5    5    0    0  0.19911835834E+02  0.21633028427E+03 -0.22429910355E+03  0.31225848420E+03  0.00000000000E+00 0. -1.
          3    1    6    6  503    0  0.18867828325E+02 -0.16991544763E+03  0.19920911664E+01  0.17097140907E+03  0.00000000000E+00 0. -1.
         -3    1    6    6    0  503  0.15538670781E+03 -0.40733674892E+03  0.96447445672E+02  0.44650908811E+03  0.00000000000E+00 0.  1.
<mgrwt>
<rscale>  0 0.14796081E+04</rscale>
<asrwt>0</asrwt>
<pdfrwt beam="1">  1        2 0.17739526E+00 0.14796081E+04</pdfrwt>
<pdfrwt beam="2">  1       -1 0.73023836E-01 0.14796081E+04</pdfrwt>
<totfact> 0.42175757E+01</totfact>
</mgrwt>
</event>
<event>
12    6  0.1530720E-007  0.1417103E+04  0.7818608E-02  0.8941531E-01
         -1   -1    0    0    0  501 -0.00000000000E+00  0.00000000000E+00  0.45611410820E+03  0.45611410820E+03  0.00000000000E+00 0.  1.
          2   -1    0    0  501    0  0.00000000000E+00 -0.00000000000E+00 -0.11007013375E+04  0.11007013375E+04  0.00000000000E+00 0. -1.
         24    2    1    2    0    0  0.55934681402E+02  0.36218380215E+03  0.23553392999E+02  0.37566474780E+03  0.79141931334E+02 0.  0.
        254    2    1    2    0    0 -0.55934681402E+02 -0.36218380215E+03 -0.66814062231E+03  0.11811506979E+04  0.90244073760E+03 0.  0.
         23    2    4    4    0    0 -0.34244279062E+03  0.13913939650E+03 -0.18961288868E+03  0.42578260801E+03  0.93332444631E+02 0.  0.
         23    2    4    4    0    0  0.28650810922E+03 -0.50132319865E+03 -0.47852773362E+03  0.75536808990E+03  0.90445084129E+02 0.  0.
          2    1    3    3  502    0 -0.17116101100E+02  0.55574718504E+02  0.16291726596E+02  0.60389822066E+02  0.00000000000E+00 0. -1.
         -1    1    3    3    0  502  0.73050782502E+02  0.30660908365E+03  0.72616664033E+01  0.31527492574E+03  0.00000000000E+00 0.  1.
         11    1    5    5    0    0 -0.63928776448E+02  0.25092064362E+02  0.25191901946E+01  0.68722969023E+02  0.00000000000E+00 0. -1.
        -11    1    5    5    0    0 -0.27851401418E+03  0.11404733214E+03 -0.19213207888E+03  0.35705963899E+03  0.00000000000E+00 0.  1.
          4    1    6    6  503    0  0.51850570523E+02 -0.48570655959E+02 -0.87758807018E+02  0.11291234872E+03  0.00000000000E+00 0. -1.
         -4    1    6    6    0  503  0.23465753870E+03 -0.45275254269E+03 -0.39076892661E+03  0.64245574119E+03  0.00000000000E+00 0.  1.
<mgrwt>
<rscale>  0 0.14171033E+04</rscale>
<asrwt>0</asrwt>
<pdfrwt beam="1">  1        2 0.16933867E+00 0.14171033E+04</pdfrwt>
<pdfrwt beam="2">  1       -1 0.70171401E-01 0.14171033E+04</pdfrwt>
<totfact> 0.49543350E+01</totfact>
</mgrwt>
</event>
<event>
12    6  0.1530720E-007  0.1536452E+04  0.7818608E-02  0.8860568E-01
         -1   -1    0    0    0  501 -0.00000000000E+00  0.00000000000E+00  0.29182683139E+03  0.29182683139E+03  0.00000000000E+00 0.  1.
          2   -1    0    0  501    0  0.00000000000E+00 -0.00000000000E+00 -0.20223333602E+04  0.20223333602E+04  0.00000000000E+00 0. -1.
         24    2    1    2    0    0  0.11511217701E+03  0.19570433805E+03  0.96418535739E+02  0.25917170727E+03  0.79513763513E+02 0.  0.
        254    2    1    2    0    0 -0.11511217701E+03 -0.19570433805E+03 -0.18269250646E+04  0.20549884843E+04  0.91311087935E+03 0.  0.
         23    2    4    4    0    0  0.16945347613E+03  0.30357638409E+03 -0.70884101389E+03  0.79462319071E+03  0.89985169278E+02 0.  0.
         23    2    4    4    0    0 -0.28456565314E+03 -0.49928072214E+03 -0.11180840507E+04  0.12603652936E+04  0.90276677802E+02 0.  0.
          2    1    3    3  502    0  0.23531707709E+02  0.56358912935E+01 -0.55744393181E+01  0.24831007070E+02  0.00000000000E+00 0. -1.
         -1    1    3    3    0  502  0.91580469300E+02  0.19006844675E+03  0.10199297506E+03  0.23434070020E+03  0.00000000000E+00 0.  1.
         11    1    5    5    0    0  0.13280274364E+03  0.26261981738E+03 -0.51512977835E+03  0.59326589801E+03  0.00000000000E+00 0.  1.
        -11    1    5    5    0    0  0.36650732494E+02  0.40956566714E+02 -0.19371123555E+03  0.20135729271E+03  0.00000000000E+00 0. -1.
          1    1    6    6  503    0 -0.29040931232E+03 -0.48565823234E+03 -0.10997304813E+04  0.12367734711E+04  0.00000000000E+00 0. -1.
         -1    1    6    6    0  503  0.58436591831E+01 -0.13622489794E+02 -0.18353569338E+02  0.23591822487E+02  0.00000000000E+00 0.  1.
<mgrwt>
<rscale>  0 0.15364519E+04</rscale>
<asrwt>0</asrwt>
<pdfrwt beam="1">  1        2 0.31112821E+00 0.15364519E+04</pdfrwt>
<pdfrwt beam="2">  1       -1 0.44896436E-01 0.15364519E+04</pdfrwt>
<totfact> 0.35062125E+01</totfact>
</mgrwt>
</event>
<event>
12    6  0.1530720E-007  0.1677796E+04  0.7818608E-02  0.8774130E-01
          2   -1    0    0  501    0  0.00000000000E+00  0.00000000000E+00  0.69756281238E+03  0.69756281238E+03  0.00000000000E+00 0. -1.
         -1   -1    0    0    0  501 -0.00000000000E+00 -0.00000000000E+00 -0.10088698321E+04  0.10088698321E+04  0.00000000000E+00 0.  1.
         24    2    1    2    0    0 -0.31372426132E+03  0.30766548027E+03 -0.52186453413E+03  0.68663637768E+03  0.77755792547E+02 0.  0.
        254    2    1    2    0    0  0.31372426132E+03 -0.30766548027E+03  0.21055751441E+03  0.10197962668E+04  0.89586215403E+03 0.  0.
         23    2    4    4    0    0  0.16479716117E+03 -0.59745419059E+03  0.25933294427E+03  0.67795977297E+03  0.90918994721E+02 0.  0.
         23    2    4    4    0    0  0.14892710015E+03  0.28978871032E+03 -0.48775429857E+02  0.34183649384E+03  0.91194123578E+02 0.  0.
          4    1    3    3  502    0 -0.11711790313E+03  0.11365667668E+03 -0.13800277243E+03  0.21372694867E+03  0.00000000000E+00 0. -1.
         -3    1    3    3    0  502 -0.19660635819E+03  0.19400880359E+03 -0.38386176170E+03  0.47290942901E+03  0.00000000000E+00 0.  1.
         11    1    5    5    0    0  0.82788116407E+02 -0.17737108453E+03  0.11069033607E+03  0.22487046125E+03  0.00000000000E+00 0. -1.
        -11    1    5    5    0    0  0.82009044763E+02 -0.42008310606E+03  0.14864260820E+03  0.45308931172E+03  0.00000000000E+00 0.  1.
          2    1    6    6  503    0  0.53696615260E+02  0.18309453310E+03 -0.55353866854E+02  0.19867306087E+03  0.00000000000E+00 0. -1.
         -2    1    6    6    0  503  0.95230484892E+02  0.10669417722E+03  0.65784369976E+01  0.14316343297E+03  0.00000000000E+00 0.  1.
<mgrwt>
<rscale>  0 0.16777963E+04</rscale>
<asrwt>0</asrwt>
<pdfrwt beam="1">  1        2 0.10731736E+00 0.16777963E+04</pdfrwt>
<pdfrwt beam="2">  1       -1 0.15521074E+00 0.16777963E+04</pdfrwt>
<totfact> 0.14243867E+01</totfact>
</mgrwt>
</event>
<event>
12    6  0.1530720E-007  0.1308377E+04  0.7818608E-02  0.9022948E-01
          2   -1    0    0  501    0  0.00000000000E+00  0.00000000000E+00  0.72594378125E+03  0.72594378125E+03  0.00000000000E+00 0. -1.
         -1   -1    0    0    0  501 -0.00000000000E+00 -0.00000000000E+00 -0.58952616652E+03  0.58952616652E+03  0.00000000000E+00 0.  1.
         24    2    1    2    0    0  0.14383652598E+03  0.17907379241E+03  0.30126118201E+03  0.38706265603E+03  0.79390368238E+02 0.  0.
        254    2    1    2    0    0 -0.14383652598E+03 -0.17907379241E+03 -0.16484356728E+03  0.92840729174E+03  0.88431347855E+03 0.  0.
         23    2    4    4    0    0 -0.19765387410E+03 -0.49557964241E+03 -0.22954786919E+03  0.58787618439E+03  0.90774159345E+02 0.  0.
         23    2    4    4    0    0  0.53817348121E+02  0.31650585000E+03  0.64704301913E+02  0.34053110735E+03  0.93287342894E+02 0.  0.
          4    1    3    3  502    0  0.12153543013E+03  0.18360456770E+03  0.27584195384E+03  0.35294515375E+03  0.00000000000E+00 0. -1.
         -3    1    3    3    0  502  0.22301095851E+02 -0.45307752869E+01  0.25419228170E+02  0.34117502277E+02  0.00000000000E+00 0.  1.
         11    1    5    5    0    0 -0.13123349277E+03 -0.20778336700E+03 -0.10960469121E+03  0.26908984663E+03  0.00000000000E+00 0. -1.
        -11    1    5    5    0    0 -0.66420381331E+02 -0.28779627541E+03 -0.11994317798E+03  0.31878633776E+03  0.00000000000E+00 0.  1.
          1    1    6    6  503    0 -0.10000046890E+02  0.38578408644E+02  0.36391484987E+02  0.53968831105E+02  0.00000000000E+00 0.  1.
         -1    1    6    6    0  503  0.63817395011E+02  0.27792744135E+03  0.28312816927E+02  0.28656227624E+03  0.00000000000E+00 0. -1.
<mgrwt>
<rscale>  0 0.13083774E+04</rscale>
<asrwt>0</asrwt>
<pdfrwt beam="1">  1        2 0.11168366E+00 0.13083774E+04</pdfrwt>
<pdfrwt beam="2">  1       -1 0.90696333E-01 0.13083774E+04</pdfrwt>
<totfact> 0.51990489E+01</totfact>
</mgrwt>
</event>
<event>
12    6  0.1530720E-007  0.1017965E+04  0.7818608E-02  0.9289058E-01
         -1   -1    0    0    0  501 -0.00000000000E+00  0.00000000000E+00  0.25475616014E+03  0.25475616014E+03  0.00000000000E+00 0.  1.
          2   -1    0    0  501    0  0.00000000000E+00 -0.00000000000E+00 -0.10169061064E+04  0.10169061064E+04  0.00000000000E+00 0. -1.
         24    2    1    2    0    0 -0.10585956928E+03 -0.14203923542E+02 -0.61646131180E+02  0.14866251211E+03  0.83019860073E+02 0.  0.
        254    2    1    2    0    0  0.10585956928E+03  0.14203923542E+02 -0.70050381505E+03  0.11229997544E+04  0.87121458530E+03 0.  0.
         23    2    4    4    0    0 -0.16886963499E+03 -0.35728593458E+03 -0.30312042143E+03  0.50686656757E+03  0.94135725221E+02 0.  0.
         23    2    4    4    0    0  0.27472920426E+03  0.37148985812E+03 -0.39738339362E+03  0.61613318684E+03  0.90695600994E+02 0.  0.
          4    1    3    3  502    0 -0.25431151163E+02 -0.37573108044E+02 -0.43727459668E+02  0.63012479927E+02  0.00000000000E+00 0. -1.
         -3    1    3    3    0  502 -0.80428418114E+02  0.23369184502E+02 -0.17918671512E+02  0.85650032185E+02  0.00000000000E+00 0.  1.
         11    1    5    5    0    0 -0.11520175835E+03 -0.30227835933E+03 -0.27644408412E+03  0.42551731257E+03  0.00000000000E+00 0.  1.
        -11    1    5    5    0    0 -0.53667876636E+02 -0.55007575248E+02 -0.26676337304E+02  0.81349255001E+02  0.00000000000E+00 0. -1.
          1    1    6    6  503    0  0.26345686934E+03  0.34859202947E+03 -0.39736073491E+03  0.59061110611E+03  0.00000000000E+00 0. -1.
         -1    1    6    6    0  503  0.11272334920E+02  0.22897828648E+02 -0.22658713461E-01  0.25522080730E+02  0.00000000000E+00 0.  1.
<mgrwt>
<rscale>  0 0.10179648E+04</rscale>
<asrwt>0</asrwt>
<pdfrwt beam="1">  1        2 0.15644709E+00 0.10179648E+04</pdfrwt>
<pdfrwt beam="2">  1       -1 0.39193256E-01 0.10179648E+04</pdfrwt>
<totfact> 0.17647312E+02</totfact>
</mgrwt>
</event>
<event>
12    6  0.1530720E-007  0.3365563E+04  0.7818608E-02  0.8146410E-01
          2   -1    0    0  501    0  0.00000000000E+00  0.00000000000E+00  0.13602872931E+04  0.13602872931E+04  0.00000000000E+00 0. -1.
         -1   -1    0    0    0  501 -0.00000000000E+00 -0.00000000000E+00 -0.20817314388E+04  0.20817314388E+04  0.00000000000E+00 0.  1.
         24    2    1    2    0    0 -0.49632184832E+03 -0.96642927674E+03  0.81266108173E+03  0.13591794027E+04  0.81422913910E+02 0.  0.
        254    2    1    2    0    0  0.49632184832E+03  0.96642927674E+03 -0.15341052275E+04  0.20828393292E+04  0.89689458593E+03 0.  0.
         23    2    4    4    0    0  0.52885729394E+03  0.11565950389E+03 -0.67342818274E+03  0.86864945740E+03  0.89326392198E+02 0.  0.
         23    2    4    4    0    0 -0.32535445622E+02  0.85076977285E+03 -0.86067704471E+03  0.12141898718E+04  0.92867151569E+02 0.  0.
          4    1    3    3  502    0 -0.27732809565E+03 -0.61239238809E+03  0.47460947597E+03  0.82291522303E+03  0.00000000000E+00 0. -1.
         -3    1    3    3    0  502 -0.21899375267E+03 -0.35403688866E+03  0.33805160577E+03  0.53626417967E+03  0.00000000000E+00 0.  1.
         11    1    5    5    0    0  0.18271321807E+02 -0.11182696921E+01 -0.56379265566E+02  0.59276583180E+02  0.00000000000E+00 0. -1.
        -11    1    5    5    0    0  0.51058597214E+03  0.11677777358E+03 -0.61704891717E+03  0.80937287422E+03  0.00000000000E+00 0.  1.
          2    1    6    6  503    0 -0.34368594807E+02  0.29666944944E+03 -0.35622706303E+03  0.46485662626E+03  0.00000000000E+00 0.  1.
         -2    1    6    6    0  503  0.18331491854E+01  0.55410032341E+03 -0.50444998168E+03  0.74933324553E+03  0.00000000000E+00 0. -1.
<mgrwt>
<rscale>  0 0.33655626E+04</rscale>
<asrwt>0</asrwt>
<pdfrwt beam="1">  1        2 0.20927497E+00 0.33655626E+04</pdfrwt>
<pdfrwt beam="2">  1       -1 0.32026637E+00 0.33655626E+04</pdfrwt>
<totfact> 0.35167898E-01</totfact>
</mgrwt>
</event>
<event>
12    6  0.1530720E-007  0.2114759E+04  0.7818608E-02  0.8554770E-01
          2   -1    0    0  501    0  0.00000000000E+00  0.00000000000E+00  0.73201469543E+03  0.73201469543E+03  0.00000000000E+00 0. -1.
         -1   -1    0    0    0  501 -0.00000000000E+00 -0.00000000000E+00 -0.15273620128E+04  0.15273620128E+04  0.00000000000E+00 0.  1.
         24    2    1    2    0    0  0.28007434093E+03 -0.84286275193E+02  0.54233408988E+03  0.61999170290E+03  0.68685034659E+02 0.  0.
        254    2    1    2    0    0 -0.28007434093E+03  0.84286275193E+02 -0.13376814072E+04  0.16393850053E+04  0.90146871037E+03 0.  0.
         23    2    4    4    0    0 -0.45634215695E+03 -0.17396117058E+03 -0.11732428034E+04  0.12741185777E+04  0.91481262573E+02 0.  0.
         23    2    4    4    0    0  0.17626781603E+03  0.25824744577E+03 -0.16443860385E+03  0.36526642757E+03  0.92830073023E+02 0.  0.
          2    1    3    3  502    0  0.15746669926E+03 -0.13010799640E+02  0.30555212190E+03  0.34398712400E+03  0.00000000000E+00 0. -1.
         -1    1    3    3    0  502  0.12260764167E+03 -0.71275475553E+02  0.23678196798E+03  0.27600457890E+03  0.00000000000E+00 0.  1.
         11    1    5    5    0    0 -0.39526712779E+03 -0.11443379117E+03 -0.98058970626E+03  0.10634318816E+04  0.00000000000E+00 0. -1.
        -11    1    5    5    0    0 -0.61075029166E+02 -0.59527379404E+02 -0.19265309712E+03  0.21068669610E+03  0.00000000000E+00 0.  1.
          4    1    6    6  503    0  0.26095546208E+02  0.95336969119E+02 -0.20198600584E+02  0.10088656342E+03  0.00000000000E+00 0.  1.
         -4    1    6    6    0  503  0.15017226982E+03  0.16291047665E+03 -0.14424000326E+03  0.26437986415E+03  0.00000000000E+00 0. -1.
<mgrwt>
<rscale>  0 0.21147590E+04</rscale>
<asrwt>0</asrwt>
<pdfrwt beam="1">  1        2 0.11261765E+00 0.21147590E+04</pdfrwt>
<pdfrwt beam="2">  1       -1 0.23497877E+00 0.21147590E+04</pdfrwt>
<totfact> 0.35563017E+00</totfact>
</mgrwt>
</event>
<event>
12    6  0.1530720E-007  0.2295234E+04  0.7818608E-02  0.8479803E-01
         -1   -1    0    0    0  501 -0.00000000000E+00  0.00000000000E+00  0.10987095245E+04  0.10987095245E+04  0.00000000000E+00 0.  1.
          2   -1    0    0  501    0  0.00000000000E+00 -0.00000000000E+00 -0.11987017784E+04  0.11987017784E+04  0.00000000000E+00 0. -1.
         24    2    1    2    0    0 -0.50186119793E+03  0.37204769207E+03  0.71062126029E+03  0.94943655937E+03  0.78505143359E+02 0.  0.
        254    2    1    2    0    0  0.50186119793E+03 -0.37204769207E+03 -0.81061351417E+03  0.13479747436E+04  0.87730125542E+03 0.  0.
         23    2    4    4    0    0  0.19884574178E+03 -0.60117514472E+03 -0.30377272114E+03  0.70802786899E+03  0.89857740348E+02 0.  0.
         23    2    4    4    0    0  0.30301545615E+03  0.22912745265E+03 -0.50684079303E+03  0.63994687457E+03  0.91250515463E+02 0.  0.
          4    1    3    3  502    0 -0.37555953456E+02  0.43540140989E+02  0.96987055761E+02  0.11275053216E+03  0.00000000000E+00 0. -1.
         -3    1    3    3    0  502 -0.46430524447E+03  0.32850755108E+03  0.61363420453E+03  0.83668602721E+03  0.00000000000E+00 0.  1.
         11    1    5    5    0    0  0.14744010076E+03 -0.30879194009E+03 -0.17656789701E+03  0.38505488937E+03  0.00000000000E+00 0. -1.
        -11    1    5    5    0    0  0.51405641023E+02 -0.29238320463E+03 -0.12720482413E+03  0.32297297961E+03  0.00000000000E+00 0.  1.
          4    1    6    6  503    0  0.29202928176E+03  0.23088344679E+03 -0.50678170699E+03  0.62882109216E+03  0.00000000000E+00 0. -1.
         -4    1    6    6    0  503  0.10986174385E+02 -0.17559941353E+01 -0.59086035877E-01  0.11125782408E+02  0.00000000000E+00 0.  1.
<mgrwt>
<rscale>  0 0.22952342E+04</rscale>
<asrwt>0</asrwt>
<pdfrwt beam="1">  1        2 0.18441566E+00 0.22952342E+04</pdfrwt>
<pdfrwt beam="2">  1       -1 0.16903224E+00 0.22952342E+04</pdfrwt>
<totfact> 0.49071514E+00</totfact>
</mgrwt>
</event>
<event>
12    6  0.1530720E-007  0.2133858E+04  0.7818608E-02  0.8546474E-01
          2   -1    0    0  501    0  0.00000000000E+00  0.00000000000E+00  0.27184512317E+04  0.27184512317E+04  0.00000000000E+00 0. -1.
         -1   -1    0    0    0  501 -0.00000000000E+00 -0.00000000000E+00 -0.41874484589E+03  0.41874484589E+03  0.00000000000E+00 0.  1.
         24    2    1    2    0    0 -0.11008277164E+03  0.68891873164E+03  0.17424532253E+03  0.72364311346E+03  0.81059779295E+02 0.  0.
        254    2    1    2    0    0  0.11008277164E+03 -0.68891873164E+03  0.21254610633E+04  0.24135529641E+04  0.90604963648E+03 0.  0.
         23    2    4    4    0    0 -0.34741185013E+03 -0.36449550029E+03  0.14086538029E+04  0.14989020938E+04  0.94074369788E+02 0.  0.
         23    2    4    4    0    0  0.45749462177E+03 -0.32442323135E+03  0.71680726036E+03  0.91465087031E+03  0.90674164300E+02 0.  0.
          4    1    3    3  502    0  0.73901757061E+01  0.63960260381E+02  0.32543625983E+02  0.72143032907E+02  0.00000000000E+00 0. -1.
         -3    1    3    3    0  502 -0.11747294735E+03  0.62495847126E+03  0.14170169654E+03  0.65150008055E+03  0.00000000000E+00 0.  1.
         11    1    5    5    0    0 -0.35302087404E+03 -0.35384798929E+03  0.13833966616E+04  0.14709243558E+04  0.00000000000E+00 0. -1.
        -11    1    5    5    0    0  0.56090239146E+01 -0.10647510995E+02  0.25257141325E+02  0.27977738071E+02  0.00000000000E+00 0.  1.
          3    1    6    6  503    0  0.21421929905E+03 -0.15831887548E+03  0.41325052117E+03  0.49166123263E+03  0.00000000000E+00 0. -1.
         -3    1    6    6    0  503  0.24327532272E+03 -0.16610435587E+03  0.30355673918E+03  0.42298963768E+03  0.00000000000E+00 0.  1.
<mgrwt>
<rscale>  0 0.21338580E+04</rscale>
<asrwt>0</asrwt>
<pdfrwt beam="1">  1        2 0.41822326E+00 0.21338580E+04</pdfrwt>
<pdfrwt beam="2">  1       -1 0.64422286E-01 0.21338580E+04</pdfrwt>
<totfact> 0.66204070E+00</totfact>
</mgrwt>
</event>
<event>
12    6  0.1530720E-007  0.3005203E+04  0.7818608E-02  0.8242247E-01
         -1   -1    0    0    0  501 -0.00000000000E+00  0.00000000000E+00  0.17725042791E+04  0.17725042791E+04  0.00000000000E+00 0.  1.
          2   -1    0    0  501    0  0.00000000000E+00 -0.00000000000E+00 -0.12737973659E+04  0.12737973659E+04  0.00000000000E+00 0. -1.
         24    2    1    2    0    0  0.91817810649E+03 -0.90588310231E+03 -0.22929317542E+03  0.13121723496E+04  0.74469352506E+02 0.  0.
        254    2    1    2    0    0 -0.91817810649E+03  0.90588310231E+03  0.72800008857E+03  0.17341292954E+04  0.90196732421E+03 0.  0.
         23    2    4    4    0    0 -0.65726653073E+03  0.21972494758E+03  0.41698620771E+01  0.69908428899E+03  0.91777504633E+02 0.  0.
         23    2    4    4    0    0 -0.26091157575E+03  0.68615815474E+03  0.72383022649E+03  0.10350450064E+04  0.92196013192E+02 0.  0.
          2    1    3    3  502    0  0.56120176491E+03 -0.59535449419E+03 -0.12474438605E+03  0.82762041815E+03  0.00000000000E+00 0. -1.
         -1    1    3    3    0  502  0.35697634158E+03 -0.31052860813E+03 -0.10454878937E+03  0.48455193145E+03  0.00000000000E+00 0.  1.
         11    1    5    5    0    0 -0.71580584054E+02  0.42589424407E+02 -0.23589497885E+02  0.86568490199E+02  0.00000000000E+00 0.  1.
        -11    1    5    5    0    0 -0.58568594668E+03  0.17713552317E+03  0.27759359962E+02  0.61251579879E+03  0.00000000000E+00 0. -1.
          1    1    6    6  503    0 -0.14289606565E+03  0.33306820046E+03  0.29623971467E+03  0.46809366614E+03  0.00000000000E+00 0. -1.
         -1    1    6    6    0  503 -0.11801551010E+03  0.35308995428E+03  0.42759051182E+03  0.56695134027E+03  0.00000000000E+00 0.  1.
<mgrwt>
<rscale>  0 0.30052030E+04</rscale>
<asrwt>0</asrwt>
<pdfrwt beam="1">  1        2 0.19596883E+00 0.30052030E+04</pdfrwt>
<pdfrwt beam="2">  1       -1 0.27269296E+00 0.30052030E+04</pdfrwt>
<totfact> 0.82843208E-01</totfact>
</mgrwt>
</event>
<event>
12    6  0.1530720E-007  0.1438379E+04  0.7818608E-02  0.8926497E-01
         -1   -1    0    0    0  501 -0.00000000000E+00  0.00000000000E+00  0.22085321183E+03  0.22085321183E+03  0.00000000000E+00 0.  1.
          2   -1    0    0  501    0  0.00000000000E+00 -0.00000000000E+00 -0.23419781861E+04  0.23419781861E+04  0.00000000000E+00 0. -1.
         24    2    1    2    0    0 -0.29197492431E+03  0.15196722925E+03 -0.12791494210E+03  0.36092717881E+03  0.74584185982E+02 0.  0.
        254    2    1    2    0    0  0.29197492431E+03 -0.15196722925E+03 -0.19932100322E+04  0.22019042191E+04  0.87587245796E+03 0.  0.
         23    2    4    4    0    0 -0.30393641378E+03 -0.23590935481E+02 -0.62585456967E+03  0.70219611845E+03  0.91932423737E+02 0.  0.
         23    2    4    4    0    0  0.59591133810E+03 -0.12837629377E+03 -0.13673554625E+04  0.14997081007E+04  0.88727846119E+02 0.  0.
          4    1    3    3  502    0 -0.36941844084E+02  0.47038476214E+02 -0.85146824687E+01  0.60413722832E+02  0.00000000000E+00 0. -1.
         -3    1    3    3    0  502 -0.25503308023E+03  0.10492875304E+03 -0.11940025963E+03  0.30051345598E+03  0.00000000000E+00 0.  1.
         11    1    5    5    0    0 -0.21706754359E+02 -0.17344717241E+02 -0.11727073044E+03  0.12051741210E+03  0.00000000000E+00 0.  1.
        -11    1    5    5    0    0 -0.28222965943E+03 -0.62462182397E+01 -0.50858383923E+03  0.58167870635E+03  0.00000000000E+00 0. -1.
          3    1    6    6  503    0  0.53969086713E+03 -0.92359471620E+02 -0.12506072865E+04  0.13652161328E+04  0.00000000000E+00 0. -1.
         -3    1    6    6    0  503  0.56220470965E+02 -0.36016822152E+02 -0.11674817599E+03  0.13449196790E+03  0.00000000000E+00 0.  1.
<mgrwt>
<rscale>  0 0.14383788E+04</rscale>
<asrwt>0</asrwt>
<pdfrwt beam="1">  1        2 0.36030433E+00 0.14383788E+04</pdfrwt>
<pdfrwt beam="2">  1       -1 0.33977418E-01 0.14383788E+04</pdfrwt>
<totfact> 0.38902318E+01</totfact>
</mgrwt>
</event>
<event>
12    6  0.1530720E-007  0.1464015E+04  0.7818608E-02  0.8908742E-01
          2   -1    0    0  501    0  0.00000000000E+00  0.00000000000E+00  0.33097200698E+04  0.33097200698E+04  0.00000000000E+00 0. -1.
         -1   -1    0    0    0  501 -0.00000000000E+00 -0.00000000000E+00 -0.16189729887E+03  0.16189729887E+03  0.00000000000E+00 0.  1.
         24    2    1    2    0    0  0.33731523664E+03 -0.16883650055E+03  0.15044941232E+04  0.15530980664E+04  0.79521722905E+02 0.  0.
        254    2    1    2    0    0 -0.33731523664E+03  0.16883650055E+03  0.16433286478E+04  0.19185193023E+04  0.91536874310E+03 0.  0.
         23    2    4    4    0    0  0.28906666335E+03 -0.48079237801E+02  0.39418291624E+03  0.50175818324E+03  0.10251806683E+03 0.  0.
         23    2    4    4    0    0 -0.62638189998E+03  0.21691573836E+03  0.12491457316E+04  0.14167611191E+04  0.86257101968E+02 0.  0.
          2    1    3    3  502    0  0.25292995397E+03 -0.16251156088E+03  0.11962203538E+04  0.12334207327E+04  0.00000000000E+00 0. -1.
         -1    1    3    3    0  502  0.84385282667E+02 -0.63249396724E+01  0.30827376936E+03  0.31967733368E+03  0.00000000000E+00 0.  1.
         11    1    5    5    0    0  0.27672456940E+03 -0.19870657439E+02  0.37076336757E+03  0.46307321783E+03  0.00000000000E+00 0.  1.
        -11    1    5    5    0    0  0.12342093945E+02 -0.28208580362E+02  0.23419548668E+02  0.38684965411E+02  0.00000000000E+00 0. -1.
          3    1    6    6  503    0 -0.10759188742E+03  0.65098823838E+02  0.19359206077E+03  0.23085007493E+03  0.00000000000E+00 0. -1.
         -3    1    6    6    0  503 -0.51879001257E+03  0.15181691452E+03  0.10555536708E+04  0.11859110441E+04  0.00000000000E+00 0.  1.
<mgrwt>
<rscale>  0 0.14640147E+04</rscale>
<asrwt>0</asrwt>
<pdfrwt beam="1">  1        2 0.50918765E+00 0.14640147E+04</pdfrwt>
<pdfrwt beam="2">  1       -1 0.24907279E-01 0.14640147E+04</pdfrwt>
<totfact> 0.17273972E+01</totfact>
</mgrwt>
</event>
<event>
12    6  0.1530720E-007  0.2359035E+04  0.7818608E-02  0.8455001E-01
          2   -1    0    0  501    0  0.00000000000E+00  0.00000000000E+00  0.12856162308E+04  0.12856162308E+04  0.00000000000E+00 0. -1.
         -1   -1    0    0    0  501 -0.00000000000E+00 -0.00000000000E+00 -0.10821750827E+04  0.10821750827E+04  0.00000000000E+00 0.  1.
         24    2    1    2    0    0  0.51036350178E+03 -0.14616479409E+03  0.93310623928E+03  0.10764719985E+04  0.79181177080E+02 0.  0.
        254    2    1    2    0    0 -0.51036350178E+03  0.14616479409E+03 -0.72966509119E+03  0.12913193149E+04  0.92372039971E+03 0.  0.
         23    2    4    4    0    0 -0.14564385491E+03  0.42039190810E+03 -0.36098378099E+02  0.45606829464E+03  0.93561250538E+02 0.  0.
         23    2    4    4    0    0 -0.36471964687E+03 -0.27422711401E+03 -0.69356671310E+03  0.83525102029E+03  0.91589030573E+02 0.  0.
          2    1    3    3  502    0  0.28031915153E+03 -0.65443779233E+02  0.57826694843E+03  0.64595230366E+03  0.00000000000E+00 0. -1.
         -3    1    3    3    0  502  0.23004435024E+03 -0.80721014861E+02  0.35483929085E+03  0.43051969485E+03  0.00000000000E+00 0.  1.
         11    1    5    5    0    0 -0.33168640940E+02  0.11090120324E+03 -0.50875607354E+02  0.12644193547E+03  0.00000000000E+00 0. -1.
        -11    1    5    5    0    0 -0.11247521397E+03  0.30949070487E+03  0.14777229255E+02  0.32962635917E+03  0.00000000000E+00 0.  1.
          1    1    6    6  503    0 -0.28226859305E+02 -0.60557256416E+02 -0.99857467646E+02  0.12014762060E+03  0.00000000000E+00 0. -1.
         -1    1    6    6    0  503 -0.33649278756E+03 -0.21366985759E+03 -0.59370924545E+03  0.71510339970E+03  0.00000000000E+00 0.  1.
<mgrwt>
<rscale>  0 0.23590353E+04</rscale>
<asrwt>0</asrwt>
<pdfrwt beam="1">  1        2 0.19778711E+00 0.23590353E+04</pdfrwt>
<pdfrwt beam="2">  1       -1 0.16648847E+00 0.23590353E+04</pdfrwt>
<totfact> 0.45274650E+00</totfact>
</mgrwt>
</event>
<event>
12    6  0.1530720E-007  0.1561382E+04  0.7818608E-02  0.8844630E-01
         -1   -1    0    0    0  501 -0.00000000000E+00  0.00000000000E+00  0.81908420312E+03  0.81908420312E+03  0.00000000000E+00 0.  1.
          2   -1    0    0  501    0  0.00000000000E+00 -0.00000000000E+00 -0.74409714190E+03  0.74409714190E+03  0.00000000000E+00 0. -1.
         24    2    1    2    0    0 -0.41504176559E+03  0.27617073602E+03 -0.21466599887E+03  0.54909664184E+03  0.83040281725E+02 0.  0.
        254    2    1    2    0    0  0.41504176559E+03 -0.27617073602E+03  0.28965306009E+03  0.10140847032E+04  0.83422955317E+03 0.  0.
         23    2    4    4    0    0  0.40141961604E+03 -0.54553219115E+03  0.24270199291E+03  0.72537220221E+03  0.92290273891E+02 0.  0.
         23    2    4    4    0    0  0.13622149554E+02  0.26936145513E+03  0.46951067177E+02  0.28871250096E+03  0.91702502890E+02 0.  0.
          2    1    3    3  502    0 -0.20168359868E+03  0.13792581112E+03 -0.60284243677E+02  0.25166245923E+03  0.00000000000E+00 0. -1.
         -3    1    3    3    0  502 -0.21335816690E+03  0.13824492491E+03 -0.15438175519E+03  0.29743418261E+03  0.00000000000E+00 0.  1.
         11    1    5    5    0    0  0.30152454285E+03 -0.33820397204E+03  0.15032315498E+03  0.47738456989E+03  0.00000000000E+00 0. -1.
        -11    1    5    5    0    0  0.99895073185E+02 -0.20732821911E+03  0.92378837936E+02  0.24798763232E+03  0.00000000000E+00 0.  1.
          3    1    6    6  503    0  0.53021283137E+02  0.16233922741E+03  0.25587201849E+02  0.17268464356E+03  0.00000000000E+00 0. -1.
         -3    1    6    6    0  503 -0.39399133583E+02  0.10702222772E+03  0.21363865328E+02  0.11602785741E+03  0.00000000000E+00 0.  1.
<mgrwt>
<rscale>  0 0.15613817E+04</rscale>
<asrwt>0</asrwt>
<pdfrwt beam="1">  1        2 0.11447648E+00 0.15613817E+04</pdfrwt>
<pdfrwt beam="2">  1       -1 0.12601295E+00 0.15613817E+04</pdfrwt>
<totfact> 0.22826439E+01</totfact>
</mgrwt>
</event>
<event>
12    6  0.1530720E-007  0.1423941E+04  0.7818608E-02  0.8936669E-01
         -1   -1    0    0    0  501 -0.00000000000E+00  0.00000000000E+00  0.74024092526E+03  0.74024092526E+03  0.00000000000E+00 0.  1.
          2   -1    0    0  501    0  0.00000000000E+00 -0.00000000000E+00 -0.68477940577E+03  0.68477940577E+03  0.00000000000E+00 0. -1.
         24    2    1    2    0    0  0.21885291117E+02  0.42577507934E+03 -0.11589161784E+02  0.43389008813E+03  0.79767886727E+02 0.  0.
        254    2    1    2    0    0 -0.21885291117E+02 -0.42577507934E+03  0.67050681283E+02  0.99113024290E+03  0.89223314239E+03 0.  0.
         23    2    4    4    0    0  0.33254269492E+03 -0.21541798302E+03 -0.23698293545E+03  0.47080055124E+03  0.92210064529E+02 0.  0.
         23    2    4    4    0    0 -0.35442798603E+03 -0.21035709632E+03  0.30403361673E+03  0.52032969167E+03  0.91854464607E+02 0.  0.
          2    1    3    3  502    0  0.94164231639E+01  0.23208540383E+01 -0.30491621562E+01  0.10166256859E+02  0.00000000000E+00 0. -1.
         -1    1    3    3    0  502  0.12468867953E+02  0.42345422530E+03 -0.85399996274E+01  0.42372383127E+03  0.00000000000E+00 0.  1.
         11    1    5    5    0    0  0.11382408753E+03 -0.97541434563E+02 -0.13667635035E+03  0.20285630161E+03  0.00000000000E+00 0. -1.
        -11    1    5    5    0    0  0.21871860739E+03 -0.11787654845E+03 -0.10030658510E+03  0.26794424962E+03  0.00000000000E+00 0.  1.
          3    1    6    6  503    0 -0.29615077206E+02 -0.18898519551E+02  0.65047770382E+02  0.73928474019E+02  0.00000000000E+00 0. -1.
         -3    1    6    6    0  503 -0.32481290883E+03 -0.19145857677E+03  0.23898584635E+03  0.44640121765E+03  0.00000000000E+00 0.  1.
<mgrwt>
<rscale>  0 0.14239406E+04</rscale>
<asrwt>0</asrwt>
<pdfrwt beam="1">  1        2 0.10535068E+00 0.14239406E+04</pdfrwt>
<pdfrwt beam="2">  1       -1 0.11388322E+00 0.14239406E+04</pdfrwt>
<totfact> 0.32866395E+01</totfact>
</mgrwt>
</event>
<event>
12    6  0.1530720E-007  0.1305797E+04  0.7818608E-02  0.9024981E-01
         -1   -1    0    0    0  501 -0.00000000000E+00  0.00000000000E+00  0.34983064180E+03  0.34983064180E+03  0.00000000000E+00 0.  1.
          2   -1    0    0  501    0  0.00000000000E+00 -0.00000000000E+00 -0.12185214422E+04  0.12185214422E+04  0.00000000000E+00 0. -1.
         24    2    1    2    0    0  0.11660997036E+03  0.67465714398E+02  0.13971362730E+03  0.20965770317E+03  0.79290270775E+02 0.  0.
        254    2    1    2    0    0 -0.11660997036E+03 -0.67465714398E+02 -0.10084044277E+04  0.13586943808E+04  0.90056727840E+03 0.  0.
         23    2    4    4    0    0 -0.53925174690E+02 -0.30891298950E+03 -0.10547585504E+02  0.32610137427E+03  0.88857724469E+02 0.  0.
         23    2    4    4    0    0 -0.62684795671E+02  0.24144727510E+03 -0.99785684220E+03  0.10325930066E+04  0.91125569616E+02 0.  0.
          4    1    3    3  502    0  0.95814121135E+01 -0.13935141901E+02  0.17449098656E+01  0.17001069035E+02  0.00000000000E+00 0. -1.
         -3    1    3    3    0  502  0.10702855825E+03  0.81400856300E+02  0.13796871743E+03  0.19265663413E+03  0.00000000000E+00 0.  1.
         11    1    5    5    0    0 -0.24934893210E+02 -0.25281740328E+03  0.22124313989E+02  0.25500563439E+03  0.00000000000E+00 0. -1.
        -11    1    5    5    0    0 -0.28990281480E+02 -0.56095586220E+02 -0.32671899493E+02  0.71095739887E+02  0.00000000000E+00 0.  1.
          4    1    6    6  503    0 -0.67574533054E+02  0.14865495120E+03 -0.75748553054E+03  0.77488640523E+03  0.00000000000E+00 0. -1.
         -4    1    6    6    0  503  0.48897373830E+01  0.92792323901E+02 -0.24037131166E+03  0.25770660134E+03  0.00000000000E+00 0.  1.
<mgrwt>
<rscale>  0 0.13057965E+04</rscale>
<asrwt>0</asrwt>
<pdfrwt beam="1">  1        2 0.18746484E+00 0.13057965E+04</pdfrwt>
<pdfrwt beam="2">  1       -1 0.53820099E-01 0.13057965E+04</pdfrwt>
<totfact> 0.71859993E+01</totfact>
</mgrwt>
</event>
<event>
12    6  0.1530720E-007  0.1432211E+04  0.7818608E-02  0.8930827E-01
         -1   -1    0    0    0  501 -0.00000000000E+00  0.00000000000E+00  0.13155683128E+04  0.13155683128E+04  0.00000000000E+00 0.  1.
          2   -1    0    0  501    0  0.00000000000E+00 -0.00000000000E+00 -0.38979897100E+03  0.38979897100E+03  0.00000000000E+00 0. -1.
         24    2    1    2    0    0 -0.27936771866E+03  0.10888487485E+03  0.64834662362E+03  0.72022560902E+03  0.92029046123E+02 0.  0.
        254    2    1    2    0    0  0.27936771866E+03 -0.10888487485E+03  0.27742271818E+03  0.98514167478E+03  0.89645887615E+03 0.  0.
         23    2    4    4    0    0 -0.13012528122E+02  0.26866138990E+02  0.54670765264E+03  0.55526691124E+03  0.92417368208E+02 0.  0.
         23    2    4    4    0    0  0.29238024678E+03 -0.13575101384E+03 -0.26928493446E+03  0.42987476354E+03  0.91451571517E+02 0.  0.
          2    1    3    3  502    0 -0.34495616355E+02 -0.84226857978E+01  0.13382658977E+03  0.13845737725E+03  0.00000000000E+00 0. -1.
         -1    1    3    3    0  502 -0.24487210230E+03  0.11730756065E+03  0.51452003385E+03  0.58176823178E+03  0.00000000000E+00 0.  1.
         11    1    5    5    0    0 -0.27429801371E+02 -0.10520215974E+02  0.44473193365E+03  0.44570120233E+03  0.00000000000E+00 0. -1.
        -11    1    5    5    0    0  0.14417273248E+02  0.37386354964E+02  0.10197571899E+03  0.10956570891E+03  0.00000000000E+00 0.  1.
          1    1    6    6  503    0  0.24335959166E+03 -0.10815788416E+03 -0.26123392809E+03  0.37304850079E+03  0.00000000000E+00 0. -1.
         -1    1    6    6    0  503  0.49020655116E+02 -0.27593129686E+02 -0.80510063727E+01  0.56826262744E+02  0.00000000000E+00 0.  1.
<mgrwt>
<rscale>  0 0.14322111E+04</rscale>
<asrwt>0</asrwt>
<pdfrwt beam="1">  1        2 0.59969073E-01 0.14322111E+04</pdfrwt>
<pdfrwt beam="2">  1       -1 0.20239512E+00 0.14322111E+04</pdfrwt>
<totfact> 0.13180064E+01</totfact>
</mgrwt>
</event>
<event>
12    6  0.1530720E-007  0.1691323E+04  0.7818608E-02  0.8766329E-01
         -1   -1    0    0    0  501 -0.00000000000E+00  0.00000000000E+00  0.13627739275E+04  0.13627739275E+04  0.00000000000E+00 0.  1.
          2   -1    0    0  501    0  0.00000000000E+00 -0.00000000000E+00 -0.52477047205E+03  0.52477047205E+03  0.00000000000E+00 0. -1.
         24    2    1    2    0    0  0.69582266996E+02 -0.23167857687E+03  0.98412768503E+03  0.10165405080E+04  0.79565375798E+02 0.  0.
        254    2    1    2    0    0 -0.69582266996E+02  0.23167857687E+03 -0.14612422955E+03  0.87100389160E+03  0.82388035167E+03 0.  0.
         23    2    4    4    0    0 -0.18851947884E+03  0.48911665828E+03 -0.19963693419E+03  0.56855468873E+03  0.92869958957E+02 0.  0.
         23    2    4    4    0    0  0.11893721185E+03 -0.25743808141E+03  0.53512704638E+02  0.30244920287E+03  0.90506820945E+02 0.  0.
          4    1    3    3  502    0  0.20178931787E+02 -0.16096850129E+02  0.46532886202E+02  0.53212849674E+02  0.00000000000E+00 0. -1.
         -3    1    3    3    0  502  0.49403335209E+02 -0.21558172675E+03  0.93759479883E+03  0.96332765829E+03  0.00000000000E+00 0.  1.
         11    1    5    5    0    0 -0.75621800483E+02  0.12164876687E+03 -0.21409999291E+02  0.14482909673E+03  0.00000000000E+00 0.  1.
        -11    1    5    5    0    0 -0.11289767836E+03  0.36746789141E+03 -0.17822693490E+03  0.42372559200E+03  0.00000000000E+00 0. -1.
          2    1    6    6  503    0  0.51737174527E+02 -0.16200155782E+03  0.71254622556E+02  0.18438671644E+03  0.00000000000E+00 0. -1.
         -2    1    6    6    0  503  0.67200037320E+02 -0.95436523590E+02 -0.17741917918E+02  0.11806248643E+03  0.00000000000E+00 0.  1.
<mgrwt>
<rscale>  0 0.16913232E+04</rscale>
<asrwt>0</asrwt>
<pdfrwt beam="1">  1        2 0.80733919E-01 0.16913232E+04</pdfrwt>
<pdfrwt beam="2">  1       -1 0.20965753E+00 0.16913232E+04</pdfrwt>
<totfact> 0.81832507E+00</totfact>
</mgrwt>
</event>
<event>
12    6  0.1530720E-007  0.2392783E+04  0.7818608E-02  0.8442210E-01
         -1   -1    0    0    0  501 -0.00000000000E+00  0.00000000000E+00  0.65278128648E+03  0.65278128648E+03  0.00000000000E+00 0.  1.
          2   -1    0    0  501    0  0.00000000000E+00 -0.00000000000E+00 -0.21926989714E+04  0.21926989714E+04  0.00000000000E+00 0. -1.
         24    2    1    2    0    0  0.67220066552E+03 -0.66034321809E+03 -0.11530816183E+04  0.14914211902E+04  0.82662251614E+02 0.  0.
        254    2    1    2    0    0 -0.67220066552E+03  0.66034321809E+03 -0.38683606665E+03  0.13540590677E+04  0.89214736220E+03 0.  0.
         23    2    4    4    0    0 -0.18792226638E+03  0.75491833875E+03 -0.32533484628E+03  0.84805021173E+03  0.90166085804E+02 0.  0.
         23    2    4    4    0    0 -0.48427839914E+03 -0.94575120654E+02 -0.61501220372E+02  0.50600885594E+03  0.93768549456E+02 0.  0.
          2    1    3    3  502    0  0.48362973729E+03 -0.45082414408E+03 -0.75394072109E+03  0.10027795085E+04  0.00000000000E+00 0. -1.
         -1    1    3    3    0  502  0.18857092823E+03 -0.20951907401E+03 -0.39914089719E+03  0.48864168176E+03  0.00000000000E+00 0.  1.
         11    1    5    5    0    0 -0.16378797280E+03  0.72241410207E+03 -0.29443182985E+03  0.79711902332E+03  0.00000000000E+00 0. -1.
        -11    1    5    5    0    0 -0.24134293580E+02  0.32504236674E+02 -0.30903016425E+02  0.50931188407E+02  0.00000000000E+00 0.  1.
          1    1    6    6  503    0 -0.39168565018E+03 -0.10338622703E+03 -0.75118613450E+02  0.41200627007E+03  0.00000000000E+00 0. -1.
         -1    1    6    6    0  503 -0.92592748962E+02  0.88111063759E+01  0.13617393078E+02  0.94002585870E+02  0.00000000000E+00 0.  1.
<mgrwt>
<rscale>  0 0.23927832E+04</rscale>
<asrwt>0</asrwt>
<pdfrwt beam="1">  1        2 0.33733830E+00 0.23927832E+04</pdfrwt>
<pdfrwt beam="2">  1       -1 0.10042789E+00 0.23927832E+04</pdfrwt>
<totfact> 0.50361677E+00</totfact>
</mgrwt>
</event>
<event>
12    6  0.1530720E-007  0.1686490E+04  0.7818608E-02  0.8769107E-01
          2   -1    0    0  501    0  0.00000000000E+00  0.00000000000E+00  0.10168583484E+04  0.10168583484E+04  0.00000000000E+00 0. -1.
         -3   -1    0    0    0  501 -0.00000000000E+00 -0.00000000000E+00 -0.69927376109E+03  0.69927376109E+03  0.00000000000E+00 0.  1.
         24    2    1    2    0    0 -0.23168473230E+03 -0.27798099194E+03 -0.36125252588E+03  0.51727097177E+03  0.78196059525E+02 0.  0.
        254    2    1    2    0    0  0.23168473230E+03  0.27798099194E+03  0.67883711315E+03  0.11988611377E+04  0.91950908325E+03 0.  0.
         23    2    4    4    0    0  0.37153822819E+03  0.18840400997E+03  0.84514749137E+03  0.94646925807E+03  0.89403849587E+02 0.  0.
         23    2    4    4    0    0 -0.13985349589E+03  0.89576981963E+02 -0.16631037822E+03  0.25239187960E+03  0.91975447680E+02 0.  0.
          2    1    3    3  502    0 -0.20521280826E+03 -0.25913541262E+03 -0.29315692249E+03  0.44181946534E+03  0.00000000000E+00 0. -1.
         -1    1    3    3    0  502 -0.26471924045E+02 -0.18845579313E+02 -0.68095603390E+02  0.75451506435E+02  0.00000000000E+00 0.  1.
         11    1    5    5    0    0  0.27177013537E+03  0.13563849132E+03  0.69635551590E+03  0.75971561214E+03  0.00000000000E+00 0. -1.
        -11    1    5    5    0    0  0.99768092818E+02  0.52765518650E+02  0.14879197547E+03  0.18675364593E+03  0.00000000000E+00 0.  1.
          4    1    6    6  503    0 -0.25247098494E+02  0.26922243343E+01  0.78029686617E+01  0.26562198218E+02  0.00000000000E+00 0.  1.
         -4    1    6    6    0  503 -0.11460639739E+03  0.86884757628E+02 -0.17411334688E+03  0.22582968138E+03  0.00000000000E+00 0. -1.
<mgrwt>
<rscale>  0 0.16864903E+04</rscale>
<asrwt>0</asrwt>
<pdfrwt beam="1">  1        2 0.15643974E+00 0.16864903E+04</pdfrwt>
<pdfrwt beam="2">  1       -3 0.10758058E+00 0.16864903E+04</pdfrwt>
<totfact> 0.10902742E+01</totfact>
</mgrwt>
</event>
<event>
12    6  0.1530720E-007  0.1734733E+04  0.7818608E-02  0.8741799E-01
          2   -1    0    0  501    0  0.00000000000E+00  0.00000000000E+00  0.28027039340E+04  0.28027039340E+04  0.00000000000E+00 0. -1.
         -1   -1    0    0    0  501 -0.00000000000E+00 -0.00000000000E+00 -0.26842811368E+03  0.26842811368E+03  0.00000000000E+00 0.  1.
         24    2    1    2    0    0  0.96900839786E+02  0.23005540656E+03  0.19253644202E+04  0.19430357608E+04  0.77746732056E+02 0.  0.
        254    2    1    2    0    0 -0.96900839786E+02 -0.23005540656E+03  0.60891140018E+03  0.11280962869E+04  0.91624935279E+03 0.  0.
         23    2    4    4    0    0  0.26505741774E+03 -0.26550732075E+03 -0.29795245541E+02  0.38731661470E+03  0.91525031007E+02 0.  0.
         23    2    4    4    0    0 -0.36195825752E+03  0.35451914190E+02  0.63870664572E+03  0.74077967223E+03  0.92399811129E+02 0.  0.
          4    1    3    3  502    0  0.94199662592E+02  0.23624020072E+03  0.18897676150E+04  0.19068048268E+04  0.00000000000E+00 0. -1.
         -3    1    3    3    0  502  0.27011771942E+01 -0.61847941590E+01  0.35596805192E+02  0.36230933978E+02  0.00000000000E+00 0.  1.
         11    1    5    5    0    0  0.42989192830E+02 -0.76997024988E+01  0.97941382621E+01  0.44758030152E+02  0.00000000000E+00 0.  1.
        -11    1    5    5    0    0  0.22206822491E+03 -0.25780761825E+03 -0.39589383803E+02  0.34255858455E+03  0.00000000000E+00 0. -1.
          2    1    6    6  503    0 -0.10322242810E+03  0.51443390809E+02  0.17647245615E+03  0.21081702944E+03  0.00000000000E+00 0.  1.
         -2    1    6    6    0  503 -0.25873582942E+03 -0.15991476619E+02  0.46223418957E+03  0.52996264279E+03  0.00000000000E+00 0. -1.
<mgrwt>
<rscale>  0 0.17347329E+04</rscale>
<asrwt>0</asrwt>
<pdfrwt beam="1">  1        2 0.43118520E+00 0.17347329E+04</pdfrwt>
<pdfrwt beam="2">  1       -1 0.41296635E-01 0.17347329E+04</pdfrwt>
<totfact> 0.14341800E+01</totfact>
</mgrwt>
</event>
<event>
12    6  0.1530720E-007  0.2087714E+04  0.7818608E-02  0.8566675E-01
          2   -1    0    0  501    0  0.00000000000E+00  0.00000000000E+00  0.10712342283E+04  0.10712342283E+04  0.00000000000E+00 0. -1.
         -1   -1    0    0    0  501 -0.00000000000E+00 -0.00000000000E+00 -0.10171796011E+04  0.10171796011E+04  0.00000000000E+00 0.  1.
         24    2    1    2    0    0  0.69972501156E+03  0.28376692786E+03  0.39969967156E+03  0.85820508993E+03  0.81347328091E+02 0.  0.
        254    2    1    2    0    0 -0.69972501156E+03 -0.28376692786E+03 -0.34564504430E+03  0.12302087395E+04  0.90763664806E+03 0.  0.
         23    2    4    4    0    0 -0.67360554274E+03 -0.11592920885E+03  0.14344711992E+03  0.70439049376E+03  0.91678147921E+02 0.  0.
         23    2    4    4    0    0 -0.26119468820E+02 -0.16783771901E+03 -0.48909216422E+03  0.52581824573E+03  0.91771214785E+02 0.  0.
          4    1    3    3  502    0  0.60070736463E+03  0.23663200017E+03  0.37184473168E+03  0.74505875333E+03  0.00000000000E+00 0. -1.
         -3    1    3    3    0  502  0.99017646928E+02  0.47134927688E+02  0.27854939878E+02  0.11314633660E+03  0.00000000000E+00 0.  1.
         11    1    5    5    0    0 -0.57834548922E+03 -0.93028726890E+02  0.15445377831E+03  0.60580014737E+03  0.00000000000E+00 0.  1.
        -11    1    5    5    0    0 -0.95260053525E+02 -0.22900481956E+02 -0.11006658385E+02  0.98590346384E+02  0.00000000000E+00 0. -1.
          2    1    6    6  503    0  0.17893685572E+02 -0.10485654242E+03 -0.36199913961E+03  0.37730419498E+03  0.00000000000E+00 0.  1.
         -2    1    6    6    0  503 -0.44013154393E+02 -0.62981176592E+02 -0.12709302461E+03  0.14851405075E+03  0.00000000000E+00 0. -1.
<mgrwt>
<rscale>  0 0.20877142E+04</rscale>
<asrwt>0</asrwt>
<pdfrwt beam="1">  1        2 0.16480527E+00 0.20877142E+04</pdfrwt>
<pdfrwt beam="2">  1       -1 0.15648917E+00 0.20877142E+04</pdfrwt>
<totfact> 0.74235014E+00</totfact>
</mgrwt>
</event>
<event>
12    6  0.1530720E-007  0.3022403E+04  0.7818608E-02  0.8237362E-01
         -1   -1    0    0    0  501 -0.00000000000E+00  0.00000000000E+00  0.10214611144E+04  0.10214611144E+04  0.00000000000E+00 0.  1.
          2   -1    0    0  501    0  0.00000000000E+00 -0.00000000000E+00 -0.22357485232E+04  0.22357485232E+04  0.00000000000E+00 0. -1.
         24    2    1    2    0    0 -0.49878565859E+03 -0.24828334785E+03  0.80217302819E+03  0.98078471491E+03  0.89584238592E+02 0.  0.
        254    2    1    2    0    0  0.49878565859E+03  0.24828334785E+03 -0.20164604370E+04  0.22764249227E+04  0.89753327548E+03 0.  0.
         23    2    4    4    0    0 -0.16524789935E+03 -0.12197333225E+03 -0.19784411508E+03  0.30331254423E+03  0.10330461555E+03 0.  0.
         23    2    4    4    0    0  0.66403355794E+03  0.37025668010E+03 -0.18186163219E+04  0.19731123785E+04  0.88184785668E+02 0.  0.
          4    1    3    3  502    0 -0.84949769915E+02 -0.62627440414E+02  0.10368642364E+03  0.14795112081E+03  0.00000000000E+00 0. -1.
         -3    1    3    3    0  502 -0.41383588868E+03 -0.18565590744E+03  0.69848660455E+03  0.83283359410E+03  0.00000000000E+00 0.  1.
         11    1    5    5    0    0 -0.71323489462E+02 -0.90574015544E+02 -0.16019100657E+03  0.19736223303E+03  0.00000000000E+00 0.  1.
        -11    1    5    5    0    0 -0.93924409888E+02 -0.31399316706E+02 -0.37653108510E+02  0.10595031120E+03  0.00000000000E+00 0. -1.
          1    1    6    6  503    0  0.28507664948E+03  0.14543130237E+03 -0.87495041712E+03  0.93164220181E+03  0.00000000000E+00 0. -1.
         -1    1    6    6    0  503  0.37895690847E+03  0.22482537774E+03 -0.94366590483E+03  0.10414701767E+04  0.00000000000E+00 0.  1.
<mgrwt>
<rscale>  0 0.30224031E+04</rscale>
<asrwt>0</asrwt>
<pdfrwt beam="1">  1        2 0.34396130E+00 0.30224031E+04</pdfrwt>
<pdfrwt beam="2">  1       -1 0.15714787E+00 0.30224031E+04</pdfrwt>
<totfact> 0.14713259E+00</totfact>
</mgrwt>
</event>
<event>
12    6  0.1530720E-007  0.2397425E+04  0.7818608E-02  0.8440468E-01
          2   -1    0    0  501    0  0.00000000000E+00  0.00000000000E+00  0.11989973257E+04  0.11989973257E+04  0.00000000000E+00 0. -1.
         -1   -1    0    0    0  501 -0.00000000000E+00 -0.00000000000E+00 -0.11984279886E+04  0.11984279886E+04  0.00000000000E+00 0.  1.
         24    2    1    2    0    0  0.29689224442E+03 -0.93555280549E+03 -0.30317176358E+03  0.10303529040E+04  0.79435079098E+02 0.  0.
        254    2    1    2    0    0 -0.29689224442E+03  0.93555280549E+03  0.30374110066E+03  0.13670724104E+04  0.90178947780E+03 0.  0.
         23    2    4    4    0    0  0.23257106620E+03  0.93693384912E+02 -0.10712795102E+03  0.28718358192E+03  0.90167957867E+02 0.  0.
         23    2    4    4    0    0 -0.52946331062E+03  0.84185942058E+03  0.41086905168E+03  0.10798888284E+04  0.91037480452E+02 0.  0.
          4    1    3    3  502    0  0.12111342270E+03 -0.36793633416E+03 -0.16024404284E+03  0.41919417985E+03  0.00000000000E+00 0. -1.
         -3    1    3    3    0  502  0.17577882171E+03 -0.56761647133E+03 -0.14292772074E+03  0.61115872410E+03  0.00000000000E+00 0.  1.
         11    1    5    5    0    0  0.11419691358E+03  0.70932116112E+02 -0.14600945051E+02  0.13522384317E+03  0.00000000000E+00 0.  1.
        -11    1    5    5    0    0  0.11837415262E+03  0.22761268800E+02 -0.92527005966E+02  0.15195973875E+03  0.00000000000E+00 0. -1.
          4    1    6    6  503    0 -0.48864628018E+03  0.72088208993E+03  0.35302992955E+03  0.93972139801E+03  0.00000000000E+00 0. -1.
         -4    1    6    6    0  503 -0.40817030443E+02  0.12097733065E+03  0.57839122136E+02  0.14016743043E+03  0.00000000000E+00 0.  1.
<mgrwt>
<rscale>  0 0.23974252E+04</rscale>
<asrwt>0</asrwt>
<pdfrwt beam="1">  1        2 0.18446113E+00 0.23974252E+04</pdfrwt>
<pdfrwt beam="2">  1       -1 0.18437354E+00 0.23974252E+04</pdfrwt>
<totfact> 0.37654005E+00</totfact>
</mgrwt>
</event>
<event>
12    6  0.1530720E-007  0.2313709E+04  0.7818608E-02  0.8472535E-01
         -1   -1    0    0    0  501 -0.00000000000E+00  0.00000000000E+00  0.57498566073E+03  0.57498566073E+03  0.00000000000E+00 0.  1.
          2   -1    0    0  501    0  0.00000000000E+00 -0.00000000000E+00 -0.23275583490E+04  0.23275583490E+04  0.00000000000E+00 0. -1.
         24    2    1    2    0    0  0.12300583434E+03  0.12341519561E+02  0.47406784853E+03  0.49641596887E+03  0.80035871655E+02 0.  0.
        254    2    1    2    0    0 -0.12300583434E+03 -0.12341519561E+02 -0.22266405368E+04  0.24061280408E+04  0.90346074648E+03 0.  0.
         23    2    4    4    0    0 -0.33877577125E+03  0.13946080244E+03 -0.37016958191E+03  0.52856299149E+03  0.90194112874E+02 0.  0.
         23    2    4    4    0    0  0.21576993691E+03 -0.15180232200E+03 -0.18564709549E+04  0.18775650493E+04  0.95736605163E+02 0.  0.
          4    1    3    3  502    0  0.60226739786E+02 -0.26983748428E+02  0.14813658234E+03  0.16217222293E+03  0.00000000000E+00 0. -1.
         -3    1    3    3    0  502  0.62779094558E+02  0.39325267989E+02  0.32593126620E+03  0.33424374594E+03  0.00000000000E+00 0.  1.
         11    1    5    5    0    0 -0.58279129990E+02  0.31244725377E+02 -0.24694506051E+02  0.70586886072E+02  0.00000000000E+00 0.  1.
        -11    1    5    5    0    0 -0.28049664126E+03  0.10821607707E+03 -0.34547507586E+03  0.45797610542E+03  0.00000000000E+00 0. -1.
          3    1    6    6  503    0  0.19689130102E+03 -0.92558091490E+02 -0.13775187439E+04  0.13945935158E+04  0.00000000000E+00 0. -1.
         -3    1    6    6    0  503  0.18878635894E+02 -0.59244230514E+02 -0.47895221100E+03  0.48297153349E+03  0.00000000000E+00 0.  1.
<mgrwt>
<rscale>  0 0.23137093E+04</rscale>
<asrwt>0</asrwt>
<pdfrwt beam="1">  1        2 0.35808590E+00 0.23137093E+04</pdfrwt>
<pdfrwt beam="2">  1       -1 0.88459332E-01 0.23137093E+04</pdfrwt>
<totfact> 0.56534127E+00</totfact>
</mgrwt>
</event>
<event>
12    6  0.1530720E-007  0.1858626E+04  0.7818608E-02  0.8675729E-01
         -1   -1    0    0    0  501 -0.00000000000E+00  0.00000000000E+00  0.33176496799E+03  0.33176496799E+03  0.00000000000E+00 0.  1.
          2   -1    0    0  501    0  0.00000000000E+00 -0.00000000000E+00 -0.26031172665E+04  0.26031172665E+04  0.00000000000E+00 0. -1.
         24    2    1    2    0    0  0.36854287681E+03 -0.90172746426E+02 -0.18131580035E+04  0.18541165697E+04  0.79065364680E+02 0.  0.
        254    2    1    2    0    0 -0.36854287681E+03  0.90172746426E+02 -0.45819429498E+03  0.10807656648E+04  0.90230672949E+03 0.  0.
         23    2    4    4    0    0 -0.38981063317E+03  0.18927590707E+02 -0.70291265478E+03  0.80933643279E+03  0.92890676425E+02 0.  0.
         23    2    4    4    0    0  0.21267756362E+02  0.71245155719E+02  0.24471835980E+03  0.27142923205E+03  0.90876634585E+02 0.  0.
          2    1    3    3  502    0  0.32877682123E+03 -0.58813952680E+02 -0.16419551404E+04  0.16755804851E+04  0.00000000000E+00 0. -1.
         -1    1    3    3    0  502  0.39766055582E+02 -0.31358793745E+02 -0.17120286317E+03  0.17853608453E+03  0.00000000000E+00 0.  1.
         11    1    5    5    0    0 -0.25450878138E+03 -0.21184433457E+02 -0.50935752142E+03  0.56979696792E+03  0.00000000000E+00 0.  1.
        -11    1    5    5    0    0 -0.13530185180E+03  0.40112024163E+02 -0.19355513335E+03  0.23953946487E+03  0.00000000000E+00 0. -1.
          3    1    6    6  503    0  0.77121623298E+01 -0.16100475207E+02  0.96542386448E+01  0.20295493921E+02  0.00000000000E+00 0. -1.
         -3    1    6    6    0  503  0.13555594032E+02  0.87345630926E+02  0.23506412115E+03  0.25113373812E+03  0.00000000000E+00 0.  1.
<mgrwt>
<rscale>  0 0.18586265E+04</rscale>
<asrwt>0</asrwt>
<pdfrwt beam="1">  1        2 0.40047958E+00 0.18586265E+04</pdfrwt>
<pdfrwt beam="2">  1       -1 0.51040765E-01 0.18586265E+04</pdfrwt>
<totfact> 0.12527166E+01</totfact>
</mgrwt>
</event>
<event>
12    6  0.1530720E-007  0.1702933E+04  0.7818608E-02  0.8759693E-01
          2   -1    0    0  501    0  0.00000000000E+00  0.00000000000E+00  0.57558769162E+03  0.57558769162E+03  0.00000000000E+00 0. -1.
         -1   -1    0    0    0  501 -0.00000000000E+00 -0.00000000000E+00 -0.12595740840E+04  0.12595740840E+04  0.00000000000E+00 0.  1.
         24    2    1    2    0    0  0.14726781233E+03 -0.13998065902E+03  0.37185170907E+03  0.43163498935E+03  0.82174673992E+02 0.  0.
        254    2    1    2    0    0 -0.14726781233E+03  0.13998065902E+03 -0.10558381015E+04  0.14035267863E+04  0.90211470994E+03 0.  0.
         23    2    4    4    0    0 -0.17337699849E+03  0.48313707674E+03 -0.83485651508E+03  0.98401732404E+03  0.88451538825E+02 0.  0.
         23    2    4    4    0    0  0.26109186152E+02 -0.34315641772E+03 -0.22098158641E+03  0.41950946227E+03  0.93366539945E+02 0.  0.
          2    1    3    3  502    0  0.10377649472E+03 -0.81907959106E+02  0.30726152134E+03  0.33449681182E+03  0.00000000000E+00 0. -1.
         -1    1    3    3    0  502  0.43491317612E+02 -0.58072699919E+02  0.64590187727E+02  0.97138177531E+02  0.00000000000E+00 0.  1.
         11    1    5    5    0    0 -0.11082188044E+02  0.94097712632E+02 -0.10711242073E+03  0.14300442332E+03  0.00000000000E+00 0.  1.
        -11    1    5    5    0    0 -0.16229481044E+03  0.38903936411E+03 -0.72774409435E+03  0.84101290072E+03  0.00000000000E+00 0. -1.
          4    1    6    6  503    0  0.43955076803E+02 -0.32020183437E+03 -0.18214890848E+03  0.37099796276E+03  0.00000000000E+00 0. -1.
         -4    1    6    6    0  503 -0.17845890651E+02 -0.22954583346E+02 -0.38832677930E+02  0.48511499512E+02  0.00000000000E+00 0.  1.
<mgrwt>
<rscale>  0 0.17029332E+04</rscale>
<asrwt>0</asrwt>
<pdfrwt beam="1">  1        2 0.88551952E-01 0.17029332E+04</pdfrwt>
<pdfrwt beam="2">  1       -1 0.19378063E+00 0.17029332E+04</pdfrwt>
<totfact> 0.94205072E+00</totfact>
</mgrwt>
</event>
<event>
12    6  0.1530720E-007  0.1823627E+04  0.7818608E-02  0.8693835E-01
         -1   -1    0    0    0  501 -0.00000000000E+00  0.00000000000E+00  0.73550712473E+03  0.73550712473E+03  0.00000000000E+00 0.  1.
          2   -1    0    0  501    0  0.00000000000E+00 -0.00000000000E+00 -0.11303816337E+04  0.11303816337E+04  0.00000000000E+00 0. -1.
         24    2    1    2    0    0 -0.44425461540E+03 -0.10267538181E+03  0.37506296107E+03  0.59562088696E+03  0.78661419277E+02 0.  0.
        254    2    1    2    0    0  0.44425461540E+03  0.10267538181E+03 -0.76993747000E+03  0.12702678714E+04  0.90159434345E+03 0.  0.
         23    2    4    4    0    0  0.46055192892E+03  0.17076069018E+03 -0.93992856982E+03  0.10645521940E+04  0.92403272344E+02 0.  0.
         23    2    4    4    0    0 -0.16297313522E+02 -0.68085308365E+02  0.16999109983E+03  0.20571567747E+03  0.92307931913E+02 0.  0.
          4    1    3    3  502    0 -0.60573531236E+02  0.29954125238E+01  0.24991660885E+02  0.65595032559E+02  0.00000000000E+00 0. -1.
         -3    1    3    3    0  502 -0.38368108416E+03 -0.10567079434E+03  0.35007130019E+03  0.53002585440E+03  0.00000000000E+00 0.  1.
         11    1    5    5    0    0  0.35670825789E+03  0.17087088827E+03 -0.72585535398E+03  0.82662182200E+03  0.00000000000E+00 0. -1.
        -11    1    5    5    0    0  0.10384367103E+03 -0.11019809168E+00 -0.21407321584E+03  0.23793037196E+03  0.00000000000E+00 0.  1.
          3    1    6    6  503    0  0.68166393320E+01  0.11647144979E+02  0.88026599887E+02  0.89055066367E+02  0.00000000000E+00 0. -1.
         -3    1    6    6    0  503 -0.23113952854E+02 -0.79732453345E+02  0.81964499940E+02  0.11666061110E+03  0.00000000000E+00 0.  1.
<mgrwt>
<rscale>  0 0.18236269E+04</rscale>
<asrwt>0</asrwt>
<pdfrwt beam="1">  1        2 0.17390487E+00 0.18236269E+04</pdfrwt>
<pdfrwt beam="2">  1       -1 0.11315494E+00 0.18236269E+04</pdfrwt>
<totfact> 0.16004087E+01</totfact>
</mgrwt>
</event>
<event>
12    6  0.1530720E-007  0.3975942E+04  0.7818608E-02  0.8009418E-01
          2   -1    0    0  501    0  0.00000000000E+00  0.00000000000E+00  0.35733543863E+04  0.35733543863E+04  0.00000000000E+00 0. -1.
         -1   -1    0    0    0  501 -0.00000000000E+00 -0.00000000000E+00 -0.11059714985E+04  0.11059714985E+04  0.00000000000E+00 0.  1.
         24    2    1    2    0    0 -0.18908492746E+04  0.12837062579E+03  0.13487375839E+04  0.23274804421E+04  0.79259958725E+02 0.  0.
        254    2    1    2    0    0  0.18908492746E+04 -0.12837062579E+03  0.11186453039E+04  0.23518454427E+04  0.82946951327E+03 0.  0.
         23    2    4    4    0    0  0.15558066518E+04 -0.30913552768E+03  0.59213031747E+03  0.16956101310E+04  0.91522081167E+02 0.  0.
         23    2    4    4    0    0  0.33504262285E+03  0.18076490190E+03  0.52651498643E+03  0.65623531168E+03  0.92180499416E+02 0.  0.
          2    1    3    3  502    0 -0.17302526380E+04  0.11983905547E+03  0.12603182689E+04  0.21439537610E+04  0.00000000000E+00 0. -1.
         -1    1    3    3    0  502 -0.16059663661E+03  0.85315703213E+01  0.88419315027E+02  0.18352668104E+03  0.00000000000E+00 0.  1.
         11    1    5    5    0    0  0.10169137719E+04 -0.18730790734E+03  0.34175759257E+03  0.10890344915E+04  0.00000000000E+00 0. -1.
        -11    1    5    5    0    0  0.53889287990E+03 -0.12182762035E+03  0.25037272490E+03  0.60657563952E+03  0.00000000000E+00 0.  1.
          1    1    6    6  503    0  0.22023998478E+03  0.12015648668E+03  0.41575208289E+03  0.48558524135E+03  0.00000000000E+00 0. -1.
         -1    1    6    6    0  503  0.11480263807E+03  0.60608415215E+02  0.11076290354E+03  0.17065007033E+03  0.00000000000E+00 0.  1.
<mgrwt>
<rscale>  0 0.39759417E+04</rscale>
<asrwt>0</asrwt>
<pdfrwt beam="1">  1        2 0.54974682E+00 0.39759417E+04</pdfrwt>
<pdfrwt beam="2">  1       -1 0.17014946E+00 0.39759417E+04</pdfrwt>
<totfact> 0.15849794E-01</totfact>
</mgrwt>
</event>
<event>
12    6  0.1530720E-007  0.1515424E+04  0.7818608E-02  0.8874261E-01
         -1   -1    0    0    0  501 -0.00000000000E+00  0.00000000000E+00  0.14433425079E+03  0.14433425079E+03  0.00000000000E+00 0.  1.
          2   -1    0    0  501    0  0.00000000000E+00 -0.00000000000E+00 -0.39777612235E+04  0.39777612235E+04  0.00000000000E+00 0. -1.
         24    2    1    2    0    0 -0.48473209532E+03 -0.86333556003E+01 -0.14555561316E+04  0.15363276959E+04  0.81359682569E+02 0.  0.
        254    2    1    2    0    0  0.48473209532E+03  0.86333556003E+01 -0.23778708412E+04  0.25857677784E+04  0.89268445020E+03 0.  0.
         23    2    4    4    0    0  0.65664106802E+03 -0.14053603916E+03 -0.11610922758E+04  0.13443682308E+04  0.90899926862E+02 0.  0.
         23    2    4    4    0    0 -0.17190897270E+03  0.14916939476E+03 -0.12167785654E+04  0.12413995476E+04  0.93373209970E+02 0.  0.
          2    1    3    3  502    0 -0.34192435417E+03  0.42158853298E+01 -0.11297357586E+04  0.11803528803E+04  0.00000000000E+00 0. -1.
         -1    1    3    3    0  502 -0.14280774116E+03 -0.12849240930E+02 -0.32582037296E+03  0.35597481563E+03  0.00000000000E+00 0.  1.
         11    1    5    5    0    0  0.10864421860E+02  0.63129521279E+01 -0.43613446261E+02  0.45387462164E+02  0.00000000000E+00 0. -1.
        -11    1    5    5    0    0  0.64577664616E+03 -0.14684899129E+03 -0.11174788295E+04  0.12989807687E+04  0.00000000000E+00 0.  1.
          4    1    6    6  503    0 -0.32713461510E+02  0.24348011577E+02 -0.84930569438E+02  0.94213575757E+02  0.00000000000E+00 0. -1.
         -4    1    6    6    0  503 -0.13919551119E+03  0.12482138318E+03 -0.11318479960E+04  0.11471859718E+04  0.00000000000E+00 0.  1.
<mgrwt>
<rscale>  0 0.15154236E+04</rscale>
<asrwt>0</asrwt>
<pdfrwt beam="1">  1        2 0.61196325E+00 0.15154236E+04</pdfrwt>
<pdfrwt beam="2">  1       -1 0.22205270E-01 0.15154236E+04</pdfrwt>
<totfact> 0.68733047E+00</totfact>
</mgrwt>
</event>
<event>
12    6  0.1530720E-007  0.1149745E+04  0.7818608E-02  0.9158019E-01
         -1   -1    0    0    0  501 -0.00000000000E+00  0.00000000000E+00  0.30499091072E+03  0.30499091072E+03  0.00000000000E+00 0.  1.
          2   -1    0    0  501    0  0.00000000000E+00 -0.00000000000E+00 -0.10835677869E+04  0.10835677869E+04  0.00000000000E+00 0. -1.
         24    2    1    2    0    0 -0.24169058938E+02 -0.15228778869E+03 -0.33675248052E+03  0.37851894395E+03  0.78093814082E+02 0.  0.
        254    2    1    2    0    0  0.24169058938E+02  0.15228778869E+03 -0.44182439565E+03  0.10100397537E+04  0.89509541022E+03 0.  0.
         23    2    4    4    0    0  0.22252714638E+03 -0.97533803848E+02 -0.59144553657E+03  0.64578868798E+03  0.90576117287E+02 0.  0.
         23    2    4    4    0    0 -0.19835808745E+03  0.24982159254E+03  0.14962114092E+03  0.36425106569E+03  0.92388278971E+02 0.  0.
          2    1    3    3  502    0  0.25697601238E+02 -0.44628068914E+02 -0.13466523798E+03  0.14417613383E+03  0.00000000000E+00 0. -1.
         -1    1    3    3    0  502 -0.49866660177E+02 -0.10765971978E+03 -0.20208724254E+03  0.23434281012E+03  0.00000000000E+00 0.  1.
         11    1    5    5    0    0  0.19409742450E+03 -0.46059110987E+02 -0.43167470277E+03  0.47554000979E+03  0.00000000000E+00 0. -1.
        -11    1    5    5    0    0  0.28429721890E+02 -0.51474692861E+02 -0.15977083379E+03  0.17024867818E+03  0.00000000000E+00 0.  1.
          2    1    6    6  503    0 -0.15528830404E+03  0.23773520085E+03  0.11008700296E+03  0.30455152490E+03  0.00000000000E+00 0. -1.
         -2    1    6    6    0  503 -0.43069783410E+02  0.12086391687E+02  0.39534137956E+02  0.59699540794E+02  0.00000000000E+00 0.  1.
<mgrwt>
<rscale>  0 0.11497449E+04</rscale>
<asrwt>0</asrwt>
<pdfrwt beam="1">  1        2 0.16670274E+00 0.11497449E+04</pdfrwt>
<pdfrwt beam="2">  1       -1 0.46921678E-01 0.11497449E+04</pdfrwt>
<totfact> 0.11393140E+02</totfact>
</mgrwt>
</event>
<event>
12    6  0.1530720E-007  0.1847649E+04  0.7818608E-02  0.8681363E-01
          2   -1    0    0  501    0  0.00000000000E+00  0.00000000000E+00  0.57966273478E+03  0.57966273478E+03  0.00000000000E+00 0. -1.
         -3   -1    0    0    0  501 -0.00000000000E+00 -0.00000000000E+00 -0.14723249907E+04  0.14723249907E+04  0.00000000000E+00 0.  1.
         24    2    1    2    0    0  0.90389103474E+02  0.67940550119E+03 -0.14263431459E+03  0.70487316190E+03  0.82095076547E+02 0.  0.
        254    2    1    2    0    0 -0.90389103474E+02 -0.67940550119E+03 -0.75002794137E+03  0.13471145636E+04  0.88454152509E+03 0.  0.
         23    2    4    4    0    0  0.10155845560E+03 -0.19849307538E+03 -0.78313179694E+03  0.81952846340E+03  0.92832483876E+02 0.  0.
         23    2    4    4    0    0 -0.19194755908E+03 -0.48091242581E+03  0.33103855569E+02  0.52758610023E+03  0.95554179219E+02 0.  0.
          4    1    3    3  502    0  0.92891321868E+02  0.67332582445E+03 -0.13204743679E+03  0.69241099725E+03  0.00000000000E+00 0. -1.
         -3    1    3    3    0  502 -0.25022183939E+01  0.60796767389E+01 -0.10586877802E+02  0.12462164649E+02  0.00000000000E+00 0.  1.
         11    1    5    5    0    0  0.83581810345E+02 -0.17062336074E+03 -0.74567528910E+03  0.76949976415E+03  0.00000000000E+00 0.  1.
        -11    1    5    5    0    0  0.17976645257E+02 -0.27869714645E+02 -0.37456507839E+02  0.50028699249E+02  0.00000000000E+00 0. -1.
          2    1    6    6  503    0 -0.22525643056E+02 -0.11450714001E+03 -0.26111564855E+02  0.11958722143E+03  0.00000000000E+00 0.  1.
         -2    1    6    6    0  503 -0.16942191602E+03 -0.36640528579E+03  0.59215420424E+02  0.40799887880E+03  0.00000000000E+00 0. -1.
<mgrwt>
<rscale>  0 0.18476492E+04</rscale>
<asrwt>0</asrwt>
<pdfrwt beam="1">  1        2 0.89178883E-01 0.18476492E+04</pdfrwt>
<pdfrwt beam="2">  1       -3 0.22651154E+00 0.18476492E+04</pdfrwt>
<totfact> 0.30604482E+00</totfact>
</mgrwt>
</event>
<event>
12    6  0.1530720E-007  0.1539264E+04  0.7818608E-02  0.8858755E-01
         -1   -1    0    0    0  501 -0.00000000000E+00  0.00000000000E+00  0.57256811909E+03  0.57256811909E+03  0.00000000000E+00 0.  1.
          2   -1    0    0  501    0  0.00000000000E+00 -0.00000000000E+00 -0.10345199757E+04  0.10345199757E+04  0.00000000000E+00 0. -1.
         24    2    1    2    0    0 -0.43506506915E+03 -0.26271168746E+03 -0.18097541583E+03  0.54539806314E+03  0.80049366192E+02 0.  0.
        254    2    1    2    0    0  0.43506506915E+03  0.26271168746E+03 -0.28097644080E+03  0.10616900317E+04  0.88878507971E+03 0.  0.
         23    2    4    4    0    0  0.60638869710E+03 -0.90946010633E+02 -0.17783453351E+03  0.64509628845E+03  0.92442799874E+02 0.  0.
         23    2    4    4    0    0 -0.17132362795E+03  0.35365769809E+03 -0.10314190729E+03  0.41659374320E+03  0.92122423580E+02 0.  0.
          4    1    3    3  502    0 -0.27276388005E+03 -0.15063813602E+03 -0.14972458483E+03  0.34570136475E+03  0.00000000000E+00 0. -1.
         -3    1    3    3    0  502 -0.16230118910E+03 -0.11207355143E+03 -0.31250831001E+02  0.19969669840E+03  0.00000000000E+00 0.  1.
         11    1    5    5    0    0  0.79385935466E+01 -0.47209762512E+01  0.83482758696E+01  0.12450003785E+02  0.00000000000E+00 0. -1.
        -11    1    5    5    0    0  0.59845010355E+03 -0.86225034382E+02 -0.18618280938E+03  0.63264628467E+03  0.00000000000E+00 0.  1.
          4    1    6    6  503    0 -0.15000728957E+03  0.35112003631E+03 -0.10140054375E+03  0.39505637205E+03  0.00000000000E+00 0.  1.
         -4    1    6    6    0  503 -0.21316338380E+02  0.25376617758E+01 -0.17413635349E+01  0.21537371153E+02  0.00000000000E+00 0. -1.
<mgrwt>
<rscale>  0 0.15392637E+04</rscale>
<asrwt>0</asrwt>
<pdfrwt beam="1">  1        2 0.15915692E+00 0.15392637E+04</pdfrwt>
<pdfrwt beam="2">  1       -1 0.88087403E-01 0.15392637E+04</pdfrwt>
<totfact> 0.33330395E+01</totfact>
</mgrwt>
</event>
<event>
12    6  0.1530720E-007  0.2765903E+04  0.7818608E-02  0.8313933E-01
          2   -1    0    0  501    0  0.00000000000E+00  0.00000000000E+00  0.37241707023E+04  0.37241707023E+04  0.00000000000E+00 0. -1.
         -1   -1    0    0    0  501 -0.00000000000E+00 -0.00000000000E+00 -0.51355172980E+03  0.51355172980E+03  0.00000000000E+00 0.  1.
         24    2    1    2    0    0 -0.12052774641E+04  0.22325023544E+03  0.16934923584E+04  0.20920311892E+04  0.78381730849E+02 0.  0.
        254    2    1    2    0    0  0.12052774641E+04 -0.22325023544E+03  0.15171266141E+04  0.21456912428E+04  0.89430605120E+03 0.  0.
         23    2    4    4    0    0  0.69832263262E+03  0.26542955508E+03  0.49406282870E+03  0.90043958378E+03  0.92660765102E+02 0.  0.
         23    2    4    4    0    0  0.50695483150E+03 -0.48867979052E+03  0.10230637854E+04  0.12452516590E+04  0.90449137799E+02 0.  0.
          2    1    3    3  502    0 -0.80971471656E+03  0.13568920607E+03  0.10748688085E+04  0.13525503459E+04  0.00000000000E+00 0. -1.
         -1    1    3    3    0  502 -0.39556274756E+03  0.87561029376E+02  0.61862354988E+03  0.73948084329E+03  0.00000000000E+00 0.  1.
         11    1    5    5    0    0  0.38276030151E+03  0.18580472870E+03  0.31114253785E+03  0.52710390292E+03  0.00000000000E+00 0. -1.
        -11    1    5    5    0    0  0.31556233112E+03  0.79624826382E+02  0.18292029085E+03  0.37333568086E+03  0.00000000000E+00 0.  1.
          3    1    6    6  503    0  0.32999226119E+01 -0.13561990098E+01  0.27636990722E+02  0.27866324142E+02  0.00000000000E+00 0. -1.
         -3    1    6    6    0  503  0.50365490888E+03 -0.48732359151E+03  0.99542679468E+03  0.12173853349E+04  0.00000000000E+00 0.  1.
<mgrwt>
<rscale>  0 0.27659026E+04</rscale>
<asrwt>0</asrwt>
<pdfrwt beam="1">  1        2 0.57294932E+00 0.27659026E+04</pdfrwt>
<pdfrwt beam="2">  1       -1 0.79007961E-01 0.27659026E+04</pdfrwt>
<totfact> 0.89013000E-01</totfact>
</mgrwt>
</event>
<event>
12    6  0.1530720E-007  0.1412009E+04  0.7818608E-02  0.8945172E-01
          2   -1    0    0  501    0  0.00000000000E+00  0.00000000000E+00  0.15366959649E+04  0.15366959649E+04  0.00000000000E+00 0. -1.
         -1   -1    0    0    0  501 -0.00000000000E+00 -0.00000000000E+00 -0.32435959071E+03  0.32435959071E+03  0.00000000000E+00 0.  1.
         24    2    1    2    0    0 -0.26519253990E+03 -0.28854097254E+03  0.39703532874E+03  0.56422044489E+03  0.84407832069E+02 0.  0.
        254    2    1    2    0    0  0.26519253990E+03  0.28854097254E+03  0.81530104541E+03  0.12968351107E+04  0.92923760877E+03 0.  0.
         23    2    4    4    0    0  0.35188746271E+03  0.31513174114E+03  0.98498114956E+01  0.48116102474E+03  0.91028084961E+02 0.  0.
         23    2    4    4    0    0 -0.86694922810E+02 -0.26590768600E+02  0.80545123391E+03  0.81567408593E+03  0.91375300989E+02 0.  0.
          4    1    3    3  502    0 -0.23343175289E+03 -0.20241624440E+03  0.30026006837E+03  0.43083503562E+03  0.00000000000E+00 0. -1.
         -3    1    3    3    0  502 -0.31760787005E+02 -0.86124728140E+02  0.96775260367E+02  0.13338540928E+03  0.00000000000E+00 0.  1.
         11    1    5    5    0    0  0.15811693345E+03  0.14284152895E+03 -0.40843263656E+02  0.21696275999E+03  0.00000000000E+00 0.  1.
        -11    1    5    5    0    0  0.19377052926E+03  0.17229021219E+03  0.50693075152E+02  0.26419826474E+03  0.00000000000E+00 0. -1.
          3    1    6    6  503    0 -0.40076692881E+02 -0.40705265659E+02  0.65607547887E+03  0.65855758589E+03  0.00000000000E+00 0. -1.
         -3    1    6    6    0  503 -0.46618229929E+02  0.14114497059E+02  0.14937575504E+03  0.15711650004E+03  0.00000000000E+00 0.  1.
<mgrwt>
<rscale>  0 0.14120086E+04</rscale>
<asrwt>0</asrwt>
<pdfrwt beam="1">  1        2 0.23641476E+00 0.14120086E+04</pdfrwt>
<pdfrwt beam="2">  1       -1 0.49901476E-01 0.14120086E+04</pdfrwt>
<totfact> 0.54025726E+01</totfact>
</mgrwt>
</event>
<event>
12    6  0.1530720E-007  0.1781817E+04  0.7818608E-02  0.8716029E-01
         -1   -1    0    0    0  501 -0.00000000000E+00  0.00000000000E+00  0.94053253174E+03  0.94053253174E+03  0.00000000000E+00 0.  1.
          2   -1    0    0  501    0  0.00000000000E+00 -0.00000000000E+00 -0.84390230555E+03  0.84390230555E+03  0.00000000000E+00 0. -1.
         24    2    1    2    0    0 -0.35521582821E+03 -0.53253622694E+03 -0.14758415534E+03  0.66166065160E+03  0.78997578121E+02 0.  0.
        254    2    1    2    0    0  0.35521582821E+03  0.53253622694E+03  0.24421438153E+03  0.11227741857E+04  0.88949878600E+03 0.  0.
         23    2    4    4    0    0 -0.68331415486E+02 -0.15862316528E+03  0.23665947724E+03  0.30707896410E+03  0.91974404698E+02 0.  0.
         23    2    4    4    0    0  0.42354724369E+03  0.69115939223E+03  0.75549042894E+01  0.81569522159E+03  0.90598260734E+02 0.  0.
          2    1    3    3  502    0 -0.35281569577E+03 -0.53182561942E+03 -0.13961386143E+03  0.65330653981E+03  0.00000000000E+00 0. -1.
         -1    1    3    3    0  502 -0.24001324393E+01 -0.71060752577E+00 -0.79702939133E+01  0.83541117927E+01  0.00000000000E+00 0.  1.
         11    1    5    5    0    0 -0.52636416325E+02 -0.12766347681E+03  0.11236673945E+03  0.17803044619E+03  0.00000000000E+00 0.  1.
        -11    1    5    5    0    0 -0.15694999162E+02 -0.30959688472E+02  0.12429273779E+03  0.12904851791E+03  0.00000000000E+00 0. -1.
          1    1    6    6  503    0  0.34007021473E+03  0.58899783052E+03  0.34681041624E+02  0.68100585162E+03  0.00000000000E+00 0.  1.
         -1    1    6    6    0  503  0.83477028967E+02  0.10216156171E+03 -0.27126137334E+02  0.13468936997E+03  0.00000000000E+00 0. -1.
<mgrwt>
<rscale>  0 0.17818166E+04</rscale>
<asrwt>0</asrwt>
<pdfrwt beam="1">  1        2 0.12983112E+00 0.17818166E+04</pdfrwt>
<pdfrwt beam="2">  1       -1 0.14469731E+00 0.17818166E+04</pdfrwt>
<totfact> 0.13289946E+01</totfact>
</mgrwt>
</event>
<event>
12    6  0.1530720E-007  0.1783780E+04  0.7818608E-02  0.8714973E-01
         -1   -1    0    0    0  501 -0.00000000000E+00  0.00000000000E+00  0.11520241672E+04  0.11520241672E+04  0.00000000000E+00 0.  1.
          2   -1    0    0  501    0  0.00000000000E+00 -0.00000000000E+00 -0.69049607088E+03  0.69049607088E+03  0.00000000000E+00 0. -1.
         24    2    1    2    0    0  0.33861181633E+03  0.15744797060E+02  0.75705045424E+03  0.83328212157E+03  0.79547740871E+02 0.  0.
        254    2    1    2    0    0 -0.33861181633E+03 -0.15744797060E+02 -0.29552235793E+03  0.10092381165E+04  0.90350553454E+03 0.  0.
         23    2    4    4    0    0 -0.27278854875E+02  0.70277054536E+02  0.30116561927E+03  0.32337490490E+03  0.90485350056E+02 0.  0.
         23    2    4    4    0    0 -0.31133296145E+03 -0.86021851597E+02 -0.59668797720E+03  0.68586321159E+03  0.10021891559E+03 0.  0.
          2    1    3    3  502    0  0.24391220126E+03 -0.23922893700E+02  0.51422549973E+03  0.56964316141E+03  0.00000000000E+00 0. -1.
         -1    1    3    3    0  502  0.94699615065E+02  0.39667690760E+02  0.24282495451E+03  0.26363896016E+03  0.00000000000E+00 0.  1.
         11    1    5    5    0    0 -0.32054096167E+02  0.60740363034E+02  0.30454016254E+03  0.31218835241E+03  0.00000000000E+00 0. -1.
        -11    1    5    5    0    0  0.47752412920E+01  0.95366915022E+01 -0.33745432764E+01  0.11186552486E+02  0.00000000000E+00 0.  1.
          2    1    6    6  503    0 -0.10470577105E+03 -0.44289780026E+02 -0.30870078899E+03  0.32896969500E+03  0.00000000000E+00 0. -1.
         -2    1    6    6    0  503 -0.20662719040E+03 -0.41732071570E+02 -0.28798718821E+03  0.35689351659E+03  0.00000000000E+00 0.  1.
<mgrwt>
<rscale>  0 0.17837804E+04</rscale>
<asrwt>0</asrwt>
<pdfrwt beam="1">  1        2 0.10623016E+00 0.17837804E+04</pdfrwt>
<pdfrwt beam="2">  1       -1 0.17723449E+00 0.17837804E+04</pdfrwt>
<totfact> 0.98042987E+00</totfact>
</mgrwt>
</event>
<event>
12    6  0.1530720E-007  0.1339186E+04  0.7818608E-02  0.8999055E-01
         -1   -1    0    0    0  501 -0.00000000000E+00  0.00000000000E+00  0.37814484745E+03  0.37814484745E+03  0.00000000000E+00 0.  1.
          2   -1    0    0  501    0  0.00000000000E+00 -0.00000000000E+00 -0.11856689445E+04  0.11856689445E+04  0.00000000000E+00 0. -1.
         24    2    1    2    0    0 -0.10705611506E+03 -0.15693217335E+03 -0.57222406388E+03  0.60827813985E+03  0.80456182634E+02 0.  0.
        254    2    1    2    0    0  0.10705611506E+03  0.15693217335E+03 -0.23530003318E+03  0.95553565211E+03  0.90641798197E+03 0.  0.
         23    2    4    4    0    0  0.15924511076E+03 -0.17748490469E+03 -0.46917711902E+03  0.53422411218E+03  0.91696981046E+02 0.  0.
         23    2    4    4    0    0 -0.52188995707E+02  0.33441707804E+03  0.23387708584E+03  0.42131153993E+03  0.90809961094E+02 0.  0.
          2    1    3    3  502    0 -0.37717387395E+02 -0.10027163799E+03 -0.40086411927E+03  0.41493257864E+03  0.00000000000E+00 0. -1.
         -1    1    3    3    0  502 -0.69338727662E+02 -0.56660535356E+02 -0.17135994461E+03  0.19334556121E+03  0.00000000000E+00 0.  1.
         11    1    5    5    0    0  0.42129178267E+02 -0.99475201804E+02 -0.14495890571E+03  0.18078514259E+03  0.00000000000E+00 0. -1.
        -11    1    5    5    0    0  0.11711593250E+03 -0.78009702886E+02 -0.32421821331E+03  0.35343896960E+03  0.00000000000E+00 0.  1.
          3    1    6    6  503    0  0.10771490025E+02  0.82283398652E+02  0.21583343530E+02  0.85746273441E+02  0.00000000000E+00 0. -1.
         -3    1    6    6    0  503 -0.62960485732E+02  0.25213367939E+03  0.21229374231E+03  0.33556526649E+03  0.00000000000E+00 0.  1.
<mgrwt>
<rscale>  0 0.13391857E+04</rscale>
<asrwt>0</asrwt>
<pdfrwt beam="1">  1        2 0.18241061E+00 0.13391857E+04</pdfrwt>
<pdfrwt beam="2">  1       -1 0.58176131E-01 0.13391857E+04</pdfrwt>
<totfact> 0.64457954E+01</totfact>
</mgrwt>
</event>
<event>
12    6  0.1530720E-007  0.1301584E+04  0.7818608E-02  0.9028310E-01
         -1   -1    0    0    0  501 -0.00000000000E+00  0.00000000000E+00  0.59320281978E+03  0.59320281978E+03  0.00000000000E+00 0.  1.
          2   -1    0    0  501    0  0.00000000000E+00 -0.00000000000E+00 -0.71397215010E+03  0.71397215010E+03  0.00000000000E+00 0. -1.
         24    2    1    2    0    0  0.10200125092E+03 -0.97814082724E+02 -0.33367303500E+03  0.37125843780E+03  0.80766845810E+02 0.  0.
        254    2    1    2    0    0 -0.10200125092E+03  0.97814082724E+02  0.21290370468E+03  0.93591653208E+03  0.90035543959E+03 0.  0.
         23    2    4    4    0    0  0.69148459698E+02 -0.33278859965E+02 -0.32666425378E+03  0.34781908847E+03  0.91540109275E+02 0.  0.
         23    2    4    4    0    0 -0.17114971061E+03  0.13109294269E+03  0.53956795846E+03  0.58809744361E+03  0.90815407928E+02 0.  0.
          2    1    3    3  502    0  0.11358481141E+03 -0.77422388555E+02 -0.26238865303E+03  0.29621536231E+03  0.00000000000E+00 0. -1.
         -1    1    3    3    0  502 -0.11583560496E+02 -0.20391694168E+02 -0.71284381978E+02  0.75043075489E+02  0.00000000000E+00 0.  1.
         11    1    5    5    0    0  0.58271255022E+02 -0.63969703462E+02 -0.22489478766E+03  0.24096748254E+03  0.00000000000E+00 0. -1.
        -11    1    5    5    0    0  0.10877204676E+02  0.30690843497E+02 -0.10176946612E+03  0.10685160593E+03  0.00000000000E+00 0.  1.
          1    1    6    6  503    0 -0.66330339492E+02  0.68983483148E+02  0.13428522220E+03  0.16489680344E+03  0.00000000000E+00 0. -1.
         -1    1    6    6    0  503 -0.10481937112E+03  0.62109459540E+02  0.40528273626E+03  0.42320064017E+03  0.00000000000E+00 0.  1.
<mgrwt>
<rscale>  0 0.13015841E+04</rscale>
<asrwt>0</asrwt>
<pdfrwt beam="1">  1        2 0.10984187E+00 0.13015841E+04</pdfrwt>
<pdfrwt beam="2">  1       -1 0.91261973E-01 0.13015841E+04</pdfrwt>
<totfact> 0.52410149E+01</totfact>
</mgrwt>
</event>
<event>
12    6  0.1530720E-007  0.1928575E+04  0.7818608E-02  0.8640762E-01
         -1   -1    0    0    0  501 -0.00000000000E+00  0.00000000000E+00  0.32931808797E+03  0.32931808797E+03  0.00000000000E+00 0.  1.
          2   -1    0    0  501    0  0.00000000000E+00 -0.00000000000E+00 -0.28235626592E+04  0.28235626592E+04  0.00000000000E+00 0. -1.
         24    2    1    2    0    0 -0.40976407998E+03  0.97171580164E+02 -0.20101378276E+04  0.20553322524E+04  0.79922866736E+02 0.  0.
        254    2    1    2    0    0  0.40976407998E+03 -0.97171580164E+02 -0.48410674367E+03  0.10975484948E+04  0.89045181899E+03 0.  0.
         23    2    4    4    0    0 -0.59637842262E+02 -0.39296384463E+03 -0.29733361017E+03  0.50447272108E+03  0.90045517197E+02 0.  0.
         23    2    4    4    0    0  0.46940192224E+03  0.29579226446E+03 -0.18677313350E+03  0.59307577372E+03  0.94991797845E+02 0.  0.
          4    1    3    3  502    0 -0.23107082959E+03  0.40417195626E+02 -0.12920293636E+04  0.13131516113E+04  0.00000000000E+00 0. -1.
         -1    1    3    3    0  502 -0.17869325039E+03  0.56754384538E+02 -0.71810846402E+03  0.74218064109E+03  0.00000000000E+00 0.  1.
         11    1    5    5    0    0  0.19533451222E+02 -0.76312327885E+02 -0.80405849443E+02  0.11256210609E+03  0.00000000000E+00 0.  1.
        -11    1    5    5    0    0 -0.79171293484E+02 -0.31665151674E+03 -0.21692776072E+03  0.39191061499E+03  0.00000000000E+00 0. -1.
          3    1    6    6  503    0  0.39260221193E+03  0.22597979708E+03 -0.18488432875E+03  0.48927045743E+03  0.00000000000E+00 0. -1.
         -3    1    6    6    0  503  0.76799710314E+02  0.69812467384E+02 -0.18888047493E+01  0.10380531629E+03  0.00000000000E+00 0.  1.
<mgrwt>
<rscale>  0 0.19285749E+04</rscale>
<asrwt>0</asrwt>
<pdfrwt beam="1">  1        2 0.43439426E+00 0.19285749E+04</pdfrwt>
<pdfrwt beam="2">  1       -1 0.50664320E-01 0.19285749E+04</pdfrwt>
<totfact> 0.93337996E+00</totfact>
</mgrwt>
</event>
<event>
12    6  0.1530720E-007  0.1245712E+04  0.7818608E-02  0.9073760E-01
         -1   -1    0    0    0  501 -0.00000000000E+00  0.00000000000E+00  0.24229184465E+03  0.24229184465E+03  0.00000000000E+00 0.  1.
          2   -1    0    0  501    0  0.00000000000E+00 -0.00000000000E+00 -0.16011654381E+04  0.16011654381E+04  0.00000000000E+00 0. -1.
         24    2    1    2    0    0  0.86629668688E+02  0.29281322410E+03 -0.58287952704E+03  0.66292769796E+03  0.80500347678E+02 0.  0.
        254    2    1    2    0    0 -0.86629668688E+02 -0.29281322410E+03 -0.77599406638E+03  0.11805295848E+04  0.83560698041E+03 0.  0.
         23    2    4    4    0    0 -0.37891257620E+03 -0.23033974372E+03 -0.73791112250E+03  0.86579651092E+03  0.91976277777E+02 0.  0.
         23    2    4    4    0    0  0.29228290751E+03 -0.62473480383E+02 -0.38082943885E+02  0.31473307384E+03  0.90963527739E+02 0.  0.
          4    1    3    3  502    0  0.49379422219E+02  0.21392660466E+03 -0.48141368908E+03  0.52911441065E+03  0.00000000000E+00 0. -1.
         -3    1    3    3    0  502  0.37250246469E+02  0.78886619440E+02 -0.10146583795E+03  0.13381328731E+03  0.00000000000E+00 0.  1.
         11    1    5    5    0    0 -0.24871255035E+03 -0.16165495690E+03 -0.40705780886E+03  0.50367282788E+03  0.00000000000E+00 0.  1.
        -11    1    5    5    0    0 -0.13020002585E+03 -0.68684786823E+02 -0.33085331364E+03  0.36212368304E+03  0.00000000000E+00 0. -1.
          3    1    6    6  503    0  0.85092460619E+02  0.21738635128E+02 -0.21800328224E+02  0.90490604054E+02  0.00000000000E+00 0. -1.
         -3    1    6    6    0  503  0.20719044689E+03 -0.84212115512E+02 -0.16282615661E+02  0.22424246978E+03  0.00000000000E+00 0.  1.
<mgrwt>
<rscale>  0 0.12457116E+04</rscale>
<asrwt>0</asrwt>
<pdfrwt beam="1">  1        2 0.24633315E+00 0.12457116E+04</pdfrwt>
<pdfrwt beam="2">  1       -1 0.37275668E-01 0.12457116E+04</pdfrwt>
<totfact> 0.86422420E+01</totfact>
</mgrwt>
</event>
<event>
12    6  0.1530720E-007  0.1929496E+04  0.7818608E-02  0.8640312E-01
         -3   -1    0    0    0  501 -0.00000000000E+00  0.00000000000E+00  0.64732291102E+03  0.64732291102E+03  0.00000000000E+00 0.  1.
          4   -1    0    0  501    0  0.00000000000E+00 -0.00000000000E+00 -0.14378277854E+04  0.14378277854E+04  0.00000000000E+00 0. -1.
         24    2    1    2    0    0  0.30398109284E+03 -0.51993019670E+03  0.17324031698E+03  0.63169467886E+03  0.79335021415E+02 0.  0.
        254    2    1    2    0    0 -0.30398109284E+03  0.51993019670E+03 -0.96374519136E+03  0.14534560176E+04  0.90608922677E+03 0.  0.
         23    2    4    4    0    0  0.17306207465E+03  0.39750315724E+03 -0.99169587857E+02  0.45407735092E+03  0.91609998186E+02 0.  0.
         23    2    4    4    0    0 -0.47704316749E+03  0.12242703947E+03 -0.86457560351E+03  0.99937866664E+03  0.93317637769E+02 0.  0.
          4    1    3    3  502    0  0.18513763506E+03 -0.37776159003E+03  0.99745067785E+02  0.43235268169E+03  0.00000000000E+00 0. -1.
         -3    1    3    3    0  502  0.11884345778E+03 -0.14216860667E+03  0.73495249193E+02  0.19934199717E+03  0.00000000000E+00 0.  1.
         11    1    5    5    0    0  0.17575373557E+03  0.31848581116E+03 -0.87725094881E+02  0.37419016522E+03  0.00000000000E+00 0. -1.
        -11    1    5    5    0    0 -0.26916609175E+01  0.79017346075E+02 -0.11444492976E+02  0.79887185698E+02  0.00000000000E+00 0.  1.
          3    1    6    6  503    0 -0.40734679729E+03  0.10618923171E+03 -0.66172741984E+03  0.78427721143E+03  0.00000000000E+00 0. -1.
         -3    1    6    6    0  503 -0.69696370205E+02  0.16237807755E+02 -0.20284818366E+03  0.21510145522E+03  0.00000000000E+00 0.  1.
<mgrwt>
<rscale>  0 0.19294962E+04</rscale>
<asrwt>0</asrwt>
<pdfrwt beam="1">  1        4 0.22120427E+00 0.19294962E+04</pdfrwt>
<pdfrwt beam="2">  1       -3 0.99588142E-01 0.19294962E+04</pdfrwt>
<totfact> 0.18039042E-01</totfact>
</mgrwt>
</event>
<event>
12    6  0.1530720E-007  0.1426501E+04  0.7818608E-02  0.8934856E-01
         -1   -1    0    0    0  501 -0.00000000000E+00  0.00000000000E+00  0.20457543460E+03  0.20457543460E+03  0.00000000000E+00 0.  1.
          2   -1    0    0  501    0  0.00000000000E+00 -0.00000000000E+00 -0.24867401703E+04  0.24867401703E+04  0.00000000000E+00 0. -1.
         24    2    1    2    0    0  0.32859764974E+03  0.13313839390E+03 -0.24672817988E+03  0.43944155197E+03  0.80819771725E+02 0.  0.
        254    2    1    2    0    0 -0.32859764974E+03 -0.13313839390E+03 -0.20354365558E+04  0.22518740529E+04  0.89567434379E+03 0.  0.
         23    2    4    4    0    0  0.22191318334E+02 -0.45846333049E+03 -0.11455930569E+04  0.12374446314E+04  0.90579709227E+02 0.  0.
         23    2    4    4    0    0 -0.35078896808E+03  0.32532493659E+03 -0.88984349889E+03  0.10144294215E+04  0.91413260548E+02 0.  0.
          4    1    3    3  502    0  0.98241653550E+02  0.79939067707E+02 -0.97858091765E+02  0.16005587513E+03  0.00000000000E+00 0. -1.
         -3    1    3    3    0  502  0.23035599619E+03  0.53199326196E+02 -0.14887008811E+03  0.27938567684E+03  0.00000000000E+00 0.  1.
         11    1    5    5    0    0  0.41179101351E+02 -0.43089567893E+03 -0.10342296093E+04  0.11211590829E+04  0.00000000000E+00 0.  1.
        -11    1    5    5    0    0 -0.18987783016E+02 -0.27567651567E+02 -0.11136344765E+03  0.11628554850E+03  0.00000000000E+00 0. -1.
          1    1    6    6  503    0 -0.42647994417E+02  0.55765242053E+01 -0.80120564629E+02  0.90935438232E+02  0.00000000000E+00 0. -1.
         -1    1    6    6    0  503 -0.30814097366E+03  0.31974841239E+03 -0.80972293426E+03  0.92349398327E+03  0.00000000000E+00 0.  1.
<mgrwt>
<rscale>  0 0.14265005E+04</rscale>
<asrwt>0</asrwt>
<pdfrwt beam="1">  1        2 0.38257541E+00 0.14265005E+04</pdfrwt>
<pdfrwt beam="2">  1       -1 0.31473144E-01 0.14265005E+04</pdfrwt>
<totfact> 0.36880849E+01</totfact>
</mgrwt>
</event>
<event>
12    6  0.1530720E-007  0.1301141E+04  0.7818608E-02  0.9028661E-01
          2   -1    0    0  501    0  0.00000000000E+00  0.00000000000E+00  0.16662087159E+04  0.16662087159E+04  0.00000000000E+00 0. -1.
         -1   -1    0    0    0  501 -0.00000000000E+00 -0.00000000000E+00 -0.25401479080E+03  0.25401479080E+03  0.00000000000E+00 0.  1.
         24    2    1    2    0    0 -0.16409557099E+03 -0.13042161330E+03  0.72677204403E+03  0.76050993486E+03  0.78997489871E+02 0.  0.
        254    2    1    2    0    0  0.16409557099E+03  0.13042161330E+03  0.68542188108E+03  0.11597135719E+04  0.91169910609E+03 0.  0.
         23    2    4    4    0    0 -0.69346776656E+02  0.48270365767E+03  0.43851894176E+03  0.66216698742E+03  0.91402737320E+02 0.  0.
         23    2    4    4    0    0  0.23344234764E+03 -0.35228204437E+03  0.24690293932E+03  0.49754658443E+03  0.89406788174E+02 0.  0.
          2    1    3    3  502    0 -0.55668456199E+02 -0.91588580295E+02  0.30443554495E+03  0.32275136883E+03  0.00000000000E+00 0. -1.
         -3    1    3    3    0  502 -0.10842711479E+03 -0.38833033000E+02  0.42233649908E+03  0.43775856602E+03  0.00000000000E+00 0.  1.
         11    1    5    5    0    0 -0.49352623057E+02  0.88902630242E+02  0.83183199861E+02  0.13137276661E+03  0.00000000000E+00 0. -1.
        -11    1    5    5    0    0 -0.19994153599E+02  0.39380102743E+03  0.35533574190E+03  0.53079422082E+03  0.00000000000E+00 0.  1.
          3    1    6    6  503    0  0.11836285293E+03 -0.12038774957E+03  0.63901536836E+02  0.18051698427E+03  0.00000000000E+00 0. -1.
         -3    1    6    6    0  503  0.11507949471E+03 -0.23189429480E+03  0.18300140249E+03  0.31702960016E+03  0.00000000000E+00 0.  1.
<mgrwt>
<rscale>  0 0.13011405E+04</rscale>
<asrwt>0</asrwt>
<pdfrwt beam="1">  1        2 0.25633980E+00 0.13011405E+04</pdfrwt>
<pdfrwt beam="2">  1       -1 0.39079200E-01 0.13011405E+04</pdfrwt>
<totfact> 0.72675615E+01</totfact>
</mgrwt>
</event>
<event>
12    6  0.1530720E-007  0.1713488E+04  0.7818608E-02  0.8753709E-01
         -1   -1    0    0    0  501 -0.00000000000E+00  0.00000000000E+00  0.31437874544E+03  0.31437874544E+03  0.00000000000E+00 0.  1.
          2   -1    0    0  501    0  0.00000000000E+00 -0.00000000000E+00 -0.23347968783E+04  0.23347968783E+04  0.00000000000E+00 0. -1.
         24    2    1    2    0    0 -0.44171983838E+03 -0.43423410496E+03 -0.83411890692E+03  0.10417883796E+04  0.76765900206E+02 0.  0.
        254    2    1    2    0    0  0.44171983838E+03  0.43423410496E+03 -0.11862992260E+04  0.16073872442E+04  0.89034388058E+03 0.  0.
         23    2    4    4    0    0 -0.25674646545E+03  0.35624932811E+02 -0.31347498510E+03  0.41679743444E+03  0.90915629599E+02 0.  0.
         23    2    4    4    0    0  0.69846630383E+03  0.39860917215E+03 -0.87282424085E+03  0.11905898097E+04  0.94538298625E+02 0.  0.
          4    1    3    3  502    0 -0.14754531118E+03 -0.19435852823E+03 -0.34807273816E+03  0.42508762320E+03  0.00000000000E+00 0. -1.
         -3    1    3    3    0  502 -0.29417452720E+03 -0.23987557673E+03 -0.48604616876E+03  0.61670075639E+03  0.00000000000E+00 0.  1.
         11    1    5    5    0    0 -0.10049179519E+03  0.59244477084E+02 -0.13405893659E+03  0.17770849008E+03  0.00000000000E+00 0. -1.
        -11    1    5    5    0    0 -0.15625467026E+03 -0.23619544273E+02 -0.17941604851E+03  0.23908894435E+03  0.00000000000E+00 0.  1.
          2    1    6    6  503    0  0.24296603463E+03  0.91389760229E+02 -0.25667199081E+03  0.36505491796E+03  0.00000000000E+00 0. -1.
         -2    1    6    6    0  503  0.45550026920E+03  0.30721941192E+03 -0.61615225004E+03  0.82553489177E+03  0.00000000000E+00 0.  1.
<mgrwt>
<rscale>  0 0.17134883E+04</rscale>
<asrwt>0</asrwt>
<pdfrwt beam="1">  1        2 0.35919952E+00 0.17134883E+04</pdfrwt>
<pdfrwt beam="2">  1       -1 0.48365961E-01 0.17134883E+04</pdfrwt>
<totfact> 0.20065254E+01</totfact>
</mgrwt>
</event>
<event>
12    6  0.1530720E-007  0.1123638E+04  0.7818608E-02  0.9182454E-01
          2   -1    0    0  501    0  0.00000000000E+00  0.00000000000E+00  0.15012211753E+04  0.15012211753E+04  0.00000000000E+00 0. -1.
         -1   -1    0    0    0  501 -0.00000000000E+00 -0.00000000000E+00 -0.21025606402E+03  0.21025606402E+03  0.00000000000E+00 0.  1.
         24    2    1    2    0    0 -0.41576327980E+02  0.15555550251E+03  0.11423280762E+03  0.21366270323E+03  0.81709919875E+02 0.  0.
        254    2    1    2    0    0  0.41576327980E+02 -0.15555550251E+03  0.11767323036E+04  0.14978145360E+04  0.91259156505E+03 0.  0.
         23    2    4    4    0    0  0.29028039567E+03 -0.30624695682E+03  0.20234439840E+03  0.47686659022E+03  0.91698324040E+02 0.  0.
         23    2    4    4    0    0 -0.24870406769E+03  0.15069145431E+03  0.97438790521E+03  0.10209479458E+04  0.91330666106E+02 0.  0.
          4    1    3    3  502    0 -0.65785121660E+02  0.97075725951E+02  0.74786659621E+02  0.13908423080E+03  0.00000000000E+00 0. -1.
         -3    1    3    3    0  502  0.24208793680E+02  0.58479776557E+02  0.39446147997E+02  0.74578472426E+02  0.00000000000E+00 0.  1.
         11    1    5    5    0    0  0.40848352756E+02 -0.35725448322E+02  0.63619195835E+02  0.83619959695E+02  0.00000000000E+00 0. -1.
        -11    1    5    5    0    0  0.24943204291E+03 -0.27052150850E+03  0.13872520257E+03  0.39324663052E+03  0.00000000000E+00 0.  1.
          3    1    6    6  503    0 -0.10670719521E+03  0.20320101370E+02  0.28105441493E+03  0.30131531023E+03  0.00000000000E+00 0. -1.
         -3    1    6    6    0  503 -0.14199687248E+03  0.13037135294E+03  0.69333349028E+03  0.71963263559E+03  0.00000000000E+00 0.  1.
<mgrwt>
<rscale>  0 0.11236385E+04</rscale>
<asrwt>0</asrwt>
<pdfrwt beam="1">  1        2 0.23095710E+00 0.11236385E+04</pdfrwt>
<pdfrwt beam="2">  1       -1 0.32347088E-01 0.11236385E+04</pdfrwt>
<totfact> 0.12780169E+02</totfact>
</mgrwt>
</event>
<event>
12    6  0.1530720E-007  0.3645754E+04  0.7818608E-02  0.8080091E-01
         -1   -1    0    0    0  501 -0.00000000000E+00  0.00000000000E+00  0.16444177610E+04  0.16444177610E+04  0.00000000000E+00 0.  1.
          2   -1    0    0  501    0  0.00000000000E+00 -0.00000000000E+00 -0.20207031290E+04  0.20207031290E+04  0.00000000000E+00 0. -1.
         24    2    1    2    0    0  0.27437943573E+03 -0.15030427991E+04  0.59680676441E+03  0.16427816616E+04  0.90175067218E+02 0.  0.
        254    2    1    2    0    0 -0.27437943573E+03  0.15030427991E+04 -0.97309213236E+03  0.20223392285E+04  0.89918069721E+03 0.  0.
         23    2    4    4    0    0  0.18799758490E+03  0.19049472820E+03 -0.45335272946E+03  0.53401101604E+03  0.89485946095E+02 0.  0.
         23    2    4    4    0    0 -0.46237702063E+03  0.13125480709E+04 -0.51973940290E+03  0.14883282124E+04  0.91743519180E+02 0.  0.
          2    1    3    3  502    0  0.54504105336E+02 -0.34546397556E+03  0.17680508853E+03  0.39188786054E+03  0.00000000000E+00 0. -1.
         -1    1    3    3    0  502  0.21987533039E+03 -0.11575788236E+04  0.42000167589E+03  0.12508938010E+04  0.00000000000E+00 0.  1.
         11    1    5    5    0    0  0.51834531394E+02  0.37537385715E+02 -0.18948615015E+03  0.20000218766E+03  0.00000000000E+00 0. -1.
        -11    1    5    5    0    0  0.13616305351E+03  0.15295734249E+03 -0.26386657930E+03  0.33400882838E+03  0.00000000000E+00 0.  1.
          1    1    6    6  503    0 -0.44986170070E+03  0.12980596832E+04 -0.50330373891E+03  0.14630957401E+04  0.00000000000E+00 0. -1.
         -1    1    6    6    0  503 -0.12515319929E+02  0.14488387672E+02 -0.16435663995E+02  0.25232472357E+02  0.00000000000E+00 0.  1.
<mgrwt>
<rscale>  0 0.36457538E+04</rscale>
<asrwt>0</asrwt>
<pdfrwt beam="1">  1        2 0.31087740E+00 0.36457538E+04</pdfrwt>
<pdfrwt beam="2">  1       -1 0.25298735E+00 0.36457538E+04</pdfrwt>
<totfact> 0.40056258E-01</totfact>
</mgrwt>
</event>
<event>
12    6  0.1530720E-007  0.1761051E+04  0.7818608E-02  0.8727291E-01
          2   -1    0    0  501    0  0.00000000000E+00  0.00000000000E+00  0.11608284245E+04  0.11608284245E+04  0.00000000000E+00 0. -1.
         -1   -1    0    0    0  501 -0.00000000000E+00 -0.00000000000E+00 -0.66790648872E+03  0.66790648872E+03  0.00000000000E+00 0.  1.
         24    2    1    2    0    0  0.20732354265E+03  0.61589205499E+03  0.17450585279E+03  0.67764881559E+03  0.80309089675E+02 0.  0.
        254    2    1    2    0    0 -0.20732354265E+03 -0.61589205499E+03  0.31841608301E+03  0.11510860976E+04  0.89515603531E+03 0.  0.
         23    2    4    4    0    0 -0.29466192923E+03 -0.16467336829E+03  0.53199894653E+03  0.63673371810E+03  0.91999879881E+02 0.  0.
         23    2    4    4    0    0  0.87338386574E+02 -0.45121868670E+03 -0.21358286352E+03  0.51435237955E+03  0.87831849364E+02 0.  0.
          4    1    3    3  502    0  0.20580747464E+03  0.60697119801E+03  0.16005218093E+03  0.66059628553E+03  0.00000000000E+00 0. -1.
         -1    1    3    3    0  502  0.15160680161E+01  0.89208569732E+01  0.14453671861E+02  0.17052530065E+02  0.00000000000E+00 0.  1.
         11    1    5    5    0    0 -0.26679468071E+03 -0.12166302498E+03  0.40692071540E+03  0.50156331796E+03  0.00000000000E+00 0. -1.
        -11    1    5    5    0    0 -0.27867248516E+02 -0.43010343310E+02  0.12507823112E+03  0.13517040013E+03  0.00000000000E+00 0.  1.
          1    1    6    6  503    0  0.58267415510E+02 -0.22076656763E+03 -0.60635797888E+02  0.23624070157E+03  0.00000000000E+00 0. -1.
         -1    1    6    6    0  503  0.29070971065E+02 -0.23045211906E+03 -0.15294706563E+03  0.27811167797E+03  0.00000000000E+00 0.  1.
<mgrwt>
<rscale>  0 0.17610506E+04</rscale>
<asrwt>0</asrwt>
<pdfrwt beam="1">  1        2 0.17858899E+00 0.17610506E+04</pdfrwt>
<pdfrwt beam="2">  1       -1 0.10275484E+00 0.17610506E+04</pdfrwt>
<totfact> 0.19336012E+01</totfact>
</mgrwt>
</event>
<event>
12    6  0.1530720E-007  0.2965472E+04  0.7818608E-02  0.8253660E-01
          2   -1    0    0  501    0  0.00000000000E+00  0.00000000000E+00  0.36612972965E+04  0.36612972965E+04  0.00000000000E+00 0. -1.
         -1   -1    0    0    0  501 -0.00000000000E+00 -0.00000000000E+00 -0.60047185522E+03  0.60047185522E+03  0.00000000000E+00 0.  1.
         24    2    1    2    0    0 -0.11809336618E+04 -0.64294280716E+03  0.14768804575E+04  0.19988737870E+04  0.79628911394E+02 0.  0.
        254    2    1    2    0    0  0.11809336618E+04  0.64294280716E+03  0.15839449837E+04  0.22628953647E+04  0.89656787449E+03 0.  0.
         23    2    4    4    0    0  0.29705099011E+03  0.60773242435E+03  0.95625996608E+03  0.11745967053E+04  0.87557450441E+02 0.  0.
         23    2    4    4    0    0  0.88388267166E+03  0.35210382813E+02  0.62768501764E+03  0.10882986594E+04  0.88978325401E+02 0.  0.
          2    1    3    3  502    0 -0.45782701482E+02 -0.91110525822E+01  0.57127052715E+02  0.73773756757E+02  0.00000000000E+00 0. -1.
         -1    1    3    3    0  502 -0.11351509603E+04 -0.63383175458E+03  0.14197534048E+04  0.19251000302E+04  0.00000000000E+00 0.  1.
         11    1    5    5    0    0  0.23516870423E+03  0.53974028711E+03  0.79986347976E+03  0.99317948188E+03  0.00000000000E+00 0. -1.
        -11    1    5    5    0    0  0.61882285881E+02  0.67992137236E+02  0.15639648632E+03  0.18141722345E+03  0.00000000000E+00 0.  1.
          3    1    6    6  503    0  0.11620028463E+03  0.10670180048E+02  0.48693905490E+02  0.12644150949E+03  0.00000000000E+00 0.  1.
         -3    1    6    6    0  503  0.76768238703E+03  0.24540202765E+02  0.57899111215E+03  0.96185714992E+03  0.00000000000E+00 0. -1.
<mgrwt>
<rscale>  0 0.29654720E+04</rscale>
<asrwt>0</asrwt>
<pdfrwt beam="1">  1        2 0.56327649E+00 0.29654720E+04</pdfrwt>
<pdfrwt beam="2">  1       -1 0.92380288E-01 0.29654720E+04</pdfrwt>
<totfact> 0.69243978E-01</totfact>
</mgrwt>
</event>
<event>
12    6  0.1530720E-007  0.1312021E+04  0.7818608E-02  0.9020086E-01
          4   -1    0    0  501    0  0.00000000000E+00  0.00000000000E+00  0.46850433341E+03  0.46850433341E+03  0.00000000000E+00 0. -1.
         -3   -1    0    0    0  501 -0.00000000000E+00 -0.00000000000E+00 -0.91856077795E+03  0.91856077795E+03  0.00000000000E+00 0.  1.
         24    2    1    2    0    0  0.19985990043E+03  0.29885394974E+03 -0.56674796026E+02  0.37174652171E+03  0.75668889392E+02 0.  0.
        254    2    1    2    0    0 -0.19985990043E+03 -0.29885394974E+03 -0.39338164852E+03  0.10153185897E+04  0.86421354654E+03 0.  0.
         23    2    4    4    0    0 -0.51284382962E+03 -0.14269907171E+03 -0.98445153902E+02  0.54903319012E+03  0.91510528834E+02 0.  0.
         23    2    4    4    0    0  0.31298392919E+03 -0.15615487804E+03 -0.29493649462E+03  0.46628539953E+03  0.89951387359E+02 0.  0.
          4    1    3    3  502    0  0.19394950991E+03  0.30151496425E+03 -0.61397079760E+02  0.36372694080E+03  0.00000000000E+00 0. -1.
         -3    1    3    3    0  502  0.59103905130E+01 -0.26610145081E+01  0.47222837334E+01  0.80195809047E+01  0.00000000000E+00 0.  1.
         11    1    5    5    0    0 -0.39331308412E+03 -0.75577517487E+02 -0.49903800587E+02  0.40360566473E+03  0.00000000000E+00 0.  1.
        -11    1    5    5    0    0 -0.11953074549E+03 -0.67121554220E+02 -0.48541353315E+02  0.14542752539E+03  0.00000000000E+00 0. -1.
          4    1    6    6  503    0  0.16455108427E+03 -0.32174979680E+02 -0.13175433824E+03  0.21324046121E+03  0.00000000000E+00 0. -1.
         -4    1    6    6    0  503  0.14843284492E+03 -0.12397989836E+03 -0.16318215638E+03  0.25304493832E+03  0.00000000000E+00 0.  1.
<mgrwt>
<rscale>  0 0.13120209E+04</rscale>
<asrwt>0</asrwt>
<pdfrwt beam="1">  1        4 0.72077590E-01 0.13120209E+04</pdfrwt>
<pdfrwt beam="2">  1       -3 0.14131704E+00 0.13120209E+04</pdfrwt>
<totfact> 0.14783336E+00</totfact>
</mgrwt>
</event>
<event>
12    6  0.1530720E-007  0.1671848E+04  0.7818608E-02  0.8777585E-01
          2   -1    0    0  501    0  0.00000000000E+00  0.00000000000E+00  0.10117813125E+04  0.10117813125E+04  0.00000000000E+00 0. -1.
         -1   -1    0    0    0  501 -0.00000000000E+00 -0.00000000000E+00 -0.69063217613E+03  0.69063217613E+03  0.00000000000E+00 0.  1.
         24    2    1    2    0    0  0.52394128308E+03  0.38584168737E+02 -0.15356098609E+03  0.55333463327E+03  0.81209813049E+02 0.  0.
        254    2    1    2    0    0 -0.52394128308E+03 -0.38584168737E+02  0.47471012245E+03  0.11490788554E+04  0.90500238081E+03 0.  0.
         23    2    4    4    0    0  0.12960106249E+03 -0.75540632853E+02 -0.15562428122E+03  0.23554042110E+03  0.93581784859E+02 0.  0.
         23    2    4    4    0    0 -0.65354234556E+03  0.36956464116E+02  0.63033440368E+03  0.91353843425E+03  0.93528780096E+02 0.  0.
          2    1    3    3  502    0  0.68629866869E+02 -0.22427615591E+02 -0.19336832391E+02  0.74746034373E+02  0.00000000000E+00 0. -1.
         -1    1    3    3    0  502  0.45531141621E+03  0.61011784328E+02 -0.13422415370E+03  0.47858859889E+03  0.00000000000E+00 0.  1.
         11    1    5    5    0    0  0.11625479123E+02 -0.47851716565E+01 -0.75088066201E+02  0.76133220859E+02  0.00000000000E+00 0. -1.
        -11    1    5    5    0    0  0.11797558337E+03 -0.70755461197E+02 -0.80536215021E+02  0.15940720024E+03  0.00000000000E+00 0.  1.
          2    1    6    6  503    0 -0.28913394364E+03  0.17704322408E+02  0.34382614783E+03  0.44958681068E+03  0.00000000000E+00 0. -1.
         -2    1    6    6    0  503 -0.36440840192E+03  0.19252141708E+02  0.28650825584E+03  0.46395162357E+03  0.00000000000E+00 0.  1.
<mgrwt>
<rscale>  0 0.16718478E+04</rscale>
<asrwt>0</asrwt>
<pdfrwt beam="1">  1        2 0.15565866E+00 0.16718478E+04</pdfrwt>
<pdfrwt beam="2">  1       -1 0.10625110E+00 0.16718478E+04</pdfrwt>
<totfact> 0.22306731E+01</totfact>
</mgrwt>
</event>
<event>
12    6  0.1530720E-007  0.2356665E+04  0.7818608E-02  0.8455908E-01
          2   -1    0    0  501    0  0.00000000000E+00  0.00000000000E+00  0.20162184439E+04  0.20162184439E+04  0.00000000000E+00 0. -1.
         -1   -1    0    0    0  501 -0.00000000000E+00 -0.00000000000E+00 -0.68864941994E+03  0.68864941994E+03  0.00000000000E+00 0.  1.
         24    2    1    2    0    0 -0.95071427433E+03 -0.30721976468E+03  0.67322230622E+03  0.12073589330E+04  0.79029767667E+02 0.  0.
        254    2    1    2    0    0  0.95071427433E+03  0.30721976468E+03  0.65434671776E+03  0.14975089309E+04  0.90339457374E+03 0.  0.
         23    2    4    4    0    0  0.52927037697E+03 -0.28859433430E+03  0.33026981537E+03  0.69340433385E+03  0.91200863673E+02 0.  0.
         23    2    4    4    0    0  0.42144389736E+03  0.59581409898E+03  0.32407690239E+03  0.80410459705E+03  0.94598970200E+02 0.  0.
          4    1    3    3  502    0 -0.51963443141E+03 -0.16739419963E+03  0.32026819164E+03  0.63293955079E+03  0.00000000000E+00 0. -1.
         -3    1    3    3    0  502 -0.43107984292E+03 -0.13982556506E+03  0.35295411457E+03  0.57441938217E+03  0.00000000000E+00 0.  1.
         11    1    5    5    0    0  0.48055845412E+02 -0.38249543194E+02  0.65513087283E+02  0.89801761888E+02  0.00000000000E+00 0. -1.
        -11    1    5    5    0    0  0.48121453156E+03 -0.25034479111E+03  0.26475672809E+03  0.60360257197E+03  0.00000000000E+00 0.  1.
          3    1    6    6  503    0  0.19617556208E+03  0.24652841284E+03  0.92690095814E+02  0.32840914018E+03  0.00000000000E+00 0. -1.
         -3    1    6    6    0  503  0.22526833528E+03  0.34928568614E+03  0.23138680657E+03  0.47569545687E+03  0.00000000000E+00 0.  1.
<mgrwt>
<rscale>  0 0.23566652E+04</rscale>
<asrwt>0</asrwt>
<pdfrwt beam="1">  1        2 0.31018745E+00 0.23566652E+04</pdfrwt>
<pdfrwt beam="2">  1       -1 0.10594607E+00 0.23566652E+04</pdfrwt>
<totfact> 0.56023143E+00</totfact>
</mgrwt>
</event>
<event>
12    6  0.1695838E-007  0.1753404E+04  0.7818608E-02  0.8731479E-01
         -1   -1    0    0    0  501 -0.00000000000E+00  0.00000000000E+00  0.30011801713E+03  0.30011801713E+03  0.00000000000E+00 0.  1.
          2   -1    0    0  501    0  0.00000000000E+00 -0.00000000000E+00 -0.25610145688E+04  0.25610145688E+04  0.00000000000E+00 0. -1.
         24    2    1    2    0    0  0.40850452424E+03 -0.37428123570E+03 -0.12490449170E+04  0.13686402321E+04  0.78105637350E+02 0.  0.
        254    2    1    2    0    0 -0.40850452424E+03  0.37428123570E+03 -0.10118516347E+04  0.14924923539E+04  0.94695686593E+03 0.  0.
         23    2    4    4    0    0 -0.29198009244E+03  0.27091348205E+03 -0.11785926220E+04  0.12473933239E+04  0.90901302224E+02 0.  0.
         23    2    4    4    0    0 -0.11652443179E+03  0.10336775365E+03  0.16674098728E+03  0.24509902995E+03  0.89488222397E+02 0.  0.
          2    1    3    3  502    0  0.38688001651E+03 -0.32817069880E+03 -0.11060926674E+04  0.12168866602E+04  0.00000000000E+00 0. -1.
         -1    1    3    3    0  502  0.21624507722E+02 -0.46110536897E+02 -0.14295224954E+03  0.15175357194E+03  0.00000000000E+00 0.  1.
         11    1    5    5    0    0 -0.23856461252E+03  0.25918065826E+03 -0.97910837914E+03  0.10405483680E+04  0.00000000000E+00 0. -1.
        -11    1    5    5    0    0 -0.53415479922E+02  0.11732823790E+02 -0.19948424287E+03  0.20684495595E+03  0.00000000000E+00 0.  1.
          4    1    6    6  503    0 -0.12084689746E+03  0.10564951686E+03  0.17375403819E+03  0.23655075317E+03  0.00000000000E+00 0. -1.
         -4    1    6    6    0  503  0.43224656667E+01 -0.22817632141E+01 -0.70130509146E+01  0.85482767816E+01  0.00000000000E+00 0.  1.
<mgrwt>
<rscale>  0 0.17534042E+04</rscale>
<asrwt>0</asrwt>
<pdfrwt beam="1">  1        2 0.39400224E+00 0.17534042E+04</pdfrwt>
<pdfrwt beam="2">  1       -1 0.46172003E-01 0.17534042E+04</pdfrwt>
<totfact> 0.16178339E+01</totfact>
</mgrwt>
</event>
<event>
12    6  0.1530720E-007  0.2645091E+04  0.7818608E-02  0.8353044E-01
          2   -1    0    0  501    0  0.00000000000E+00  0.00000000000E+00  0.25652258383E+04  0.25652258383E+04  0.00000000000E+00 0. -1.
         -1   -1    0    0    0  501 -0.00000000000E+00 -0.00000000000E+00 -0.68186044965E+03  0.68186044965E+03  0.00000000000E+00 0.  1.
         24    2    1    2    0    0  0.11663402364E+04  0.33991142904E+02  0.94414413250E+03  0.15030990407E+04  0.79960230466E+02 0.  0.
        254    2    1    2    0    0 -0.11663402364E+04 -0.33991142904E+02  0.93922125614E+03  0.17439872472E+04  0.89322449905E+03 0.  0.
         23    2    4    4    0    0 -0.74729743548E+03  0.23953527675E+03  0.14830948696E+03  0.80367710342E+03  0.89836388794E+02 0.  0.
         23    2    4    4    0    0 -0.41904280089E+03 -0.27352641965E+03  0.79091176918E+03  0.94031014380E+03  0.90709253577E+02 0.  0.
          4    1    3    3  502    0  0.25835630364E+03 -0.54743136328E+01  0.17076899698E+03  0.30974182486E+03  0.00000000000E+00 0. -1.
         -3    1    3    3    0  502  0.90798393274E+03  0.39465456537E+02  0.77337513552E+03  0.11933572158E+04  0.00000000000E+00 0.  1.
         11    1    5    5    0    0 -0.31015815075E+03  0.54059743829E+02  0.67537728829E+02  0.32199670681E+03  0.00000000000E+00 0. -1.
        -11    1    5    5    0    0 -0.43713928473E+03  0.18547553292E+03  0.80771758131E+02  0.48168039661E+03  0.00000000000E+00 0.  1.
          2    1    6    6  503    0 -0.97995675104E+02 -0.56941675193E+02  0.11598110274E+03  0.16216387670E+03  0.00000000000E+00 0. -1.
         -2    1    6    6    0  503 -0.32104712579E+03 -0.21658474446E+03  0.67493066644E+03  0.77814626710E+03  0.00000000000E+00 0.  1.
<mgrwt>
<rscale>  0 0.26450906E+04</rscale>
<asrwt>0</asrwt>
<pdfrwt beam="1">  1        2 0.39465013E+00 0.26450906E+04</pdfrwt>
<pdfrwt beam="2">  1       -1 0.10490161E+00 0.26450906E+04</pdfrwt>
<totfact> 0.27262525E+00</totfact>
</mgrwt>
</event>
<event>
12    6  0.1530720E-007  0.1778046E+04  0.7818608E-02  0.8718062E-01
          2   -1    0    0  501    0  0.00000000000E+00  0.00000000000E+00  0.18127428464E+04  0.18127428464E+04  0.00000000000E+00 0. -1.
         -1   -1    0    0    0  501 -0.00000000000E+00 -0.00000000000E+00 -0.43600314310E+03  0.43600314310E+03  0.00000000000E+00 0.  1.
         24    2    1    2    0    0 -0.14518966222E+03 -0.15995639969E+03  0.13118243523E+04  0.13319036008E+04  0.80112313229E+02 0.  0.
        254    2    1    2    0    0  0.14518966222E+03  0.15995639969E+03  0.64915351016E+02  0.91684238872E+03  0.88866184521E+03 0.  0.
         23    2    4    4    0    0 -0.17950288795E+03  0.11308015258E+03 -0.32588706200E+03  0.39938209977E+03  0.91078409889E+02 0.  0.
         23    2    4    4    0    0  0.32469255017E+03  0.46876247110E+02  0.39080241302E+03  0.51746028894E+03  0.86116142117E+02 0.  0.
          2    1    3    3  502    0 -0.15452600405E+03 -0.15731248007E+03  0.12663201393E+04  0.12853762864E+04  0.00000000000E+00 0. -1.
         -1    1    3    3    0  502  0.93363418249E+01 -0.26439196141E+01  0.45504213002E+02  0.46527314456E+02  0.00000000000E+00 0.  1.
         11    1    5    5    0    0 -0.18384104267E+01 -0.12656229350E+02 -0.24245557597E+02  0.27411803250E+02  0.00000000000E+00 0.  1.
        -11    1    5    5    0    0 -0.17766447752E+03  0.12573638193E+03 -0.30164150441E+03  0.37197029652E+03  0.00000000000E+00 0. -1.
          1    1    6    6  503    0  0.16404955586E+03  0.61831731422E+02  0.17193643301E+03  0.24555560834E+03  0.00000000000E+00 0. -1.
         -1    1    6    6    0  503  0.16064299431E+03 -0.14955484312E+02  0.21886598001E+03  0.27190468061E+03  0.00000000000E+00 0.  1.
<mgrwt>
<rscale>  0 0.17780456E+04</rscale>
<asrwt>0</asrwt>
<pdfrwt beam="1">  1        2 0.27888351E+00 0.17780456E+04</pdfrwt>
<pdfrwt beam="2">  1       -1 0.67077408E-01 0.17780456E+04</pdfrwt>
<totfact> 0.20586719E+01</totfact>
</mgrwt>
</event>
<event>
12    6  0.1530720E-007  0.2850026E+04  0.7818608E-02  0.8287903E-01
          2   -1    0    0  501    0  0.00000000000E+00  0.00000000000E+00  0.20987380155E+04  0.20987380155E+04  0.00000000000E+00 0. -1.
         -1   -1    0    0    0  501 -0.00000000000E+00 -0.00000000000E+00 -0.96756346028E+03  0.96756346028E+03  0.00000000000E+00 0.  1.
         24    2    1    2    0    0 -0.10203276109E+04 -0.83979707605E+02  0.13403018281E+04  0.16884479355E+04  0.79538768065E+02 0.  0.
        254    2    1    2    0    0  0.10203276109E+04  0.83979707605E+02 -0.20912727285E+03  0.13778535403E+04  0.89812311929E+03 0.  0.
         23    2    4    4    0    0  0.98148597744E+03  0.18506890490E+03 -0.44978119636E+03  0.10992388487E+04  0.91965746419E+02 0.  0.
         23    2    4    4    0    0  0.38841633475E+02 -0.10108919730E+03  0.24065392351E+03  0.27861469156E+03  0.89353999071E+02 0.  0.
          4    1    3    3  502    0 -0.57899975059E+03 -0.60882392171E+02  0.82248781510E+03  0.10076872446E+04  0.00000000000E+00 0. -1.
         -3    1    3    3    0  502 -0.44132786033E+03 -0.23097315434E+02  0.51781401298E+03  0.68076069094E+03  0.00000000000E+00 0.  1.
         11    1    5    5    0    0  0.69969948704E+03  0.11190656389E+03 -0.27776840182E+03  0.76108983455E+03  0.00000000000E+00 0.  1.
        -11    1    5    5    0    0  0.28178649040E+03  0.73162341009E+02 -0.17201279454E+03  0.33814901419E+03  0.00000000000E+00 0. -1.
          1    1    6    6  503    0 -0.24581166160E+02 -0.74058666557E+01  0.62593383730E+02  0.67653619840E+02  0.00000000000E+00 0. -1.
         -1    1    6    6    0  503  0.63422799635E+02 -0.93683330643E+02  0.17806053978E+03  0.21096107172E+03  0.00000000000E+00 0.  1.
<mgrwt>
<rscale>  0 0.28500261E+04</rscale>
<asrwt>0</asrwt>
<pdfrwt beam="1">  1        2 0.32288277E+00 0.28500261E+04</pdfrwt>
<pdfrwt beam="2">  1       -1 0.14885592E+00 0.28500261E+04</pdfrwt>
<totfact> 0.20661163E+00</totfact>
</mgrwt>
</event>
<event>
12    6  0.1530720E-007  0.2385494E+04  0.7818608E-02  0.8444954E-01
         -1   -1    0    0    0  501 -0.00000000000E+00  0.00000000000E+00  0.12721475274E+04  0.12721475274E+04  0.00000000000E+00 0.  1.
          2   -1    0    0  501    0  0.00000000000E+00 -0.00000000000E+00 -0.11183023985E+04  0.11183023985E+04  0.00000000000E+00 0. -1.
         24    2    1    2    0    0  0.13106174057E+03 -0.61895064406E+03 -0.73865930116E+03  0.97633050933E+03  0.85595681184E+02 0.  0.
        254    2    1    2    0    0 -0.13106174057E+03  0.61895064406E+03  0.89250443009E+03  0.14141194166E+04  0.89604268143E+03 0.  0.
         23    2    4    4    0    0  0.24733916589E+03  0.21845075744E+03 -0.21086597262E+02  0.34334372110E+03  0.92427646448E+02 0.  0.
         23    2    4    4    0    0 -0.37840090646E+03  0.40049988662E+03  0.91359102735E+03  0.10707756955E+04  0.91239353001E+02 0.  0.
          2    1    3    3  502    0  0.87411794624E+02 -0.48672049845E+03 -0.62237059574E+03  0.79491057603E+03  0.00000000000E+00 0. -1.
         -1    1    3    3    0  502  0.43649945946E+02 -0.13223014561E+03 -0.11628870542E+03  0.18141993330E+03  0.00000000000E+00 0.  1.
         11    1    5    5    0    0  0.24154578414E+03  0.17773983075E+03 -0.73298955687E+01  0.29998256723E+03  0.00000000000E+00 0. -1.
        -11    1    5    5    0    0  0.57933817492E+01  0.40710926687E+02 -0.13756701693E+02  0.43361153874E+02  0.00000000000E+00 0.  1.
          2    1    6    6  503    0 -0.48581519013E+02  0.74364961154E+02  0.96113248773E+02  0.13087424509E+03  0.00000000000E+00 0. -1.
         -2    1    6    6    0  503 -0.32981938745E+03  0.32613492547E+03  0.81747777857E+03  0.93990145037E+03  0.00000000000E+00 0.  1.
<mgrwt>
<rscale>  0 0.23854942E+04</rscale>
<asrwt>0</asrwt>
<pdfrwt beam="1">  1        2 0.17204652E+00 0.23854942E+04</pdfrwt>
<pdfrwt beam="2">  1       -1 0.19571501E+00 0.23854942E+04</pdfrwt>
<totfact> 0.35111235E+00</totfact>
</mgrwt>
</event>
<event>
12    6  0.1530720E-007  0.2264840E+04  0.7818608E-02  0.8491915E-01
          2   -1    0    0  501    0  0.00000000000E+00  0.00000000000E+00  0.14232124469E+04  0.14232124469E+04  0.00000000000E+00 0. -1.
         -1   -1    0    0    0  501 -0.00000000000E+00 -0.00000000000E+00 -0.90104264695E+03  0.90104264695E+03  0.00000000000E+00 0.  1.
         24    2    1    2    0    0 -0.52476863227E+03 -0.44773944965E+03 -0.45569133902E+03  0.83016934017E+03  0.75324662030E+02 0.  0.
        254    2    1    2    0    0  0.52476863227E+03  0.44773944965E+03  0.97786113899E+03  0.14940857537E+04  0.89455413479E+03 0.  0.
         23    2    4    4    0    0  0.84504894605E+02 -0.15381489148E+03  0.64093269904E+03  0.67084748213E+03  0.91877753156E+02 0.  0.
         23    2    4    4    0    0  0.44026373767E+03  0.60155434113E+03  0.33692843995E+03  0.82323827157E+03  0.92199208743E+02 0.  0.
          2    1    3    3  502    0 -0.12507491562E+03 -0.97535144330E+02 -0.69057756117E+02  0.17299078755E+03  0.00000000000E+00 0. -1.
         -1    1    3    3    0  502 -0.39969371665E+03 -0.35020430532E+03 -0.38663358290E+03  0.65717855262E+03  0.00000000000E+00 0.  1.
         11    1    5    5    0    0  0.96688506833E+02 -0.15401814228E+03  0.55446051170E+03  0.58352096324E+03  0.00000000000E+00 0.  1.
        -11    1    5    5    0    0 -0.12183612228E+02  0.20325079971E+00  0.86472187336E+02  0.87326518884E+02  0.00000000000E+00 0. -1.
          2    1    6    6  503    0  0.40763520822E+03  0.53410522853E+03  0.27483496586E+03  0.72592638510E+03  0.00000000000E+00 0.  1.
         -2    1    6    6    0  503  0.32628529452E+02  0.67449112603E+02  0.62093474085E+02  0.97311886474E+02  0.00000000000E+00 0. -1.
<mgrwt>
<rscale>  0 0.22648400E+04</rscale>
<asrwt>0</asrwt>
<pdfrwt beam="1">  1        2 0.21895576E+00 0.22648400E+04</pdfrwt>
<pdfrwt beam="2">  1       -1 0.13862195E+00 0.22648400E+04</pdfrwt>
<totfact> 0.62541756E+00</totfact>
</mgrwt>
</event>
<event>
12    6  0.1530720E-007  0.1452112E+04  0.7818608E-02  0.8916937E-01
         -1   -1    0    0    0  501 -0.00000000000E+00  0.00000000000E+00  0.19939068098E+03  0.19939068098E+03  0.00000000000E+00 0.  1.
          2   -1    0    0  501    0  0.00000000000E+00 -0.00000000000E+00 -0.26438430203E+04  0.26438430203E+04  0.00000000000E+00 0. -1.
         24    2    1    2    0    0 -0.15164629891E+03 -0.23359524475E+03 -0.14007759177E+04  0.14306105813E+04  0.83127163985E+02 0.  0.
        254    2    1    2    0    0  0.15164629891E+03  0.23359524475E+03 -0.10436764216E+04  0.14126231200E+04  0.91031877258E+03 0.  0.
         23    2    4    4    0    0 -0.13949160271E+03  0.22244328679E+03 -0.10710675800E+04  0.11063765953E+04  0.89131849283E+02 0.  0.
         23    2    4    4    0    0  0.29113790162E+03  0.11151957960E+02  0.27391158341E+02  0.30624652475E+03  0.90282968724E+02 0.  0.
          2    1    3    3  502    0 -0.10142454049E+03 -0.14362099243E+03 -0.67352624431E+03  0.69609735573E+03  0.00000000000E+00 0. -1.
         -1    1    3    3    0  502 -0.50221758419E+02 -0.89974252322E+02 -0.72724967338E+03  0.73451322556E+03  0.00000000000E+00 0.  1.
         11    1    5    5    0    0 -0.92856021418E+02  0.76426908532E+02 -0.38280553844E+03  0.40125228139E+03  0.00000000000E+00 0. -1.
        -11    1    5    5    0    0 -0.46635581288E+02  0.14601637826E+03 -0.68826204155E+03  0.70512431386E+03  0.00000000000E+00 0.  1.
          1    1    6    6  503    0  0.49272908053E+02 -0.22696246683E+02 -0.19341179946E+02  0.57593578837E+02  0.00000000000E+00 0. -1.
         -1    1    6    6    0  503  0.24186499356E+03  0.33848204643E+02  0.46732338287E+02  0.24865294591E+03  0.00000000000E+00 0.  1.
<mgrwt>
<rscale>  0 0.14521125E+04</rscale>
<asrwt>0</asrwt>
<pdfrwt beam="1">  1        2 0.40674509E+00 0.14521125E+04</pdfrwt>
<pdfrwt beam="2">  1       -1 0.30675489E-01 0.14521125E+04</pdfrwt>
<totfact> 0.31203821E+01</totfact>
</mgrwt>
</event>
<event>
12    6  0.1530720E-007  0.1934881E+04  0.7818608E-02  0.8637686E-01
          2   -1    0    0  501    0  0.00000000000E+00  0.00000000000E+00  0.64263953874E+03  0.64263953874E+03  0.00000000000E+00 0. -1.
         -1   -1    0    0    0  501 -0.00000000000E+00 -0.00000000000E+00 -0.14564008707E+04  0.14564008707E+04  0.00000000000E+00 0.  1.
         24    2    1    2    0    0  0.94605958629E+02 -0.37752318830E+03 -0.10067602378E+04  0.10821356124E+04  0.77312755280E+02 0.  0.
        254    2    1    2    0    0 -0.94605958629E+02  0.37752318830E+03  0.19299890583E+03  0.10169047970E+04  0.91944153892E+03 0.  0.
         23    2    4    4    0    0  0.92275182594E+02 -0.15342406500E+03  0.36904546628E+03  0.42032681859E+03  0.91795561984E+02 0.  0.
         23    2    4    4    0    0 -0.18688114122E+03  0.53094725331E+03 -0.17604656045E+03  0.59657797845E+03  0.89907431210E+02 0.  0.
          4    1    3    3  502    0  0.21419666746E+02 -0.15192509584E+02 -0.50563910146E+02  0.56976516920E+02  0.00000000000E+00 0. -1.
         -3    1    3    3    0  502  0.73186291882E+02 -0.36233067872E+03 -0.95619632769E+03  0.10251590955E+04  0.00000000000E+00 0.  1.
         11    1    5    5    0    0  0.12839881129E+02  0.11901573913E+02  0.26406148440E+02  0.31682719019E+02  0.00000000000E+00 0. -1.
        -11    1    5    5    0    0  0.79435301465E+02 -0.16532563892E+03  0.34263931784E+03  0.38864409957E+03  0.00000000000E+00 0.  1.
          3    1    6    6  503    0 -0.52096340190E+02  0.25676301323E+03 -0.10912316863E+03  0.28381180306E+03  0.00000000000E+00 0. -1.
         -3    1    6    6    0  503 -0.13478480103E+03  0.27418424008E+03 -0.66923391822E+02  0.31276617539E+03  0.00000000000E+00 0.  1.
<mgrwt>
<rscale>  0 0.19348807E+04</rscale>
<asrwt>0</asrwt>
<pdfrwt beam="1">  1        2 0.98867623E-01 0.19348807E+04</pdfrwt>
<pdfrwt beam="2">  1       -1 0.22406167E+00 0.19348807E+04</pdfrwt>
<totfact> 0.50267404E+00</totfact>
</mgrwt>
</event>
<event>
12    6  0.1530720E-007  0.1253246E+04  0.7818608E-02  0.9067486E-01
          2   -1    0    0  501    0  0.00000000000E+00  0.00000000000E+00  0.26797040861E+04  0.26797040861E+04  0.00000000000E+00 0. -1.
         -1   -1    0    0    0  501 -0.00000000000E+00 -0.00000000000E+00 -0.14652977506E+03  0.14652977506E+03  0.00000000000E+00 0.  1.
         24    2    1    2    0    0 -0.12176063691E+02  0.21515017135E+03  0.10367455251E+04  0.10619366125E+04  0.80188729595E+02 0.  0.
        254    2    1    2    0    0  0.12176063691E+02 -0.21515017135E+03  0.14964287859E+04  0.17642972486E+04  0.90939970175E+03 0.  0.
         23    2    4    4    0    0 -0.11123490549E+03  0.33380010689E+03  0.53288756335E+03  0.64489603669E+03  0.90144480733E+02 0.  0.
         23    2    4    4    0    0  0.12341096918E+03 -0.54895027824E+03  0.96354122255E+03  0.11194012119E+04  0.89837133031E+02 0.  0.
          4    1    3    3  502    0 -0.49186062724E+01  0.22036696996E+03  0.10086490562E+04  0.10324527654E+04  0.00000000000E+00 0. -1.
         -3    1    3    3    0  502 -0.72574574185E+01 -0.52167986189E+01  0.28096468910E+02  0.29483847124E+02  0.00000000000E+00 0.  1.
         11    1    5    5    0    0 -0.10705970227E+03  0.30273939008E+03  0.42575263393E+03  0.53327124754E+03  0.00000000000E+00 0.  1.
        -11    1    5    5    0    0 -0.41752032187E+01  0.31060716811E+02  0.10713492942E+03  0.11162478915E+03  0.00000000000E+00 0. -1.
          1    1    6    6  503    0  0.20590774815E+02 -0.23454168534E+03  0.46306801386E+03  0.51948606106E+03  0.00000000000E+00 0. -1.
         -1    1    6    6    0  503  0.10282019437E+03 -0.31440859290E+03  0.50047320868E+03  0.59991515089E+03  0.00000000000E+00 0.  1.
<mgrwt>
<rscale>  0 0.12532461E+04</rscale>
<asrwt>0</asrwt>
<pdfrwt beam="1">  1        2 0.41226213E+00 0.12532461E+04</pdfrwt>
<pdfrwt beam="2">  1       -1 0.22543044E-01 0.12532461E+04</pdfrwt>
<totfact> 0.51506738E+01</totfact>
</mgrwt>
</event>
<event>
12    6  0.1530720E-007  0.1486564E+04  0.7818608E-02  0.8893437E-01
         -1   -1    0    0    0  501 -0.00000000000E+00  0.00000000000E+00  0.33010309066E+03  0.33010309066E+03  0.00000000000E+00 0.  1.
          2   -1    0    0  501    0  0.00000000000E+00 -0.00000000000E+00 -0.16736220026E+04  0.16736220026E+04  0.00000000000E+00 0. -1.
         24    2    1    2    0    0 -0.10403125184E+03  0.84382352322E+02  0.17294126141E+03  0.23303979584E+03  0.80349136940E+02 0.  0.
        254    2    1    2    0    0  0.10403125184E+03 -0.84382352322E+02 -0.15164601733E+04  0.17706852974E+04  0.90428539876E+03 0.  0.
         23    2    4    4    0    0  0.42488505202E+03 -0.10635129430E+03 -0.12934233334E+04  0.13686506290E+04  0.91775376147E+02 0.  0.
         23    2    4    4    0    0 -0.32085380018E+03  0.21968941979E+02 -0.22303683999E+03  0.40203466846E+03  0.91960030169E+02 0.  0.
          4    1    3    3  502    0  0.65056552774E+01 -0.87008221376E+01  0.66762096053E+01  0.12751456041E+02  0.00000000000E+00 0. -1.
         -3    1    3    3    0  502 -0.11053690712E+03  0.93083174460E+02  0.16626505180E+03  0.22028833980E+03  0.00000000000E+00 0.  1.
         11    1    5    5    0    0  0.23717385202E+03 -0.53782527284E+02 -0.57645924601E+03  0.62565905942E+03  0.00000000000E+00 0. -1.
        -11    1    5    5    0    0  0.18771119999E+03 -0.52568767018E+02 -0.71696408734E+03  0.74299156954E+03  0.00000000000E+00 0.  1.
          2    1    6    6  503    0 -0.10492873008E+03 -0.35184092164E+02 -0.64046528301E+02  0.12786679212E+03  0.00000000000E+00 0. -1.
         -2    1    6    6    0  503 -0.21592507009E+03  0.57153034144E+02 -0.15899031169E+03  0.27416787634E+03  0.00000000000E+00 0.  1.
<mgrwt>
<rscale>  0 0.14865635E+04</rscale>
<asrwt>0</asrwt>
<pdfrwt beam="1">  1        2 0.25748030E+00 0.14865635E+04</pdfrwt>
<pdfrwt beam="2">  1       -1 0.50785092E-01 0.14865635E+04</pdfrwt>
<totfact> 0.43548390E+01</totfact>
</mgrwt>
</event>
<event>
12    6  0.1530720E-007  0.2099436E+04  0.7818608E-02  0.8561492E-01
         -1   -1    0    0    0  501 -0.00000000000E+00  0.00000000000E+00  0.13418687606E+04  0.13418687606E+04  0.00000000000E+00 0.  1.
          2   -1    0    0  501    0  0.00000000000E+00 -0.00000000000E+00 -0.82117399248E+03  0.82117399248E+03  0.00000000000E+00 0. -1.
         24    2    1    2    0    0 -0.25462881580E+03 -0.46781160646E+03 -0.47207210834E+03  0.71638923280E+03  0.81718568458E+02 0.  0.
        254    2    1    2    0    0  0.25462881580E+03  0.46781160646E+03  0.99276687645E+03  0.14466535203E+04  0.90748928576E+03 0.  0.
         23    2    4    4    0    0  0.57457339939E+03  0.41058027512E+03  0.65336286645E+03  0.96628582691E+03  0.90080577442E+02 0.  0.
         23    2    4    4    0    0 -0.31994458359E+03  0.57231331333E+02  0.33940401000E+03  0.48036769336E+03  0.99589542434E+02 0.  0.
          2    1    3    3  502    0 -0.17061399833E+03 -0.36241602801E+03 -0.31624476983E+03  0.51035798048E+03  0.00000000000E+00 0. -1.
         -1    1    3    3    0  502 -0.84014817463E+02 -0.10539557844E+03 -0.15582733850E+03  0.20603125232E+03  0.00000000000E+00 0.  1.
         11    1    5    5    0    0  0.51982802686E+01  0.92835653175E+01  0.28820180078E+02  0.30721482427E+02  0.00000000000E+00 0.  1.
        -11    1    5    5    0    0  0.56937511912E+03  0.40129670981E+03  0.62454268637E+03  0.93556434449E+03  0.00000000000E+00 0. -1.
          2    1    6    6  503    0 -0.32744846459E+03  0.57329451420E+02  0.33154039740E+03  0.46949781477E+03  0.00000000000E+00 0. -1.
         -2    1    6    6    0  503  0.75038809943E+01 -0.98120086754E-01  0.78636126043E+01  0.10869878597E+02  0.00000000000E+00 0.  1.
<mgrwt>
<rscale>  0 0.20994359E+04</rscale>
<asrwt>0</asrwt>
<pdfrwt beam="1">  1        2 0.12633446E+00 0.20994359E+04</pdfrwt>
<pdfrwt beam="2">  1       -1 0.20644135E+00 0.20994359E+04</pdfrwt>
<totfact> 0.47540907E+00</totfact>
</mgrwt>
</event>
<event>
12    6  0.1642539E-007  0.2513345E+04  0.7818608E-02  0.8398247E-01
         -1   -1    0    0    0  501 -0.00000000000E+00  0.00000000000E+00  0.74852878124E+03  0.74852878124E+03  0.00000000000E+00 0.  1.
          2   -1    0    0  501    0  0.00000000000E+00 -0.00000000000E+00 -0.21097732448E+04  0.21097732448E+04  0.00000000000E+00 0. -1.
         24    2    1    2    0    0 -0.75607278647E+02  0.15297471130E+03  0.63506453326E+03  0.66222588550E+03  0.78220452219E+02 0.  0.
        254    2    1    2    0    0  0.75607278647E+02 -0.15297471130E+03 -0.19963089968E+04  0.21960761405E+04  0.89910126316E+03 0.  0.
         23    2    4    4    0    0  0.78801555958E+02  0.17932313554E+03 -0.17714892205E+04  0.17846248041E+04  0.91351852970E+02 0.  0.
         23    2    4    4    0    0 -0.31942773107E+01 -0.33229784684E+03 -0.22481977633E+03  0.41145133642E+03  0.91193245300E+02 0.  0.
          4    1    3    3  502    0 -0.22682851451E+02  0.43064716437E+02  0.77842230850E+02  0.91806832292E+02  0.00000000000E+00 0. -1.
         -3    1    3    3    0  502 -0.52924427196E+02  0.10990999486E+03  0.55722230241E+03  0.57041905321E+03  0.00000000000E+00 0.  1.
         11    1    5    5    0    0  0.48389896473E+01  0.11798554532E+03 -0.10942572628E+04  0.11006102679E+04  0.00000000000E+00 0.  1.
        -11    1    5    5    0    0  0.73962566310E+02  0.61337590224E+02 -0.67723195770E+03  0.68401453619E+03  0.00000000000E+00 0. -1.
          3    1    6    6  503    0  0.13952629720E+02 -0.28807127997E+03 -0.15608027689E+03  0.32793412609E+03  0.00000000000E+00 0. -1.
         -3    1    6    6    0  503 -0.17146907031E+02 -0.44226566874E+02 -0.68739499442E+02  0.83517210333E+02  0.00000000000E+00 0.  1.
<mgrwt>
<rscale>  0 0.25133452E+04</rscale>
<asrwt>0</asrwt>
<pdfrwt beam="1">  1        2 0.32458050E+00 0.25133452E+04</pdfrwt>
<pdfrwt beam="2">  1       -1 0.11515827E+00 0.25133452E+04</pdfrwt>
<totfact> 0.40231197E+00</totfact>
</mgrwt>
</event>
<event>
12    6  0.1530720E-007  0.1716369E+04  0.7818608E-02  0.8752083E-01
          2   -1    0    0  501    0  0.00000000000E+00  0.00000000000E+00  0.13375454449E+04  0.13375454449E+04  0.00000000000E+00 0. -1.
         -1   -1    0    0    0  501 -0.00000000000E+00 -0.00000000000E+00 -0.55062128728E+03  0.55062128728E+03  0.00000000000E+00 0.  1.
         24    2    1    2    0    0  0.38353821657E+03  0.14198299811E+03 -0.22406393614E+03  0.47323425142E+03  0.80531198411E+02 0.  0.
        254    2    1    2    0    0 -0.38353821657E+03 -0.14198299811E+03  0.10109880937E+04  0.14149324807E+04  0.90148558726E+03 0.  0.
         23    2    4    4    0    0  0.70230727354E+02  0.29406548739E+03  0.52968353158E+03  0.61729959881E+03  0.95327252744E+02 0.  0.
         23    2    4    4    0    0 -0.45376894392E+03 -0.43604848550E+03  0.48130456216E+03  0.79763288193E+03  0.92301660899E+02 0.  0.
          2    1    3    3  502    0  0.73481328138E+02 -0.10849972781E+01 -0.23196939391E+02  0.77063485524E+02  0.00000000000E+00 0. -1.
         -1    1    3    3    0  502  0.31005688843E+03  0.14306799539E+03 -0.20086699675E+03  0.39617076589E+03  0.00000000000E+00 0.  1.
         11    1    5    5    0    0  0.91098540866E+02  0.23190776453E+03  0.38698011849E+03  0.46025402497E+03  0.00000000000E+00 0. -1.
        -11    1    5    5    0    0 -0.20867813512E+02  0.62157722867E+02  0.14270341310E+03  0.15704557384E+03  0.00000000000E+00 0.  1.
          1    1    6    6  503    0 -0.14494961953E+03 -0.11117189143E+03  0.18699252969E+03  0.26141114706E+03  0.00000000000E+00 0. -1.
         -1    1    6    6    0  503 -0.30881932439E+03 -0.32487659408E+03  0.29431203247E+03  0.53622173487E+03  0.00000000000E+00 0.  1.
<mgrwt>
<rscale>  0 0.17163694E+04</rscale>
<asrwt>0</asrwt>
<pdfrwt beam="1">  1        2 0.20577622E+00 0.17163694E+04</pdfrwt>
<pdfrwt beam="2">  1       -1 0.84710967E-01 0.17163694E+04</pdfrwt>
<totfact> 0.23489608E+01</totfact>
</mgrwt>
</event>
<event>
12    6  0.1530720E-007  0.1373241E+04  0.7818608E-02  0.8973419E-01
         -1   -1    0    0    0  501 -0.00000000000E+00  0.00000000000E+00  0.32042389441E+03  0.32042389441E+03  0.00000000000E+00 0.  1.
          2   -1    0    0  501    0  0.00000000000E+00 -0.00000000000E+00 -0.14713250095E+04  0.14713250095E+04  0.00000000000E+00 0. -1.
         24    2    1    2    0    0 -0.19775407075E+03 -0.29354809305E+03 -0.52798419283E+03  0.64071765629E+03  0.80465220870E+02 0.  0.
        254    2    1    2    0    0  0.19775407075E+03  0.29354809305E+03 -0.62291692229E+03  0.11510312476E+04  0.90087195847E+03 0.  0.
         23    2    4    4    0    0  0.26646319049E+03  0.54605057738E+03 -0.19943667996E+03  0.64480388497E+03  0.82602638072E+02 0.  0.
         23    2    4    4    0    0 -0.68709119734E+02 -0.25250248434E+03 -0.42348024233E+03  0.50622736267E+03  0.91935734863E+02 0.  0.
          2    1    3    3  502    0 -0.52503545696E+02 -0.53766233138E+02 -0.17120962710E+03  0.18697637965E+03  0.00000000000E+00 0. -1.
         -1    1    3    3    0  502 -0.14525052506E+03 -0.23978185991E+03 -0.35677456574E+03  0.45374127664E+03  0.00000000000E+00 0.  1.
         11    1    5    5    0    0  0.22185441492E+03  0.41569768168E+03 -0.18524653412E+03  0.50630052575E+03  0.00000000000E+00 0. -1.
        -11    1    5    5    0    0  0.44608775564E+02  0.13035289571E+03 -0.14190145838E+02  0.13850335922E+03  0.00000000000E+00 0.  1.
          3    1    6    6  503    0 -0.81477676630E+02 -0.19531840663E+03 -0.37315211605E+03  0.42898763790E+03  0.00000000000E+00 0. -1.
         -3    1    6    6    0  503  0.12768556896E+02 -0.57184077709E+02 -0.50328126281E+02  0.77239724777E+02  0.00000000000E+00 0.  1.
<mgrwt>
<rscale>  0 0.13732410E+04</rscale>
<asrwt>0</asrwt>
<pdfrwt beam="1">  1        2 0.22635769E+00 0.13732410E+04</pdfrwt>
<pdfrwt beam="2">  1       -1 0.49295984E-01 0.13732410E+04</pdfrwt>
<totfact> 0.60375005E+01</totfact>
</mgrwt>
</event>
<event>
12    6  0.1530720E-007  0.1521829E+04  0.7818608E-02  0.8870065E-01
         -1   -1    0    0    0  501 -0.00000000000E+00  0.00000000000E+00  0.52105630946E+03  0.52105630946E+03  0.00000000000E+00 0.  1.
          2   -1    0    0  501    0  0.00000000000E+00 -0.00000000000E+00 -0.11111863607E+04  0.11111863607E+04  0.00000000000E+00 0. -1.
         24    2    1    2    0    0 -0.17524275409E+03 -0.42588996209E+03 -0.28277141928E+02  0.46799288330E+03  0.78265314140E+02 0.  0.
        254    2    1    2    0    0  0.17524275409E+03  0.42588996209E+03 -0.56185290930E+03  0.11642497868E+04  0.90978381598E+03 0.  0.
         23    2    4    4    0    0 -0.27069829729E+03  0.46631785614E+03 -0.40951024752E+03  0.68355526756E+03  0.93910861295E+02 0.  0.
         23    2    4    4    0    0  0.44594105138E+03 -0.40427894053E+02 -0.15234266177E+03  0.48069451929E+03  0.85796843475E+02 0.  0.
          4    1    3    3  502    0 -0.16140377949E+02 -0.35151892544E+02 -0.25066543149E+02  0.46092287155E+02  0.00000000000E+00 0. -1.
         -3    1    3    3    0  502 -0.15910237614E+03 -0.39073806954E+03 -0.32105987793E+01  0.42190059614E+03  0.00000000000E+00 0.  1.
         11    1    5    5    0    0 -0.76790891917E+02  0.86917564267E+02 -0.50943398194E+02  0.12667570359E+03  0.00000000000E+00 0. -1.
        -11    1    5    5    0    0 -0.19390740538E+03  0.37940029187E+03 -0.35856684933E+03  0.55687956397E+03  0.00000000000E+00 0.  1.
          1    1    6    6  503    0  0.19557558164E+02  0.15369821735E+02 -0.16011530778E+02  0.29582065839E+02  0.00000000000E+00 0. -1.
         -1    1    6    6    0  503  0.42638349322E+03 -0.55797715788E+02 -0.13633113099E+03  0.45111245345E+03  0.00000000000E+00 0.  1.
<mgrwt>
<rscale>  0 0.15218287E+04</rscale>
<asrwt>0</asrwt>
<pdfrwt beam="1">  1        2 0.17095175E+00 0.15218287E+04</pdfrwt>
<pdfrwt beam="2">  1       -1 0.80162510E-01 0.15218287E+04</pdfrwt>
<totfact> 0.36646302E+01</totfact>
</mgrwt>
</event>
<event>
12    6  0.1530720E-007  0.1507094E+04  0.7818608E-02  0.8879749E-01
          2   -1    0    0  501    0  0.00000000000E+00  0.00000000000E+00  0.54698237870E+03  0.54698237870E+03  0.00000000000E+00 0. -1.
         -1   -1    0    0    0  501 -0.00000000000E+00 -0.00000000000E+00 -0.10381200883E+04  0.10381200883E+04  0.00000000000E+00 0.  1.
         24    2    1    2    0    0 -0.21041219891E+03 -0.16292082414E+03 -0.58110208279E+03  0.64429232759E+03  0.81341775059E+02 0.  0.
        254    2    1    2    0    0  0.21041219891E+03  0.16292082414E+03  0.89964373157E+02  0.94081013945E+03  0.89789400358E+03 0.  0.
         23    2    4    4    0    0  0.32809390034E+02 -0.83835019207E+02  0.44584081325E+03  0.46417282824E+03  0.92615426340E+02 0.  0.
         23    2    4    4    0    0  0.17760280887E+03  0.24675584335E+03 -0.35587644009E+03  0.47663731121E+03  0.90021563422E+02 0.  0.
          4    1    3    3  502    0 -0.11236575433E+03 -0.38269242372E+02 -0.27568599098E+03  0.30015556513E+03  0.00000000000E+00 0. -1.
         -3    1    3    3    0  502 -0.98046444578E+02 -0.12465158177E+03 -0.30541609181E+03  0.34413676245E+03  0.00000000000E+00 0.  1.
         11    1    5    5    0    0 -0.88779013498E+01 -0.53289758146E+02  0.35957851565E+03  0.36361425216E+03  0.00000000000E+00 0.  1.
        -11    1    5    5    0    0  0.41687291384E+02 -0.30545261061E+02  0.86262297603E+02  0.10055857608E+03  0.00000000000E+00 0. -1.
          1    1    6    6  503    0  0.33494934397E+02  0.18590262308E+02 -0.13335408718E+02  0.40562810660E+02  0.00000000000E+00 0. -1.
         -1    1    6    6    0  503  0.14410787447E+03  0.22816558104E+03 -0.34254103137E+03  0.43607450055E+03  0.00000000000E+00 0.  1.
<mgrwt>
<rscale>  0 0.15070944E+04</rscale>
<asrwt>0</asrwt>
<pdfrwt beam="1">  1        2 0.84151136E-01 0.15070944E+04</pdfrwt>
<pdfrwt beam="2">  1       -1 0.15971078E+00 0.15070944E+04</pdfrwt>
<totfact> 0.17964017E+01</totfact>
</mgrwt>
</event>
<event>
12    6  0.1530720E-007  0.2205929E+04  0.7818608E-02  0.8515964E-01
          2   -1    0    0  501    0  0.00000000000E+00  0.00000000000E+00  0.21694783144E+04  0.21694783144E+04  0.00000000000E+00 0. -1.
         -1   -1    0    0    0  501 -0.00000000000E+00 -0.00000000000E+00 -0.56074791486E+03  0.56074791486E+03  0.00000000000E+00 0.  1.
         24    2    1    2    0    0  0.18765531974E+03 -0.14998840815E+03 -0.42614840226E+03  0.49402395180E+03  0.68892398738E+02 0.  0.
        254    2    1    2    0    0 -0.18765531974E+03  0.14998840815E+03  0.20348788018E+04  0.22362022774E+04  0.89563265132E+03 0.  0.
         23    2    4    4    0    0 -0.31103365725E+03  0.35624121615E+03  0.18688989421E+04  0.19298504542E+04  0.88824430975E+02 0.  0.
         23    2    4    4    0    0  0.12337833751E+03 -0.20625280801E+03  0.16597985962E+03  0.30635182325E+03  0.92410447623E+02 0.  0.
          4    1    3    3  502    0  0.15564840063E+02 -0.21569689617E+02 -0.15926082542E+02  0.31002513793E+02  0.00000000000E+00 0. -1.
         -3    1    3    3    0  502  0.17209047968E+03 -0.12841871853E+03 -0.41022231971E+03  0.46302143801E+03  0.00000000000E+00 0.  1.
         11    1    5    5    0    0  0.54553157384E+01  0.13700228128E+02  0.51835822268E+02  0.53892570831E+02  0.00000000000E+00 0. -1.
        -11    1    5    5    0    0 -0.31648897299E+03  0.34254098803E+03  0.18170631199E+04  0.18759578834E+04  0.00000000000E+00 0.  1.
          1    1    6    6  503    0  0.82657454515E+01  0.39024731044E+01  0.28866098876E+02  0.30278763325E+02  0.00000000000E+00 0. -1.
         -1    1    6    6    0  503  0.11511259206E+03 -0.21015528111E+03  0.13711376075E+03  0.27607305992E+03  0.00000000000E+00 0.  1.
<mgrwt>
<rscale>  0 0.22059288E+04</rscale>
<asrwt>0</asrwt>
<pdfrwt beam="1">  1        2 0.33376589E+00 0.22059288E+04</pdfrwt>
<pdfrwt beam="2">  1       -1 0.86268911E-01 0.22059288E+04</pdfrwt>
<totfact> 0.74036823E+00</totfact>
</mgrwt>
</event>
<event>
12    6  0.1530720E-007  0.1434634E+04  0.7818608E-02  0.8929123E-01
         -1   -1    0    0    0  501 -0.00000000000E+00  0.00000000000E+00  0.49995145766E+03  0.49995145766E+03  0.00000000000E+00 0.  1.
          2   -1    0    0  501    0  0.00000000000E+00 -0.00000000000E+00 -0.10291871044E+04  0.10291871044E+04  0.00000000000E+00 0. -1.
         24    2    1    2    0    0  0.83268671103E+02 -0.28738407617E+03 -0.48952406422E+03  0.57932842121E+03  0.80401065613E+02 0.  0.
        254    2    1    2    0    0 -0.83268671103E+02  0.28738407617E+03 -0.39711582526E+02  0.94981014085E+03  0.90057704559E+03 0.  0.
         23    2    4    4    0    0 -0.33140831001E+03  0.14642456887E+02  0.28784834255E+03  0.44828248294E+03  0.89747683583E+02 0.  0.
         23    2    4    4    0    0  0.24813963891E+03  0.27274161928E+03 -0.32755992508E+03  0.50152765791E+03  0.90957219859E+02 0.  0.
          2    1    3    3  502    0  0.71231780967E+02 -0.20589887158E+03 -0.28423579087E+03  0.35813167516E+03  0.00000000000E+00 0. -1.
         -1    1    3    3    0  502  0.12036890136E+02 -0.81485204580E+02 -0.20528827335E+03  0.22119674605E+03  0.00000000000E+00 0.  1.
         11    1    5    5    0    0 -0.11176821277E+03  0.36408879168E+02  0.13912310480E+03  0.18213450568E+03  0.00000000000E+00 0.  1.
        -11    1    5    5    0    0 -0.21964009724E+03 -0.21766422281E+02  0.14872523775E+03  0.26614797726E+03  0.00000000000E+00 0. -1.
          3    1    6    6  503    0  0.17383892390E+03  0.24477929462E+03 -0.26500448380E+03  0.40045505487E+03  0.00000000000E+00 0. -1.
         -3    1    6    6    0  503  0.74300715012E+02  0.27962324660E+02 -0.62555441282E+02  0.10107260304E+03  0.00000000000E+00 0.  1.
<mgrwt>
<rscale>  0 0.14346339E+04</rscale>
<asrwt>0</asrwt>
<pdfrwt beam="1">  1        2 0.15833648E+00 0.14346339E+04</pdfrwt>
<pdfrwt beam="2">  1       -1 0.76915610E-01 0.14346339E+04</pdfrwt>
<totfact> 0.45322436E+01</totfact>
</mgrwt>
</event>
<event>
12    6  0.1530720E-007  0.2209982E+04  0.7818608E-02  0.8514285E-01
          2   -1    0    0  501    0  0.00000000000E+00  0.00000000000E+00  0.15746839613E+04  0.15746839613E+04  0.00000000000E+00 0. -1.
         -1   -1    0    0    0  501 -0.00000000000E+00 -0.00000000000E+00 -0.77539665176E+03  0.77539665176E+03  0.00000000000E+00 0.  1.
         24    2    1    2    0    0 -0.89419767279E+01 -0.12923580699E+03  0.12971731123E+04  0.13059090158E+04  0.77190811632E+02 0.  0.
        254    2    1    2    0    0  0.89419767279E+01  0.12923580699E+03 -0.49788580282E+03  0.10441715972E+04  0.90863755100E+03 0.  0.
         23    2    4    4    0    0  0.15917100790E+03  0.85290678426E+02 -0.72405180534E+03  0.75232289694E+03  0.95544831617E+02 0.  0.
         23    2    4    4    0    0 -0.15022903117E+03  0.43945128567E+02  0.22616600253E+03  0.29184870031E+03  0.97594400657E+02 0.  0.
          4    1    3    3  502    0  0.13861096707E+02 -0.31224012677E+02  0.65584337662E+03  0.65673252061E+03  0.00000000000E+00 0. -1.
         -3    1    3    3    0  502 -0.22803073435E+02 -0.98011794316E+02  0.64132973573E+03  0.64917649519E+03  0.00000000000E+00 0.  1.
         11    1    5    5    0    0  0.25960047872E+02  0.61395426641E+02 -0.29476695733E+03  0.30220999592E+03  0.00000000000E+00 0. -1.
        -11    1    5    5    0    0  0.13321096003E+03  0.23895251785E+02 -0.42928484801E+03  0.45011290101E+03  0.00000000000E+00 0.  1.
          2    1    6    6  503    0  0.11079342659E+02 -0.94028895961E+01  0.16553669515E+02  0.22027032050E+02  0.00000000000E+00 0. -1.
         -2    1    6    6    0  503 -0.16130837383E+03  0.53348018163E+02  0.20961233301E+03  0.26982166826E+03  0.00000000000E+00 0.  1.
<mgrwt>
<rscale>  0 0.22099816E+04</rscale>
<asrwt>0</asrwt>
<pdfrwt beam="1">  1        2 0.24225907E+00 0.22099816E+04</pdfrwt>
<pdfrwt beam="2">  1       -1 0.11929179E+00 0.22099816E+04</pdfrwt>
<totfact> 0.75291192E+00</totfact>
</mgrwt>
</event>
<event>
12    6  0.1530720E-007  0.2073980E+04  0.7818608E-02  0.8572793E-01
         -1   -1    0    0    0  501 -0.00000000000E+00  0.00000000000E+00  0.13556591501E+04  0.13556591501E+04  0.00000000000E+00 0.  1.
          2   -1    0    0  501    0  0.00000000000E+00 -0.00000000000E+00 -0.79322873988E+03  0.79322873988E+03  0.00000000000E+00 0. -1.
         24    2    1    2    0    0 -0.27528044782E+02  0.48469307589E+02 -0.63381148728E+03  0.64136641196E+03  0.80788649910E+02 0.  0.
        254    2    1    2    0    0  0.27528044782E+02 -0.48469307589E+02  0.11962418975E+04  0.15075214780E+04  0.91570697405E+03 0.  0.
         23    2    4    4    0    0  0.30020685850E+03 -0.68911235335E+02  0.48682587759E+02  0.32463630928E+03  0.90254211553E+02 0.  0.
         23    2    4    4    0    0 -0.27267881372E+03  0.20441927746E+02  0.11475593097E+04  0.11828851687E+04  0.86909983276E+02 0.  0.
          4    1    3    3  502    0 -0.14506780392E+02  0.50578374429E+02 -0.62014181753E+03  0.62237006072E+03  0.00000000000E+00 0. -1.
         -3    1    3    3    0  502 -0.13021264390E+02 -0.21090668403E+01 -0.13669669759E+02  0.18996351244E+02  0.00000000000E+00 0.  1.
         11    1    5    5    0    0 -0.36713834281E+01 -0.10780407692E+02  0.38210523943E+01  0.12012355626E+02  0.00000000000E+00 0. -1.
        -11    1    5    5    0    0  0.30387824193E+03 -0.58130827642E+02  0.44861535365E+02  0.31262395365E+03  0.00000000000E+00 0.  1.
          3    1    6    6  503    0  0.34971123376E+01  0.28516688860E+00  0.14470992554E+01  0.37954197543E+01  0.00000000000E+00 0. -1.
         -3    1    6    6    0  503 -0.27617592606E+03  0.20156760857E+02  0.11461122105E+04  0.11790897490E+04  0.00000000000E+00 0.  1.
<mgrwt>
<rscale>  0 0.20739796E+04</rscale>
<asrwt>0</asrwt>
<pdfrwt beam="1">  1        2 0.12203519E+00 0.20739796E+04</pdfrwt>
<pdfrwt beam="2">  1       -1 0.20856295E+00 0.20739796E+04</pdfrwt>
<totfact> 0.48269139E+00</totfact>
</mgrwt>
</event>
<event>
12    6  0.1530720E-007  0.2517807E+04  0.7818608E-02  0.8396669E-01
         -1   -1    0    0    0  501 -0.00000000000E+00  0.00000000000E+00  0.12182694178E+04  0.12182694178E+04  0.00000000000E+00 0.  1.
          2   -1    0    0  501    0  0.00000000000E+00 -0.00000000000E+00 -0.13008931365E+04  0.13008931365E+04  0.00000000000E+00 0. -1.
         24    2    1    2    0    0  0.85765781487E+03 -0.67131072577E+03 -0.13666913295E+03  0.11004160195E+04  0.77472227619E+02 0.  0.
        254    2    1    2    0    0 -0.85765781487E+03  0.67131072577E+03  0.54045414254E+02  0.14187465348E+04  0.90757137757E+03 0.  0.
         23    2    4    4    0    0 -0.77200088773E+03  0.78138315892E+03  0.28030973647E+03  0.11372409461E+04  0.90545069153E+02 0.  0.
         23    2    4    4    0    0 -0.85656927141E+02 -0.11007243315E+03 -0.22626432222E+03  0.28150558869E+03  0.92718947631E+02 0.  0.
          2    1    3    3  502    0  0.33625743869E+03 -0.23755392633E+03 -0.19763779273E+02  0.41217901446E+03  0.00000000000E+00 0. -1.
         -1    1    3    3    0  502  0.52140037618E+03 -0.43375679943E+03 -0.11690535368E+03  0.68823700500E+03  0.00000000000E+00 0.  1.
         11    1    5    5    0    0 -0.36557598837E+03  0.42600619895E+03  0.11980070777E+03  0.57400286967E+03  0.00000000000E+00 0.  1.
        -11    1    5    5    0    0 -0.40642489936E+03  0.35537695997E+03  0.16050902871E+03  0.56323807647E+03  0.00000000000E+00 0. -1.
          3    1    6    6  503    0  0.18439918788E+02 -0.19486396939E+02 -0.20545179987E+02  0.33791340477E+02  0.00000000000E+00 0. -1.
         -3    1    6    6    0  503 -0.10409684593E+03 -0.90586036211E+02 -0.20571914223E+03  0.24771424821E+03  0.00000000000E+00 0.  1.
<mgrwt>
<rscale>  0 0.25178072E+04</rscale>
<asrwt>0</asrwt>
<pdfrwt beam="1">  1        2 0.20013740E+00 0.25178072E+04</pdfrwt>
<pdfrwt beam="2">  1       -1 0.18742607E+00 0.25178072E+04</pdfrwt>
<totfact> 0.30869897E+00</totfact>
</mgrwt>
</event>
<event>
12    6  0.1530720E-007  0.1684410E+04  0.7818608E-02  0.8770306E-01
         -1   -1    0    0    0  501 -0.00000000000E+00  0.00000000000E+00  0.83517955991E+03  0.83517955991E+03  0.00000000000E+00 0.  1.
          2   -1    0    0  501    0  0.00000000000E+00 -0.00000000000E+00 -0.84928908154E+03  0.84928908154E+03  0.00000000000E+00 0. -1.
         24    2    1    2    0    0  0.34551153974E+02 -0.55264298071E+03 -0.22769629521E+03  0.60402493388E+03  0.79952933158E+02 0.  0.
        254    2    1    2    0    0 -0.34551153974E+02  0.55264298071E+03  0.21358677358E+03  0.10804437076E+04  0.90284619344E+03 0.  0.
         23    2    4    4    0    0  0.17216011636E+03 -0.15140951622E+02  0.39702180381E+03  0.44220980888E+03  0.89748806609E+02 0.  0.
         23    2    4    4    0    0 -0.20671127033E+03  0.56778393233E+03 -0.18343503023E+03  0.63823389869E+03  0.92660433980E+02 0.  0.
          2    1    3    3  502    0  0.49215100086E+02 -0.35575635784E+03 -0.17592559486E+03  0.39991815056E+03  0.00000000000E+00 0. -1.
         -1    1    3    3    0  502 -0.14663946112E+02 -0.19688662287E+03 -0.51770700353E+02  0.20410678332E+03  0.00000000000E+00 0.  1.
         11    1    5    5    0    0  0.14603734303E+03 -0.28664709852E+02  0.38027780629E+03  0.40836231597E+03  0.00000000000E+00 0. -1.
        -11    1    5    5    0    0  0.26122773330E+02  0.13523758230E+02  0.16743997520E+02  0.33847492906E+02  0.00000000000E+00 0.  1.
          4    1    6    6  503    0 -0.19675025981E+03  0.42788791480E+03 -0.13647451982E+03  0.49033052824E+03  0.00000000000E+00 0. -1.
         -4    1    6    6    0  503 -0.99610105243E+01  0.13989601753E+03 -0.46960510407E+02  0.14790337045E+03  0.00000000000E+00 0.  1.
<mgrwt>
<rscale>  0 0.16844095E+04</rscale>
<asrwt>0</asrwt>
<pdfrwt beam="1">  1        2 0.13065986E+00 0.16844095E+04</pdfrwt>
<pdfrwt beam="2">  1       -1 0.12848916E+00 0.16844095E+04</pdfrwt>
<totfact> 0.18051674E+01</totfact>
</mgrwt>
</event>
<event>
12    6  0.1530720E-007  0.1319045E+04  0.7818608E-02  0.9014597E-01
          2   -1    0    0  501    0  0.00000000000E+00  0.00000000000E+00  0.61579228605E+03  0.61579228605E+03  0.00000000000E+00 0. -1.
         -1   -1    0    0    0  501 -0.00000000000E+00 -0.00000000000E+00 -0.70635843381E+03  0.70635843381E+03  0.00000000000E+00 0.  1.
         24    2    1    2    0    0 -0.49523069054E+02 -0.18216203603E+03  0.28469114471E+03  0.35059601057E+03  0.78949179965E+02 0.  0.
        254    2    1    2    0    0  0.49523069054E+02  0.18216203603E+03 -0.37525729247E+03  0.97155470929E+03  0.87605078383E+03 0.  0.
         23    2    4    4    0    0  0.17733548584E+03  0.22698209935E+03 -0.61306526804E+03  0.68319389883E+03  0.89084973813E+02 0.  0.
         23    2    4    4    0    0 -0.12781241678E+03 -0.44820063319E+02  0.23780797558E+03  0.28836081045E+03  0.90854123717E+02 0.  0.
          2    1    3    3  502    0 -0.40757111416E+02 -0.75880896246E+02  0.18737868020E+03  0.20622759840E+03  0.00000000000E+00 0. -1.
         -1    1    3    3    0  502 -0.87659576387E+01 -0.10628113978E+03  0.97312464504E+02  0.14436841218E+03  0.00000000000E+00 0.  1.
         11    1    5    5    0    0  0.18140171347E+03  0.23035322319E+03 -0.58202250953E+03  0.65170498747E+03  0.00000000000E+00 0.  1.
        -11    1    5    5    0    0 -0.40662276313E+01 -0.33711238450E+01 -0.31042758510E+02  0.31488911366E+02  0.00000000000E+00 0. -1.
          3    1    6    6  503    0 -0.19625023996E+02 -0.24275873915E+02  0.60867933494E+01  0.31804224161E+02  0.00000000000E+00 0. -1.
         -3    1    6    6    0  503 -0.10818739279E+03 -0.20544189405E+02  0.23172118223E+03  0.25655658629E+03  0.00000000000E+00 0.  1.
<mgrwt>
<rscale>  0 0.13190452E+04</rscale>
<asrwt>0</asrwt>
<pdfrwt beam="1">  1        2 0.94737274E-01 0.13190452E+04</pdfrwt>
<pdfrwt beam="2">  1       -1 0.10867053E+00 0.13190452E+04</pdfrwt>
<totfact> 0.42238835E+01</totfact>
</mgrwt>
</event>
